   * xtb version 6.6.1 (8d0f1dd) compiled by 'conda@1efc2f54142f' on 2023-08-01
          program call               : xtb xtbopt.xyz --opt crude --input .xc2 --gfn2

   ID    Z sym.   atoms
    1    7 N      1, 17
    2    6 C      2-6, 8, 9, 11-16, 18-23, 25, 26, 28-33
    3    8 O      7, 10, 24, 27
    4    1 H      34-72
########################################################################
[WARNING] Please study the warnings concerning your input carefully
-1- readin_getIntValue: could not parse ''
########################################################################

          :  Hamiltonian                  GFN2-xTB          :
 * total energy  :   -99.1684484 Eh     change       -0.8422774E-10 Eh
 * total energy  :   -99.1776109 Eh     change       -0.9162506E-02 Eh
 * total energy  :   -99.1837832 Eh     change       -0.6172248E-02 Eh
 * total energy  :   -99.1880156 Eh     change       -0.4232439E-02 Eh
 * total energy  :   -99.1933231 Eh     change       -0.5307499E-02 Eh
 * total energy  :   -99.2010034 Eh     change       -0.7680274E-02 Eh
 * total energy  :   -99.2085422 Eh     change       -0.7538786E-02 Eh
 * total energy  :   -99.2148207 Eh     change       -0.6278549E-02 Eh
 * total energy  :   -99.2356725 Eh     change       -0.2085173E-01 Eh
 * total energy  :   -99.2489120 Eh     change       -0.1323950E-01 Eh
 * total energy  :   -99.2690042 Eh     change       -0.2123518E-02 Eh
 * total energy  :   -99.2791533 Eh     change       -0.1014911E-01 Eh
 * total energy  :   -99.2823561 Eh     change       -0.3202766E-02 Eh
 * total energy  :   -99.2858232 Eh     change       -0.3467144E-02 Eh
 * total energy  :   -99.2883292 Eh     change       -0.2505991E-02 Eh
 * total energy  :   -99.2899570 Eh     change       -0.1627776E-02 Eh
 * total energy  :   -99.2909833 Eh     change       -0.1026371E-02 Eh
 * total energy  :   -99.2917209 Eh     change       -0.7375744E-03 Eh
 * total energy  :   -99.2921096 Eh     change       -0.3886714E-03 Eh
   *** GEOMETRY OPTIMIZATION CONVERGED AFTER 21 ITERATIONS ***

 final structure:
================
72
 xtb: 6.6.1 (8d0f1dd)
N           -2.06756607157710        2.86076780221369        2.28418174169282
C           -1.99042284748148        2.10331038889194        1.29366060396164
C           -3.08398338871285        1.90075419734792        0.28182857162186
C           -3.58735016557027        0.46726067018621        0.35776266730149
C           -4.44475844025262       -0.01851879483409       -0.63179854330105
C           -4.94535665458595       -1.30842056221792       -0.58661101526008
O           -5.78258652155484       -1.85178152683841       -1.49593314388178
C           -6.28792203273345       -1.04565130595816       -2.53372417758511
C           -4.57460777918601       -2.16568956100580        0.48371270976224
O           -5.10470011050746       -3.40558433719719        0.44364272453118
C           -4.84937931526780       -4.29360193413210        1.50634026597358
C           -3.72541129827341       -1.67728466308084        1.46325594546446
C           -3.24097213403700       -0.37640365299664        1.40098184140363
C           -2.43409370013836        2.16040582085493       -1.10266072656287
C           -1.49444948925077        1.04094517482280       -1.58517924208717
C           -0.20107169189656        1.00489357712904       -0.86772896211882
N            0.41173252809688       -0.09235559632977       -0.42615370981974
C            1.79052134213042       -0.03004941211505       -0.00668390492000
C            2.74644509235353       -0.50713367809863       -1.12382029130513
C            4.16109110111283       -0.16381138519385       -0.78147972644202
C            6.47749512700495        2.63252803733647       -1.11978907319940
C            6.64974962010301        1.50948738513766       -0.70727773283144
C            7.15013703723242        0.30826240300690       -0.17976371977212
O            8.45329831798676        0.25696731484692        0.18449130698291
C            9.26904873523599        1.37940164883025       -0.05684190722756
C            6.42382466532537       -0.86094714481390        0.00947907225885
O            7.18664479998709       -1.84625709076655        0.55400867679796
C            6.69254851916603       -3.14740432677465        0.77013067221941
C            5.04770009897272       -1.06767115293204       -0.33332454443219
C           -0.20279215444867       -1.39479023151871       -0.50731729727464
C           -4.29766584555921        2.85476558368826        0.48522637707826
C           -5.00905087278242        2.57694915141567        1.80733577379592
C           -3.92085954178258        4.33147481468281        0.40187781921288
H           -4.73525172446485        0.62818386063562       -1.44289648077708
H           -6.83047697722740       -0.18019118490450       -2.14142629829473
H           -6.97644077868825       -1.68090207621445       -3.08742583714566
H           -5.49224463022153       -0.70649072227008       -3.20527939030728
H           -5.20761438070945       -3.89227924055712        2.45902788754890
H           -5.40066343845628       -5.20084063675651        1.26706602917128
H           -3.78316438629027       -4.52874073826854        1.58657337581514
H           -3.44199636936555       -2.29872809648245        2.29717780936493
H           -2.60729987499847       -0.02247751367715        2.19944200770955
H           -3.22498799309009        2.28120979488600       -1.84227721378979
H           -1.87802574440956        3.09776394453983       -1.06051273589626
H           -2.00954506030422        0.08305769080757       -1.53636480307894
H           -1.27537658475530        1.24836974923109       -2.64122639481378
H           -1.08136799516236        1.53117811710495        1.02732926863600
H            0.36117679438327        1.92471045230797       -0.80997840353658
H            1.92870069745061       -0.65193967783931        0.88099570417927
H            2.03814218483667        1.00042957558396        0.25440228090487
H            2.46443824204889        0.00338981688975       -2.05169260248229
H            2.63210001518225       -1.58453297290705       -1.26995373018478
H            6.23718747299989        3.57737300694674       -1.50825170432050
H            4.42556113127340        0.87660327115891       -0.87485354278885
H            8.91807273598044        2.25459147008892        0.49741052331615
H            9.30091095203282        1.62543869426796       -1.12240461254442
H           10.26238832728228        1.10222965764585        0.28546036421298
H            7.54221859616635       -3.69824537718194        1.17644278107235
H            5.87390186090096       -3.16271424135886        1.49894445014952
H            6.37066364657711       -3.62515313197909       -0.15985453267114
H            4.70001806994649       -2.08764587692584       -0.24093258058488
H           -0.31693039933187       -1.71630172110136       -1.54488361297660
H           -1.18716575015232       -1.38115659894432       -0.03470414353062
H            0.42101241493540       -2.11636820478274        0.01358362062293
H           -5.00156632626688        2.63847483721562       -0.32675553226923
H           -4.34953814095003        2.80254673707064        2.63902176059588
H           -5.32034132042447        1.53732076018654        1.87469910839846
H           -5.89272694266776        3.20466999840493        1.88514047205259
H           -3.19361753365372        4.57826140183754        1.16905876693756
H           -3.51827508845875        4.59348459214974       -0.57304812863106
H           -4.80850818036854        4.93597093517725        0.56834062127366
H           -1.25208885369174        2.93877155688308        2.88404123934033

          :  Hamiltonian                  GFN2-xTB          :
         :: total energy             -99.292109587235 Eh    ::
         :: gradient norm              0.007992036129 Eh/a0 ::
         :: HOMO-LUMO gap              1.295514357536 eV    ::
         :: SCC energy              -100.715365811533 Eh    ::
         :: -> dispersion             -0.073497189325 Eh    ::
         :: repulsion energy           1.421983012680 Eh    ::

    * Orbital Energies and Occupations

         #    Occupation            Energy/Eh            Energy/eV
      -------------------------------------------------------------
         1        2.0000           -0.8085019             -22.0005
       ...           ...                  ...                  ...
        78        1.9985           -0.5245793             -14.2745
        79        1.9984           -0.5244230             -14.2703
        80        1.9984           -0.5242636             -14.2659
        81        1.9977           -0.5183764             -14.1057
        82        1.9972           -0.5151355             -14.0176
        83        1.9968           -0.5129614             -13.9584
        84        1.9963           -0.5108021             -13.8996
        85        1.9957           -0.5082228             -13.8294
        86        1.9949           -0.5056056             -13.7582
        87        1.9826           -0.4860814             -13.2269
        88        1.9425           -0.4668548             -12.7038
        89        1.8839           -0.4552229             -12.3872
        90        1.6988           -0.4384970             -11.9321 (HOMO)
        91        0.4362           -0.3908877             -10.6366 (LUMO)
        92        0.0659           -0.3575919              -9.7306
        93        0.0155           -0.3342875              -9.0964
        94        0.0038           -0.3120628              -8.4917
        95        0.0031           -0.3088258              -8.4036
        96        0.0003           -0.2739229              -7.4538
        97        0.0002           -0.2673175              -7.2741
        98        0.0000           -0.1872845              -5.0963
        99        0.0000           -0.1861582              -5.0656
       100                         -0.1322871              -3.5997
       101                         -0.0830357              -2.2595
       ...                                ...                  ...
       171                          1.2817954              34.8794
      -------------------------------------------------------------
                  HL-Gap            0.0476093 Eh            1.2955 eV

     #   Z          covCN         q      C6AA      α(0)
     1   7 N        1.774    -0.271    27.858     7.816
     2   6 C        2.827     0.101    25.755     8.316
     3   6 C        3.908     0.006    20.414     6.422
     4   6 C        2.974     0.002    27.987     8.678
     5   6 C        2.921    -0.080    30.008     8.983
     6   6 C        2.862     0.129    25.181     8.225
     7   8 O        1.706    -0.232    17.852     5.705
     8   6 C        3.644     0.028    20.433     6.497
     9   6 C        2.864     0.128    25.199     8.228
    10   8 O        1.706    -0.231    17.829     5.701
    11   6 C        3.645     0.028    20.442     6.498
    12   6 C        2.914    -0.075    29.869     8.962
    13   6 C        2.921    -0.053    29.327     8.881
    14   6 C        3.813    -0.064    21.723     6.634
    15   6 C        3.802    -0.068    21.807     6.649
    16   6 C        2.844     0.003    27.950     8.664
    17   7 N        2.729     0.005    21.182     6.836
    18   6 C        3.756    -0.016    20.921     6.522
    19   6 C        3.804    -0.065    21.738     6.638
    20   6 C        2.892    -0.051    29.274     8.871
    21   6 C        1.910    -0.080    33.283     9.317
    22   6 C        1.967    -0.026    31.746     9.099
    23   6 C        2.845     0.143    24.876     8.174
    24   8 O        1.707    -0.212    17.531     5.653
    25   6 C        3.645     0.025    20.493     6.506
    26   6 C        2.836     0.123    25.290     8.241
    27   8 O        1.709    -0.230    17.818     5.699
    28   6 C        3.634     0.029    20.471     6.511
    29   6 C        2.893    -0.059    29.474     8.901
    30   6 C        3.699    -0.069    21.984     6.706
    31   6 C        3.853    -0.007    20.671     6.467
    32   6 C        3.756    -0.118    22.820     6.811
    33   6 C        3.755    -0.118    22.825     6.812
    34   1 H        0.926     0.051     2.309     2.376
    35   1 H        0.924     0.053     2.285     2.364
    36   1 H        0.925     0.080     1.979     2.200
    37   1 H        0.924     0.046     2.371     2.408
    38   1 H        0.924     0.054     2.268     2.355
    39   1 H        0.925     0.080     1.980     2.200
    40   1 H        0.924     0.047     2.360     2.402
    41   1 H        0.926     0.051     2.308     2.376
    42   1 H        0.926     0.038     2.472     2.459
    43   1 H        0.925     0.059     2.210     2.325
    44   1 H        0.924     0.053     2.289     2.366
    45   1 H        0.925     0.065     2.137     2.286
    46   1 H        0.923     0.077     2.013     2.219
    47   1 H        0.922     0.006     2.965     2.693
    48   1 H        0.926     0.066     2.131     2.283
    49   1 H        0.924     0.067     2.124     2.279
    50   1 H        0.924     0.067     2.116     2.275
    51   1 H        0.924     0.056     2.247     2.344
    52   1 H        0.924     0.054     2.266     2.354
    53   1 H        0.928     0.102     1.766     2.078
    54   1 H        0.926     0.049     2.337     2.390
    55   1 H        0.924     0.057     2.237     2.339
    56   1 H        0.924     0.057     2.231     2.336
    57   1 H        0.925     0.084     1.943     2.180
    58   1 H        0.924     0.082     1.957     2.187
    59   1 H        0.924     0.049     2.334     2.389
    60   1 H        0.924     0.052     2.299     2.371
    61   1 H        0.925     0.056     2.244     2.343
    62   1 H        0.924     0.074     2.042     2.235
    63   1 H        0.924     0.079     1.989     2.206
    64   1 H        0.925     0.078     1.998     2.210
    65   1 H        0.924     0.036     2.502     2.473
    66   1 H        0.925     0.068     2.107     2.270
    67   1 H        0.925     0.035     2.517     2.481
    68   1 H        0.925     0.050     2.320     2.382
    69   1 H        0.925     0.061     2.190     2.314
    70   1 H        0.925     0.034     2.535     2.490
    71   1 H        0.925     0.053     2.277     2.360
    72   1 H        0.860     0.155     1.368     1.832

Wiberg/Mayer (AO) data.
largest (>0.10) Wiberg bond orders for each atom

     #   Z sym  total        # sym  WBO       # sym  WBO       # sym  WBO
 ---------------------------------------------------------------------------
     1   7 N    3.036 --     2 C    1.954    72 H    0.943
     2   6 C    3.928 --     1 N    1.954     3 C    0.995    47 H    0.902
     3   6 C    3.977 --     2 C    0.995     4 C    0.970    14 C    0.957
                            31 C    0.943
     4   6 C    3.952 --    13 C    1.417     5 C    1.367     3 C    0.970
     5   6 C    3.964 --     6 C    1.403     4 C    1.367    34 H    0.958
     6   6 C    3.908 --     5 C    1.403     9 C    1.225     7 O    1.096
     7   8 O    2.253 --     6 C    1.096     8 C    0.979
     8   6 C    3.933 --     7 O    0.979    36 H    0.977    35 H    0.974
                            37 H    0.974
     9   6 C    3.904 --    12 C    1.394     6 C    1.225    10 O    1.098
    10   8 O    2.252 --     9 C    1.098    11 C    0.978
    11   6 C    3.933 --    10 O    0.978    39 H    0.977    40 H    0.974
                            38 H    0.974
    12   6 C    3.964 --    13 C    1.402     9 C    1.394    41 H    0.964
    13   6 C    3.957 --     4 C    1.417    12 C    1.402    42 H    0.963
    14   6 C    3.973 --    15 C    0.982    44 H    0.972    43 H    0.969
                             3 C    0.957
    15   6 C    3.987 --    16 C    1.060    14 C    0.982    45 H    0.961
                            46 H    0.928
    16   6 C    3.566 --    17 N    1.381    15 C    1.060    48 H    0.958
    17   7 N    3.461 --    16 C    1.381    30 C    0.999    18 C    0.992
    18   6 C    3.950 --    17 N    0.992    50 H    0.968    49 H    0.966
                            19 C    0.959
    19   6 C    3.977 --    20 C    1.031    52 H    0.973    51 H    0.965
                            18 C    0.959
    20   6 C    3.871 --    29 C    1.730    19 C    1.031    54 H    0.957
    21   6 C    3.884 --    22 C    2.751    53 H    0.967
    22   6 C    3.969 --    21 C    2.751    23 C    1.145
    23   6 C    3.808 --    26 C    1.374    22 C    1.145    24 O    1.095
    24   8 O    2.246 --    23 C    1.095    25 C    0.977
    25   6 C    3.926 --    24 O    0.977    57 H    0.977    56 H    0.972
                            55 H    0.972
    26   6 C    3.822 --    23 C    1.374    29 C    1.168    27 O    1.088
    27   8 O    2.223 --    26 C    1.088    28 C    0.980
    28   6 C    3.932 --    27 O    0.980    58 H    0.975    59 H    0.973
                            60 H    0.972
    29   6 C    3.961 --    20 C    1.730    26 C    1.168    61 H    0.955
    30   6 C    3.959 --    17 N    0.999    64 H    0.978    62 H    0.967
                            63 H    0.963
    31   6 C    3.974 --    33 C    1.009    32 C    1.008    65 H    0.961
                             3 C    0.943
    32   6 C    3.980 --    31 C    1.008    67 H    0.982    68 H    0.982
                            66 H    0.975
    33   6 C    3.984 --    31 C    1.009    70 H    0.983    71 H    0.981
                            69 H    0.977
    34   1 H    0.996 --     5 C    0.958
    35   1 H    0.994 --     8 C    0.974
    36   1 H    0.993 --     8 C    0.977
    37   1 H    0.994 --     8 C    0.974
    38   1 H    0.993 --    11 C    0.974
    39   1 H    0.993 --    11 C    0.977
    40   1 H    0.994 --    11 C    0.974
    41   1 H    0.996 --    12 C    0.964
    42   1 H    0.998 --    13 C    0.963
    43   1 H    0.995 --    14 C    0.969
    44   1 H    0.996 --    14 C    0.972
    45   1 H    0.995 --    15 C    0.961
    46   1 H    0.969 --    15 C    0.928
    47   1 H    0.988 --     2 C    0.902
    48   1 H    0.995 --    16 C    0.958
    49   1 H    0.991 --    18 C    0.966
    50   1 H    0.994 --    18 C    0.968
    51   1 H    0.993 --    19 C    0.965
    52   1 H    0.996 --    19 C    0.973
    53   1 H    0.989 --    21 C    0.967
    54   1 H    0.997 --    20 C    0.957
    55   1 H    0.989 --    25 C    0.972
    56   1 H    0.989 --    25 C    0.972
    57   1 H    0.992 --    25 C    0.977
    58   1 H    0.992 --    28 C    0.975
    59   1 H    0.991 --    28 C    0.973
    60   1 H    0.991 --    28 C    0.972
    61   1 H    0.996 --    29 C    0.955
    62   1 H    0.984 --    30 C    0.967
    63   1 H    0.987 --    30 C    0.963
    64   1 H    0.994 --    30 C    0.978
    65   1 H    0.993 --    31 C    0.961
    66   1 H    0.992 --    32 C    0.975
    67   1 H    0.997 --    32 C    0.982
    68   1 H    0.994 --    32 C    0.982
    69   1 H    0.993 --    33 C    0.977
    70   1 H    0.997 --    33 C    0.983
    71   1 H    0.994 --    33 C    0.981
    72   1 H    0.971 --     1 N    0.943
 ---------------------------------------------------------------------------

molecular dipole:
                 x           y           z       tot (Debye)
 q only:        1.488      -0.082      -0.793
   full:        1.761      -0.139      -0.946       5.093

           -------------------------------------------------
          | TOTAL ENERGY              -99.292109587235 Eh   |
          | GRADIENT NORM               0.007992036129 Eh/α |
          | HOMO-LUMO GAP               1.295514357536 eV   |
           -------------------------------------------------

 * finished run on 2024/04/06 at 11:14:17.050
