   * xtb version 6.6.1 (8d0f1dd) compiled by 'conda@1efc2f54142f' on 2023-08-01
          program call               : xtb struc.xyz --opt loose --input .xc1 --gfn2

   ID    Z sym.   atoms
    1    6 C      1, 3, 5-7, 10, 11, 14
    2    7 N      2, 4, 9, 13
    3    8 O      8, 12
    4    1 H      15-25
constraining bond 5 25 to    2.7133300 Å, actual value:    2.1289605 Å

          :  Hamiltonian                  GFN2-xTB          :
 * total energy  :   -42.8697876 Eh     change       -0.2401990E-09 Eh
 * total energy  :   -45.0349008 Eh     change       -0.2165113E+01 Eh
 * total energy  :   -48.3444664 Eh     change       -0.3309566E+01 Eh
 * total energy  :   -34.1674592 Eh     change        0.1417701E+02 Eh
 * total energy  :   -49.5532458 Eh     change       -0.1538579E+02 Eh
 * total energy  :   -49.5484594 Eh     change        0.4786418E-02 Eh
 * total energy  :   -49.6698371 Eh     change       -0.1213777E+00 Eh
 * total energy  :   -49.6929015 Eh     change       -0.2306440E-01 Eh
 * total energy  :   -49.7159072 Eh     change       -0.2300571E-01 Eh
 * total energy  :   -49.7217671 Eh     change       -0.5859886E-02 Eh
 * total energy  :   -49.8733510 Eh     change       -0.4665614E-02 Eh
 * total energy  :   -49.8754522 Eh     change       -0.2101249E-02 Eh
 * total energy  :   -49.8786012 Eh     change       -0.3148934E-02 Eh
 * total energy  :   -49.8800347 Eh     change       -0.1433497E-02 Eh
 * total energy  :   -49.8807671 Eh     change       -0.7324694E-03 Eh
 * total energy  :   -49.8809617 Eh     change       -0.1945722E-03 Eh
 * total energy  :   -49.8811932 Eh     change       -0.2315045E-03 Eh
 * total energy  :   -49.8812330 Eh     change       -0.3982918E-04 Eh
 * total energy  :   -49.8812554 Eh     change       -0.2234177E-04 Eh
   *** GEOMETRY OPTIMIZATION CONVERGED AFTER 34 ITERATIONS ***

 final structure:
================
25
 xtb: 6.6.1 (8d0f1dd)
C            3.07984472691417        1.13899847936389       -0.01344442525773
N            2.27760788842468       -0.05947462882015       -0.01145814687259
C            2.99193651024858       -1.25466579940341        0.06144123469527
N            2.55302629694404       -2.40672214302590        0.10612709501291
C            0.26666696625583       -1.35002963377662       -0.07096253077381
C            0.90016548719499       -0.08758696703632       -0.02669156021642
C            0.11139270798750        1.15256864560430       -0.00687618248895
O            0.57151827920482        2.28067264134137       -0.01035287638565
N           -1.26073845009191        0.97329780901569        0.00620451637090
C           -2.11151344925387        2.14831393977254        0.01197640472260
C           -1.92551775446719       -0.23932632449186        0.02763764651247
O           -3.12856838471386       -0.30659444331047        0.07433857991922
N           -1.11634910743240       -1.36098471275258       -0.02016885612954
C           -1.75589866496098       -2.65930805186416       -0.02049079188410
H            3.58764811029933        1.25571283663623        0.94894425411984
H            3.83556809409064        1.08079096764695       -0.80009065968808
H            2.46044706134710        2.01976719976449       -0.18194050586243
H            4.07733977765452       -1.08412391960467        0.08613515773186
H           -1.48318180100791        3.03764084809127        0.02513383987894
H           -2.74676494389486        2.14814537363752       -0.87655402872643
H           -2.76246973526983        2.12936487812772        0.88845194651117
H           -1.46257941609432       -3.22435172116225        0.86637947379077
H           -1.46353075627902       -3.22540123103353       -0.90631768727719
H           -2.83639501484799       -2.51705808722071       -0.01720181957733
H            0.50077708584795       -1.77140741389939       -0.10904846022570

          :  Hamiltonian                  GFN2-xTB          :
         :: total energy             -49.881255371292 Eh    ::
         :: gradient norm              0.003833538373 Eh/a0 ::
         :: HOMO-LUMO gap              0.427179824966 eV    ::
         :: SCC energy               -42.689760730528 Eh    ::
         :: -> dispersion             -0.021899503265 Eh    ::
         :: repulsion energy           1.685951951212 Eh    ::

    * Orbital Energies and Occupations

         #    Occupation            Energy/Eh            Energy/eV
      -------------------------------------------------------------
         1        2.0000           -0.9040463             -24.6004
       ...           ...                  ...                  ...
        25        1.9969           -0.6805326             -18.5182
        26        1.9918           -0.6578119             -17.9000
        27        1.9879           -0.6484648             -17.6456
        28        1.9877           -0.6479833             -17.6325
        29        1.9812           -0.6378529             -17.3569
        30        1.9809           -0.6374104             -17.3448
        31        1.9736           -0.6296474             -17.1336
        32        1.9297           -0.6058939             -16.4872
        33        1.9247           -0.6041912             -16.4409
        34        1.8931           -0.5954840             -16.2039
        35        1.8831           -0.5932246             -16.1425
        36        1.8331           -0.5841312             -15.8950
        37        1.4211           -0.5485439             -14.9266 (HOMO)
        38        1.1180           -0.5328453             -14.4995 (LUMO)
        39        0.0898           -0.4545928             -12.3701
        40        0.0139           -0.4093805             -11.1398
        41        0.0035           -0.3763655             -10.2414
        42        0.0003           -0.3192025              -8.6859
        43        0.0000           -0.2171746              -5.9096
        44        0.0000           -0.1667306              -4.5370
        45        0.0000           -0.1636307              -4.4526
        46                         -0.0724618              -1.9718
        47                         -0.0583374              -1.5874
        48                         -0.0440356              -1.1983
       ...                                ...                  ...
        67                          7.1226913             193.8183
      -------------------------------------------------------------
                  HL-Gap            0.0156986 Eh            0.4272 eV

     #   Z          covCN         q      C6AA      α(0)
     1   6 C        3.702    -0.089    22.358     6.761
     2   7 N        2.739     0.032    20.686     6.755
     3   6 C        2.778     0.122    25.296     8.238
     4   7 N        0.915    -0.208    25.498     7.301
     5   6 C        2.853    -0.027    28.666     8.775
     6   6 C        2.914     0.023    27.485     8.597
     7   6 C        2.765     0.264    22.541     7.775
     8   8 O        0.859    -0.335    20.420     6.059
     9   7 N        2.743    -0.052    22.246     7.005
    10   6 C        3.709    -0.064    21.882     6.686
    11   6 C        2.718     0.314    21.668     7.620
    12   8 O        0.859    -0.325    20.246     6.033
    13   7 N        2.752    -0.014    21.528     6.891
    14   6 C        3.707    -0.079    22.164     6.729
    15   1 H        0.924     0.114     1.661     2.015
    16   1 H        0.924     0.112     1.684     2.029
    17   1 H        0.925     0.148     1.402     1.852
    18   1 H        0.923     0.129     1.541     1.941
    19   1 H        0.925     0.131     1.524     1.931
    20   1 H        0.924     0.123     1.590     1.972
    21   1 H        0.924     0.125     1.577     1.964
    22   1 H        0.924     0.119     1.620     1.990
    23   1 H        0.924     0.118     1.630     1.996
    24   1 H        0.925     0.134     1.503     1.917
    25   1 H        0.950     0.184     1.183     1.700

Wiberg/Mayer (AO) data.
largest (>0.10) Wiberg bond orders for each atom

     #   Z sym  total        # sym  WBO       # sym  WBO       # sym  WBO
 ---------------------------------------------------------------------------
     1   6 C    3.843 --     2 N    1.000    16 H    0.943    15 H    0.935
                            17 H    0.918
     2   7 N    3.384 --     6 C    1.184     3 C    1.082     1 C    1.000
     3   6 C    3.893 --     4 N    1.911     2 N    1.082    18 H    0.853
     4   7 N    2.039 --     3 C    1.911
     5   6 C    3.729 --     6 C    1.387    13 N    1.219    25 H    0.934
     6   6 C    3.820 --     5 C    1.387     2 N    1.184     7 C    1.051
     7   6 C    3.902 --     8 O    1.632     9 N    1.126     6 C    1.051
     8   8 O    1.922 --     7 C    1.632     9 N    0.119
     9   7 N    3.496 --     7 C    1.126    11 C    1.099    10 C    0.979
                             8 O    0.119    12 O    0.111
    10   6 C    3.843 --     9 N    0.979    19 H    0.948    21 H    0.936
                            20 H    0.936
    11   6 C    3.936 --    12 O    1.660     9 N    1.099    13 N    1.091
    12   8 O    1.938 --    11 C    1.660     9 N    0.111
    13   7 N    3.492 --     5 C    1.219    11 C    1.091    14 C    0.984
    14   6 C    3.865 --    13 N    0.984    24 H    0.951    23 H    0.944
                            22 H    0.942
    15   1 H    0.951 --     1 C    0.935
    16   1 H    0.958 --     1 C    0.943
    17   1 H    0.957 --     1 C    0.918
    18   1 H    0.873 --     3 C    0.853
    19   1 H    0.967 --    10 C    0.948
    20   1 H    0.954 --    10 C    0.936
    21   1 H    0.955 --    10 C    0.936
    22   1 H    0.958 --    14 C    0.942
    23   1 H    0.960 --    14 C    0.944
    24   1 H    0.970 --    14 C    0.951
    25   1 H    0.959 --     5 C    0.934
 ---------------------------------------------------------------------------

molecular dipole:
                 x           y           z       tot (Debye)
 q only:        0.899      -0.362      -0.079
   full:        1.207      -0.210      -0.087       3.121

           -------------------------------------------------
          | TOTAL ENERGY              -49.881255371292 Eh   |
          | GRADIENT NORM               0.003833538373 Eh/α |
          | HOMO-LUMO GAP               0.427179824966 eV   |
           -------------------------------------------------

 * finished run on 2024/06/05 at 19:58:58.246
