   * xtb version 6.6.1 (8d0f1dd) compiled by 'conda@1efc2f54142f' on 2023-08-01
          program call               : xtb xtbopt.xyz --opt crude --input .xc2 --gfn2

   ID    Z sym.   atoms
    1    6 C      1, 3, 5-7, 10, 11, 14
    2    7 N      2, 4, 9, 13
    3    8 O      8, 12
    4    1 H      15-25
########################################################################
[WARNING] Please study the warnings concerning your input carefully
-1- readin_getIntValue: could not parse ''
########################################################################

          :  Hamiltonian                  GFN2-xTB          :
 * total energy  :   -41.0037081 Eh     change       -0.2877698E-11 Eh
 * total energy  :   -42.1379964 Eh     change       -0.1134288E+01 Eh
 * total energy  :   -42.1547322 Eh     change       -0.1673579E-01 Eh
 * total energy  :   -42.1585421 Eh     change       -0.3809887E-02 Eh
 * total energy  :   -42.1594042 Eh     change       -0.8621219E-03 Eh
 * total energy  :   -42.1599024 Eh     change       -0.4982428E-03 Eh
 * total energy  :   -42.1603154 Eh     change       -0.4129476E-03 Eh
 * total energy  :   -42.1606372 Eh     change       -0.3218479E-03 Eh
 * total energy  :   -42.1608836 Eh     change       -0.2463458E-03 Eh
 * total energy  :   -42.1609987 Eh     change       -0.1151418E-03 Eh
   *** GEOMETRY OPTIMIZATION CONVERGED AFTER 10 ITERATIONS ***

 final structure:
================
25
 xtb: 6.6.1 (8d0f1dd)
C            3.08112699574924        1.15153715462274        0.00396397420508
N            2.27639705369113       -0.04522490829616       -0.00140062804139
C            2.97662278763260       -1.24555901781735        0.02219974366821
N            2.53743657700474       -2.40109303733154        0.00396341999252
C            0.21114366747751       -1.25325114808221       -0.01095043650479
C            0.89778569579000       -0.05903232767137       -0.00621844273284
C            0.10228537875760        1.17890229504239       -0.01103863220612
O            0.55737931293975        2.30816128404851       -0.02738699784027
N           -1.27159952595466        0.99137370560363        0.00076941531625
C           -2.12428639842681        2.16584121178474        0.00561880559144
C           -1.93806455596101       -0.22001730402371        0.00368474665046
O           -3.14143986825196       -0.29118333989847        0.01222465963747
N           -1.12711060187495       -1.35048875700536       -0.00449597698489
C           -1.76697310595237       -2.64870527147784       -0.00759217634505
H            3.61764667806421        1.24302909426124        0.95321302563986
H            3.81207619117421        1.11349829063742       -0.80700649654369
H            2.45705293540737        2.03666944576806       -0.12421539541367
H            4.06357089873400       -1.09156970857572        0.06081378732865
H           -1.49600116645773        3.05511005587046        0.02306651742957
H           -2.75696382137242        2.16845086299308       -0.88434763632148
H           -2.77624995971700        2.14428067954523        0.88112692030744
H           -1.48466327049830       -3.21175965413591        0.88335833223940
H           -1.47107050777552       -3.21483439917435       -0.89176242449487
H           -2.84688326939800       -2.50029902942090       -0.01503351656024
H            0.77121339331836       -2.20559763566665       -0.03138297011710

          :  Hamiltonian                  GFN2-xTB          :
         :: total energy             -42.160998729811 Eh    ::
         :: gradient norm              0.008144454762 Eh/a0 ::
         :: HOMO-LUMO gap              0.510482406161 eV    ::
         :: SCC energy               -42.675669821088 Eh    ::
         :: -> dispersion             -0.021814486466 Eh    ::
         :: repulsion energy           0.514566559113 Eh    ::

    * Orbital Energies and Occupations

         #    Occupation            Energy/Eh            Energy/eV
      -------------------------------------------------------------
         1        2.0000           -0.9035737             -24.5875
       ...           ...                  ...                  ...
        25        1.9966           -0.6754277             -18.3793
        26        1.9926           -0.6565405             -17.8654
        27        1.9890           -0.6472874             -17.6136
        28        1.9888           -0.6468082             -17.6005
        29        1.9841           -0.6384274             -17.3725
        30        1.9841           -0.6383662             -17.3708
        31        1.9755           -0.6280275             -17.0895
        32        1.9367           -0.6049670             -16.4620
        33        1.9355           -0.6045107             -16.4496
        34        1.9054           -0.5950666             -16.1926
        35        1.8906           -0.5914227             -16.0934
        36        1.8579           -0.5847991             -15.9132
        37        1.4270           -0.5454042             -14.8412 (HOMO)
        38        1.0612           -0.5266443             -14.3307 (LUMO)
        39        0.0649           -0.4430967             -12.0573
        40        0.0155           -0.4084798             -11.1153
        41        0.0040           -0.3759499             -10.2301
        42        0.0003           -0.3111834              -8.4677
        43        0.0000           -0.2156983              -5.8694
        44        0.0000           -0.1659872              -4.5167
        45        0.0000           -0.1573193              -4.2809
        46                         -0.0739222              -2.0115
        47                         -0.0626085              -1.7037
        48                         -0.0398678              -1.0849
       ...                                ...                  ...
        67                          0.5070968              13.7988
      -------------------------------------------------------------
                  HL-Gap            0.0187599 Eh            0.5105 eV

     #   Z          covCN         q      C6AA      α(0)
     1   6 C        3.701    -0.088    22.342     6.759
     2   7 N        2.739     0.030    20.726     6.762
     3   6 C        2.778     0.122    25.297     8.238
     4   7 N        0.915    -0.223    25.840     7.350
     5   6 C        2.863     0.005    27.901     8.658
     6   6 C        2.902     0.029    27.360     8.576
     7   6 C        2.771     0.267    22.487     7.766
     8   8 O        0.859    -0.337    20.458     6.064
     9   7 N        2.742    -0.054    22.291     7.012
    10   6 C        3.709    -0.064    21.865     6.683
    11   6 C        2.729     0.314    21.669     7.621
    12   8 O        0.859    -0.328    20.289     6.039
    13   7 N        2.740     0.011    21.059     6.816
    14   6 C        3.704    -0.082    22.221     6.740
    15   1 H        0.924     0.112     1.680     2.027
    16   1 H        0.924     0.110     1.698     2.038
    17   1 H        0.924     0.147     1.415     1.860
    18   1 H        0.923     0.128     1.547     1.945
    19   1 H        0.925     0.130     1.536     1.938
    20   1 H        0.924     0.121     1.606     1.982
    21   1 H        0.924     0.121     1.603     1.980
    22   1 H        0.924     0.117     1.640     2.003
    23   1 H        0.924     0.116     1.643     2.004
    24   1 H        0.925     0.135     1.497     1.913
    25   1 H        0.923     0.159     1.333     1.805

Wiberg/Mayer (AO) data.
largest (>0.10) Wiberg bond orders for each atom

     #   Z sym  total        # sym  WBO       # sym  WBO       # sym  WBO
 ---------------------------------------------------------------------------
     1   6 C    3.849 --     2 N    0.999    16 H    0.944    15 H    0.938
                            17 H    0.921
     2   7 N    3.383 --     6 C    1.168     3 C    1.094     1 C    0.999
     3   6 C    3.901 --     4 N    1.897     2 N    1.094    18 H    0.859
     4   7 N    2.109 --     3 C    1.897
     5   6 C    3.723 --     6 C    1.416    13 N    1.272    25 H    0.850
     6   6 C    3.823 --     5 C    1.416     2 N    1.168     7 C    1.041
     7   6 C    3.900 --     8 O    1.637     9 N    1.123     6 C    1.041
     8   8 O    1.931 --     7 C    1.637     9 N    0.119
     9   7 N    3.501 --     7 C    1.123    11 C    1.106    10 C    0.978
                             8 O    0.119    12 O    0.114
    10   6 C    3.847 --     9 N    0.978    19 H    0.949    21 H    0.939
                            20 H    0.938
    11   6 C    3.932 --    12 O    1.666     9 N    1.106    13 N    1.070
    12   8 O    1.947 --    11 C    1.666     9 N    0.114
    13   7 N    3.522 --     5 C    1.272    11 C    1.070    14 C    0.980
    14   6 C    3.871 --    13 N    0.980    24 H    0.953    23 H    0.947
                            22 H    0.946
    15   1 H    0.952 --     1 C    0.938
    16   1 H    0.959 --     1 C    0.944
    17   1 H    0.959 --     1 C    0.921
    18   1 H    0.882 --     3 C    0.859
    19   1 H    0.968 --    10 C    0.949
    20   1 H    0.957 --    10 C    0.938
    21   1 H    0.958 --    10 C    0.939
    22   1 H    0.963 --    14 C    0.946
    23   1 H    0.964 --    14 C    0.947
    24   1 H    0.972 --    14 C    0.953
    25   1 H    0.964 --     5 C    0.850
 ---------------------------------------------------------------------------

molecular dipole:
                 x           y           z       tot (Debye)
 q only:        0.862      -0.478       0.014
   full:        1.177      -0.348       0.025       3.120

           -------------------------------------------------
          | TOTAL ENERGY              -42.160998729811 Eh   |
          | GRADIENT NORM               0.008144454762 Eh/α |
          | HOMO-LUMO GAP               0.510482406161 eV   |
           -------------------------------------------------

 * finished run on 2024/06/05 at 19:58:58.650
