   * xtb version 6.6.1 (8d0f1dd) compiled by 'conda@1efc2f54142f' on 2023-08-01
          program call               : xtb struc.xyz --opt loose --input .xc1 --gfn2

   ID    Z sym.   atoms
    1    7 N      1, 17
    2    6 C      2-6, 8, 9, 11-16, 18-23, 25, 26, 28-33
    3    8 O      7, 10, 24, 27
    4    1 H      34-72
constraining bond 1 71 to    5.6866700 Å, actual value:    3.9362563 Å

          :  Hamiltonian                  GFN2-xTB          :
 * total energy  :   -99.9512087 Eh     change       -0.4035485E-08 Eh
 * total energy  :  -100.3941436 Eh     change       -0.4429349E+00 Eh
 * total energy  :  -100.9243002 Eh     change       -0.5301566E+00 Eh
 * total energy  :  -101.5630045 Eh     change       -0.6387043E+00 Eh
 * total energy  :  -102.3273688 Eh     change       -0.7643643E+00 Eh
 * total energy  :  -103.1569491 Eh     change       -0.8295803E+00 Eh
 * total energy  :  -103.0532168 Eh     change        0.1037323E+00 Eh
 * total energy  :  -103.2951788 Eh     change       -0.2419619E+00 Eh
 * total energy  :  -103.3548838 Eh     change       -0.5970499E-01 Eh
 * total energy  :  -103.3789061 Eh     change       -0.2402234E-01 Eh
 * total energy  :  -103.6134726 Eh     change       -0.7598227E-03 Eh
 * total energy  :  -103.6137085 Eh     change       -0.2358796E-03 Eh
 * total energy  :  -103.6139325 Eh     change       -0.2240131E-03 Eh
 * total energy  :  -103.6140342 Eh     change       -0.1016493E-03 Eh
 * total energy  :  -103.6141250 Eh     change       -0.9083892E-04 Eh
 * total energy  :  -103.6141824 Eh     change       -0.5741847E-04 Eh
 * total energy  :  -103.6142381 Eh     change       -0.5570026E-04 Eh
 * total energy  :  -103.6142778 Eh     change       -0.3966529E-04 Eh
 * total energy  :  -103.6143121 Eh     change       -0.3432045E-04 Eh
   *** GEOMETRY OPTIMIZATION CONVERGED AFTER 42 ITERATIONS ***

 final structure:
================
72
 xtb: 6.6.1 (8d0f1dd)
N           -2.48130062442942        3.84058421617876        1.56227033473011
C           -2.04499321533330        2.42053359980732        1.20501710273057
C           -3.04471377249725        1.91667834702771        0.15007178942534
C           -3.45820291984892        0.47129639141598        0.30865112058907
C           -4.46321066739733       -0.01413079084299       -0.53636722337836
C           -4.91576859690552       -1.31827272955851       -0.46034211259483
O           -5.87443812954089       -1.85779809138708       -1.24470702567694
C           -6.49723606419039       -1.05164448944985       -2.21603673119632
C           -4.35704580449352       -2.19548585850804        0.50602322484208
O           -4.86823337510864       -3.44494262440795        0.52800431997683
C           -4.41278176312571       -4.34846179232992        1.50694683583362
C           -3.35175656440059       -1.71838833857164        1.32699591487181
C           -2.90155446123636       -0.40519326509980        1.22408970173048
C           -2.48244744460632        2.15326728713547       -1.27144211405261
C           -1.49139342459833        1.08481098555075       -1.76768166049603
C           -0.17412370840873        1.12526645859742       -1.09641355504502
N            0.46172864080742        0.07165621297502       -0.56666821721933
C            1.84909641042133        0.18355417493288       -0.18818770319862
C            2.79699653103770       -0.28951363309245       -1.30858060101737
C            4.22535316287888       -0.09956951315317       -0.88456433616976
C            4.87240998651830        1.10432293144642       -1.09997680360187
C            6.18208499439276        1.29049773988467       -0.68255322791075
C            6.86765130064630        0.27410607371270       -0.03598452650916
O            8.14058346854989        0.34335408022160        0.40840695384053
C            8.87457193225359        1.52516347907879        0.19067742324174
C            6.21052390385610       -0.96332427311230        0.19415665617167
O            6.95123419369433       -1.89983894278757        0.82773108811425
C            6.39516657300962       -3.17187004543901        1.05512263421886
C            4.90237284687037       -1.12638648108994       -0.22943795601901
C           -0.09405192565300       -1.25840542925441       -0.61697979878484
C           -4.26163807029047        2.89849767531963        0.36684581391566
C           -5.15330700621739        2.45014283699344        1.52923397272960
C           -3.61649850341191        4.21498066949725        0.65519552747659
H           -4.90446330127660        0.65426657848488       -1.25628709392004
H           -7.01164223714516       -0.19884879067527       -1.76198222405126
H           -7.22819945646013       -1.69352901533983       -2.70348426938930
H           -5.77929350343668       -0.69277374809375       -2.96090080991940
H           -4.59649654028506       -3.97096606508608        2.51779579853935
H           -4.98702219727779       -5.25997935292595        1.35331269162751
H           -3.34688734190485       -4.56907862052498        1.38759457477048
H           -2.90029049789855       -2.36091534154983        2.06549836287194
H           -2.10201458862184       -0.10776414530392        1.88442300606383
H           -3.31487641613775        2.17239093076153       -1.97420185766275
H           -2.00382640133980        3.13299610368136       -1.31512567403675
H           -1.95182064875708        0.10295744667468       -1.68449200416280
H           -1.33286550796307        1.28699369336588       -2.83556997724783
H           -1.02179504899947        2.41112013007242        0.83318878299524
H            0.37475245526071        2.05402965937676       -1.11144028411245
H            2.02317841044437       -0.41572505411751        0.70948767514323
H            2.07631262399615        1.22524907345480        0.04795656334898
H            2.59124675376229        0.29298592720271       -2.20837856672072
H            2.60582912991871       -1.34082023611813       -1.52591569946614
H            4.36344457814683        1.90787982868169       -1.61084507868173
H            6.66263314365642        2.23597497746048       -0.87342472805151
H            8.41748606211683        2.38100730090521        0.69743812409793
H            8.97529363260059        1.74384780785777       -0.87687040817618
H            9.85941883018756        1.33966793459796        0.61494416260132
H            7.17721374970043       -3.74986535715843        1.54365160198578
H            5.52211096148926       -3.11771411726801        1.71405815761969
H            6.11589003047897       -3.66217190919336        0.11711907174517
H            4.39537362397460       -2.06474500934117       -0.06729688971637
H           -0.13676519001390       -1.63747853566605       -1.64145307509690
H           -1.10235084143887       -1.26441260175595       -0.19908277024326
H            0.52874673650204       -1.92518701526930       -0.02555623308440
H           -4.87784882490972        2.96630424017271       -0.52950113140438
H           -4.58387479315843        2.28364976622191        2.44094599158964
H           -5.67427175926199        1.52778460148734        1.28916739752376
H           -5.89193209192275        3.22290594865047        1.72338503949717
H           -1.70990768149801        4.50548592064197        1.42910845121471
H           -3.27576359412694        4.76958558889618       -0.21144124578303
H           -2.73562770421201        3.83467023116230        2.21156860667519
H           -2.09765686042544        1.83887388638539        2.12435398204762

          :  Hamiltonian                  GFN2-xTB          :
         :: total energy            -103.614312130168 Eh    ::
         :: gradient norm              0.003117701624 Eh/a0 ::
         :: HOMO-LUMO gap              0.971586550999 eV    ::
         :: SCC energy              -100.733430378443 Eh    ::
         :: -> dispersion             -0.075436194559 Eh    ::
         :: repulsion energy           1.562652949409 Eh    ::

    * Orbital Energies and Occupations

         #    Occupation            Energy/Eh            Energy/eV
      -------------------------------------------------------------
         1        2.0000           -0.8147508             -22.1705
       ...           ...                  ...                  ...
        78        1.9995           -0.5280723             -14.3696
        79        1.9995           -0.5269532             -14.3391
        80        1.9994           -0.5246097             -14.2754
        81        1.9992           -0.5200546             -14.1514
        82        1.9992           -0.5192999             -14.1309
        83        1.9990           -0.5157761             -14.0350
        84        1.9988           -0.5129876             -13.9591
        85        1.9983           -0.5076697             -13.8144
        86        1.9922           -0.4831313             -13.1467
        87        1.9870           -0.4750758             -12.9275
        88        1.9494           -0.4532351             -12.3332
        89        1.9065           -0.4431578             -12.0589
        90        1.5818           -0.4164806             -11.3330 (HOMO)
        91        0.5681           -0.3807754             -10.3614 (LUMO)
        92        0.0088           -0.3095473              -8.4232
        93        0.0075           -0.3069723              -8.3531
        94        0.0045           -0.2988330              -8.1317
        95        0.0038           -0.2962232              -8.0606
        96        0.0000           -0.1841096              -5.0099
        97        0.0000           -0.1757778              -4.7832
        98        0.0000           -0.1733903              -4.7182
        99                         -0.1187909              -3.2325
       100                         -0.1128164              -3.0699
       101                         -0.0782328              -2.1288
       ...                                ...                  ...
       171                          1.1208371              30.4995
      -------------------------------------------------------------
                  HL-Gap            0.0357051 Eh            0.9716 eV

     #   Z          covCN         q      C6AA      α(0)
     1   7 N        3.542    -0.060    22.395     7.029
     2   6 C        3.749    -0.030    21.174     6.563
     3   6 C        3.914     0.006    20.415     6.422
     4   6 C        2.967    -0.006    28.172     8.706
     5   6 C        2.924    -0.081    30.031     8.987
     6   6 C        2.863     0.127    25.205     8.229
     7   8 O        1.706    -0.237    17.928     5.717
     8   6 C        3.645     0.030    20.412     6.493
     9   6 C        2.864     0.127    25.221     8.232
    10   8 O        1.706    -0.236    17.913     5.714
    11   6 C        3.646     0.029    20.412     6.493
    12   6 C        2.915    -0.078    29.947     8.974
    13   6 C        2.921    -0.062    29.546     8.914
    14   6 C        3.806    -0.068    21.806     6.648
    15   6 C        3.802    -0.069    21.822     6.651
    16   6 C        2.842    -0.022    28.544     8.756
    17   7 N        2.728    -0.006    21.380     6.867
    18   6 C        3.756    -0.014    20.881     6.515
    19   6 C        3.808    -0.070    21.826     6.650
    20   6 C        2.970    -0.004    28.118     8.698
    21   6 C        2.922    -0.052    29.296     8.876
    22   6 C        2.915    -0.070    29.747     8.944
    23   6 C        2.865     0.130    25.158     8.222
    24   8 O        1.706    -0.232    17.846     5.704
    25   6 C        3.646     0.028    20.431     6.496
    26   6 C        2.863     0.130    25.157     8.221
    27   8 O        1.706    -0.234    17.876     5.709
    28   6 C        3.645     0.030    20.402     6.492
    29   6 C        2.920    -0.081    30.031     8.987
    30   6 C        3.699    -0.069    21.995     6.707
    31   6 C        3.876    -0.021    20.895     6.499
    32   6 C        3.754    -0.115    22.758     6.802
    33   6 C        2.833    -0.161    32.165     9.294
    34   1 H        0.926     0.049     2.330     2.387
    35   1 H        0.924     0.049     2.332     2.388
    36   1 H        0.925     0.078     1.999     2.211
    37   1 H        0.924     0.045     2.387     2.416
    38   1 H        0.924     0.050     2.322     2.383
    39   1 H        0.925     0.078     2.000     2.212
    40   1 H        0.924     0.045     2.387     2.416
    41   1 H        0.926     0.046     2.372     2.408
    42   1 H        0.926     0.025     2.653     2.547
    43   1 H        0.925     0.057     2.232     2.336
    44   1 H        0.924     0.045     2.387     2.416
    45   1 H        0.925     0.062     2.179     2.309
    46   1 H        0.923     0.071     2.079     2.255
    47   1 H        0.925     0.063     2.164     2.300
    48   1 H        0.926     0.048     2.349     2.397
    49   1 H        0.924     0.061     2.187     2.313
    50   1 H        0.924     0.059     2.209     2.324
    51   1 H        0.924     0.051     2.304     2.374
    52   1 H        0.924     0.052     2.290     2.367
    53   1 H        0.926     0.038     2.471     2.458
    54   1 H        0.926     0.052     2.290     2.366
    55   1 H        0.924     0.049     2.337     2.391
    56   1 H        0.924     0.051     2.304     2.374
    57   1 H        0.925     0.078     2.002     2.213
    58   1 H        0.925     0.077     2.005     2.215
    59   1 H        0.924     0.044     2.395     2.420
    60   1 H        0.924     0.049     2.336     2.390
    61   1 H        0.926     0.043     2.408     2.427
    62   1 H        0.924     0.069     2.093     2.262
    63   1 H        0.924     0.078     2.001     2.212
    64   1 H        0.925     0.073     2.053     2.241
    65   1 H        0.925     0.047     2.353     2.399
    66   1 H        0.925     0.029     2.606     2.525
    67   1 H        0.925     0.043     2.404     2.425
    68   1 H        0.925     0.058     2.227     2.333
    69   1 H        0.859     0.204     1.086     1.632
    70   1 H        0.925     0.012     2.863     2.646
    71   1 H        0.864     0.244     0.908     1.492
    72   1 H        0.925     0.070     2.081     2.256

Wiberg/Mayer (AO) data.
largest (>0.10) Wiberg bond orders for each atom

     #   Z sym  total        # sym  WBO       # sym  WBO       # sym  WBO
 ---------------------------------------------------------------------------
     1   7 N    3.681 --    69 H    0.935    71 H    0.923     2 C    0.907
                            33 C    0.879
     2   6 C    3.913 --     3 C    0.989    47 H    0.970    72 H    0.967
                             1 N    0.907
     3   6 C    3.954 --     4 C    0.993     2 C    0.989    14 C    0.974
                            31 C    0.913
     4   6 C    3.966 --    13 C    1.429     5 C    1.354     3 C    0.993
     5   6 C    3.967 --     6 C    1.414     4 C    1.354    34 H    0.960
     6   6 C    3.922 --     5 C    1.414     9 C    1.227     7 O    1.092
     7   8 O    2.261 --     6 C    1.092     8 C    0.980
     8   6 C    3.937 --     7 O    0.980    36 H    0.977    37 H    0.975
                            35 H    0.975
     9   6 C    3.918 --    12 C    1.405     6 C    1.227    10 O    1.093
    10   8 O    2.259 --     9 C    1.093    11 C    0.980
    11   6 C    3.936 --    10 O    0.980    39 H    0.977    38 H    0.975
                            40 H    0.975
    12   6 C    3.969 --     9 C    1.405    13 C    1.387    41 H    0.965
    13   6 C    3.967 --     4 C    1.429    12 C    1.387    42 H    0.962
    14   6 C    3.968 --    15 C    0.980     3 C    0.974    44 H    0.973
                            43 H    0.971
    15   6 C    3.988 --    16 C    1.059    14 C    0.980    45 H    0.964
                            46 H    0.933
    16   6 C    3.468 --    17 N    1.341    15 C    1.059    48 H    0.961
    17   7 N    3.403 --    16 C    1.341    30 C    1.001    18 C    0.993
    18   6 C    3.960 --    17 N    0.993    50 H    0.969    49 H    0.966
                            19 C    0.965
    19   6 C    3.974 --    20 C    1.008    52 H    0.972    51 H    0.972
                            18 C    0.965
    20   6 C    3.957 --    21 C    1.420    29 C    1.375    19 C    1.008
    21   6 C    3.962 --    20 C    1.420    22 C    1.411    53 H    0.969
    22   6 C    3.968 --    21 C    1.411    23 C    1.393    54 H    0.964
    23   6 C    3.909 --    22 C    1.393    26 C    1.231    24 O    1.097
    24   8 O    2.253 --    23 C    1.097    25 C    0.979
    25   6 C    3.934 --    24 O    0.979    57 H    0.978    55 H    0.974
                            56 H    0.974
    26   6 C    3.912 --    29 C    1.403    23 C    1.231    27 O    1.092
    27   8 O    2.253 --    26 C    1.092    28 C    0.981
    28   6 C    3.937 --    27 O    0.981    58 H    0.977    59 H    0.975
                            60 H    0.974
    29   6 C    3.965 --    26 C    1.403    20 C    1.375    61 H    0.963
    30   6 C    3.960 --    17 N    1.001    64 H    0.978    62 H    0.966
                            63 H    0.959
    31   6 C    3.974 --    33 C    1.036    32 C    0.999    65 H    0.963
                             3 C    0.913
    32   6 C    3.980 --    31 C    0.999    66 H    0.986    68 H    0.983
                            67 H    0.983
    33   6 C    2.964 --    31 C    1.036    70 H    0.969     1 N    0.879
    34   1 H    0.997 --     5 C    0.960
    35   1 H    0.996 --     8 C    0.975
    36   1 H    0.993 --     8 C    0.977
    37   1 H    0.996 --     8 C    0.975
    38   1 H    0.996 --    11 C    0.975
    39   1 H    0.993 --    11 C    0.977
    40   1 H    0.996 --    11 C    0.975
    41   1 H    0.997 --    12 C    0.965
    42   1 H    0.999 --    13 C    0.962
    43   1 H    0.995 --    14 C    0.971
    44   1 H    0.997 --    14 C    0.973
    45   1 H    0.996 --    15 C    0.964
    46   1 H    0.966 --    15 C    0.933
    47   1 H    0.996 --     2 C    0.970
    48   1 H    0.997 --    16 C    0.961
    49   1 H    0.992 --    18 C    0.966
    50   1 H    0.995 --    18 C    0.969
    51   1 H    0.996 --    19 C    0.972
    52   1 H    0.996 --    19 C    0.972
    53   1 H    0.998 --    21 C    0.969
    54   1 H    0.996 --    22 C    0.964
    55   1 H    0.994 --    25 C    0.974
    56   1 H    0.994 --    25 C    0.974
    57   1 H    0.993 --    25 C    0.978
    58   1 H    0.993 --    28 C    0.977
    59   1 H    0.995 --    28 C    0.975
    60   1 H    0.995 --    28 C    0.974
    61   1 H    0.997 --    29 C    0.963
    62   1 H    0.982 --    30 C    0.966
    63   1 H    0.987 --    30 C    0.959
    64   1 H    0.994 --    30 C    0.978
    65   1 H    0.996 --    31 C    0.963
    66   1 H    0.999 --    32 C    0.986
    67   1 H    0.997 --    32 C    0.983
    68   1 H    0.996 --    32 C    0.983
    69   1 H    0.957 --     1 N    0.935
    70   1 H    0.986 --    33 C    0.969
    71   1 H    0.939 --     1 N    0.923
    72   1 H    0.995 --     2 C    0.967
 ---------------------------------------------------------------------------

molecular dipole:
                 x           y           z       tot (Debye)
 q only:       -0.468       1.900       0.685
   full:       -0.084       1.933       0.654       5.190

           -------------------------------------------------
          | TOTAL ENERGY             -103.614312130168 Eh   |
          | GRADIENT NORM               0.003117701624 Eh/α |
          | HOMO-LUMO GAP               0.971586550999 eV   |
           -------------------------------------------------

 * finished run on 2024/04/06 at 11:12:31.347
