   * xtb version 6.6.1 (8d0f1dd) compiled by 'conda@1efc2f54142f' on 2023-08-01
          program call               : xtb xtbopt.xyz --opt crude --input .xc2 --gfn2

   ID    Z sym.   atoms
    1    7 N      1, 17
    2    6 C      2-6, 8, 9, 11-16, 18-23, 25, 26, 28-33
    3    8 O      7, 10, 24, 27
    4    1 H      34-72
########################################################################
[WARNING] Please study the warnings concerning your input carefully
-1- readin_getIntValue: could not parse ''
########################################################################

          :  Hamiltonian                  GFN2-xTB          :
 * total energy  :   -99.1695420 Eh     change       -0.4490630E-11 Eh
 * total energy  :   -99.3537796 Eh     change       -0.1842377E+00 Eh
 * total energy  :   -99.3557959 Eh     change       -0.2016231E-02 Eh
 * total energy  :   -99.3561346 Eh     change       -0.3387561E-03 Eh
   *** GEOMETRY OPTIMIZATION CONVERGED AFTER 4 ITERATIONS ***

 final structure:
================
72
 xtb: 6.6.1 (8d0f1dd)
N           -2.45913535529668        3.84779625445489        1.50285845228580
C           -2.03969469327377        2.42513949684672        1.19217412081234
C           -3.04388199081054        1.91498122253421        0.14188773877602
C           -3.45772848329988        0.47087933579142        0.30488214161720
C           -4.46549141349225       -0.01423429394957       -0.53721395306166
C           -4.91838936907413       -1.31790739148347       -0.45990576753491
O           -5.87886446617216       -1.85767905374209       -1.24205319031225
C           -6.50242120690089       -1.05279939844677       -2.21390184732706
C           -4.35809873297404       -2.19466247118672        0.50559895535040
O           -4.86915599109332       -3.44439290206515        0.52735423750650
C           -4.41286013602318       -4.34845713314860        1.50542382981342
C           -3.35231749534335       -1.71719709260526        1.32593114537316
C           -2.90116611315643       -0.40398138980894        1.22133608812136
C           -2.48325199245906        2.14751399440216       -1.28084836688192
C           -1.48899446618292        1.07970183329831       -1.77061114080316
C           -0.17377502147305        1.12359471198495       -1.09512629790651
N            0.46339262346539        0.06970865186088       -0.56540848244253
C            1.85089351980185        0.18219612352621       -0.18776817713280
C            2.79831113253386       -0.28920033018539       -1.30915833233314
C            4.22684152684196       -0.09951128175291       -0.88574694163492
C            4.87407964854871        1.10411502986293       -1.10148708448545
C            6.18371917256983        1.29018304125363       -0.68383765366587
C            6.86897605985991        0.27401343179443       -0.03667137479681
O            8.14178880520381        0.34354541239382        0.40857712576508
C            8.87593594490794        1.52506785811121        0.19012480338084
C            6.21176224751087       -0.96319704301001        0.19345332597938
O            6.95242652147731       -1.89981179632136        0.82734180140300
C            6.39612334672434       -3.17155127015305        1.05538313888302
C            4.90371980618080       -1.12618912522631       -0.23027511223364
C           -0.09136287488367       -1.26065579472559       -0.61702226684254
C           -4.25746232190619        2.89851300752898        0.35691767802446
C           -5.14606813676927        2.45804078908274        1.52488349084014
C           -3.60468395043718        4.21709079454964        0.62763333984400
H           -4.90814335293409        0.65440449432738       -1.25588202647082
H           -7.01746578546159       -0.19994829063560       -1.76081903104908
H           -7.23304009710018       -1.69592317034935       -2.70024301935793
H           -5.78505988895032       -0.69403069183064       -2.95943305876294
H           -4.59425109752765       -3.97061083499699        2.51639901707693
H           -4.98831914271099       -5.25928580520352        1.35283171367685
H           -3.34752733202088       -4.57000610563317        1.38374608242137
H           -2.90104951290797       -2.35976704824760        2.06453023140139
H           -2.10164498328088       -0.10479987358633        1.88092501804887
H           -3.31471081079677        2.16213856506476       -1.98477656803274
H           -2.00703307027191        3.12813330485838       -1.32676945150950
H           -1.94828468050324        0.09752228738116       -1.68451010700483
H           -1.32763582154527        1.27739202652630       -2.83888014346734
H           -1.01728038047768        2.39282744714317        0.81535418443745
H            0.37514621652055        2.05236462043939       -1.11046846869479
H            2.02590726831778       -0.41766299865691        0.70941158655778
H            2.07741539420758        1.22389274919130        0.04917215784255
H            2.59178703425950        0.29450975289500       -2.20803391864304
H            2.60709963284238       -1.34025943593585       -1.52775865654151
H            4.36537451658270        1.90767864541552       -1.61266047094954
H            6.66445859962829        2.23552402031510       -0.87498907051457
H            8.41916007382844        2.38126578328986        0.69660812623130
H            8.97652671099374        1.74330970275888       -0.87752669310141
H            9.86081384994569        1.33946814491688        0.61431316698664
H            7.17816352356866       -3.74934305970842        1.54415266405597
H            5.52312538833087       -3.11698506722138        1.71433862375647
H            6.11669796265079       -3.66241399523988        0.11772350246422
H            4.39677528904321       -2.06457067788833       -0.06787042031214
H           -0.13233296727770       -1.63953642427064       -1.64162316570981
H           -1.10015511218838       -1.26724378323788       -0.20066783718472
H            0.53076629773018       -1.92728789236328       -0.02480472554588
H           -4.87797055724053        2.95897207006692       -0.53667345890465
H           -4.57325065440489        2.29094642431028        2.43460272997896
H           -5.66785468732334        1.53526082071052        1.28893416003468
H           -5.88428173387376        3.23102714362910        1.71950780783803
H           -1.69570507089326        4.52295369961977        1.45306793407487
H           -3.28792238975535        4.77276591610402       -0.24865119694538
H           -2.83962460628795        3.84077293429816        2.45148296026218
H           -2.09532457031366        1.85003090277792        2.11247923977418

          :  Hamiltonian                  GFN2-xTB          :
         :: total energy             -99.356134640676 Eh    ::
         :: gradient norm              0.006421202462 Eh/a0 ::
         :: HOMO-LUMO gap              0.946372393485 eV    ::
         :: SCC energy              -100.701157808874 Eh    ::
         :: -> dispersion             -0.075446364134 Eh    ::
         :: repulsion energy           1.343793765464 Eh    ::

    * Orbital Energies and Occupations

         #    Occupation            Energy/Eh            Energy/eV
      -------------------------------------------------------------
         1        2.0000           -0.8006351             -21.7864
       ...           ...                  ...                  ...
        78        1.9996           -0.5272304             -14.3467
        79        1.9995           -0.5268235             -14.3356
        80        1.9995           -0.5240690             -14.2606
        81        1.9993           -0.5194600             -14.1352
        82        1.9992           -0.5183389             -14.1047
        83        1.9990           -0.5148325             -14.0093
        84        1.9989           -0.5123626             -13.9421
        85        1.9984           -0.5067519             -13.7894
        86        1.9925           -0.4823771             -13.1261
        87        1.9875           -0.4741105             -12.9012
        88        1.9519           -0.4525497             -12.3145
        89        1.9098           -0.4422322             -12.0338
        90        1.5674           -0.4142809             -11.2732 (HOMO)
        91        0.5744           -0.3795024             -10.3268 (LUMO)
        92        0.0092           -0.3088260              -8.4036
        93        0.0078           -0.3061695              -8.3313
        94        0.0046           -0.2978567              -8.1051
        95        0.0039           -0.2952140              -8.0332
        96        0.0000           -0.1834092              -4.9908
        97        0.0000           -0.1786911              -4.8624
        98        0.0000           -0.1723751              -4.6906
        99                         -0.1169453              -3.1822
       100                         -0.1040109              -2.8303
       101                         -0.0788142              -2.1446
       ...                                ...                  ...
       171                          0.5923638              16.1190
      -------------------------------------------------------------
                  HL-Gap            0.0347785 Eh            0.9464 eV

     #   Z          covCN         q      C6AA      α(0)
     1   7 N        3.545    -0.043    22.068     6.977
     2   6 C        3.751    -0.026    21.106     6.552
     3   6 C        3.916     0.007    20.408     6.421
     4   6 C        2.967    -0.007    28.180     8.707
     5   6 C        2.924    -0.081    30.035     8.987
     6   6 C        2.863     0.127    25.207     8.230
     7   8 O        1.706    -0.237    17.934     5.718
     8   6 C        3.645     0.030    20.409     6.493
     9   6 C        2.864     0.126    25.226     8.233
    10   8 O        1.706    -0.237    17.921     5.716
    11   6 C        3.646     0.029    20.410     6.493
    12   6 C        2.915    -0.078    29.950     8.974
    13   6 C        2.921    -0.062    29.548     8.914
    14   6 C        3.807    -0.068    21.792     6.645
    15   6 C        3.802    -0.069    21.816     6.650
    16   6 C        2.841    -0.023    28.560     8.758
    17   7 N        2.728    -0.008    21.408     6.872
    18   6 C        3.756    -0.014    20.873     6.514
    19   6 C        3.808    -0.070    21.824     6.650
    20   6 C        2.970    -0.004    28.121     8.698
    21   6 C        2.922    -0.052    29.299     8.877
    22   6 C        2.915    -0.070    29.750     8.944
    23   6 C        2.865     0.129    25.163     8.223
    24   8 O        1.706    -0.233    17.856     5.705
    25   6 C        3.646     0.028    20.427     6.495
    26   6 C        2.863     0.129    25.161     8.222
    27   8 O        1.706    -0.234    17.886     5.710
    28   6 C        3.645     0.030    20.399     6.491
    29   6 C        2.920    -0.081    30.033     8.987
    30   6 C        3.699    -0.069    21.985     6.706
    31   6 C        3.878    -0.021    20.903     6.501
    32   6 C        3.754    -0.115    22.753     6.802
    33   6 C        2.833    -0.157    32.035     9.275
    34   1 H        0.926     0.049     2.334     2.389
    35   1 H        0.924     0.049     2.336     2.390
    36   1 H        0.925     0.078     2.001     2.212
    37   1 H        0.924     0.045     2.389     2.417
    38   1 H        0.924     0.050     2.326     2.385
    39   1 H        0.925     0.078     2.002     2.213
    40   1 H        0.924     0.045     2.388     2.417
    41   1 H        0.926     0.046     2.375     2.410
    42   1 H        0.926     0.025     2.661     2.551
    43   1 H        0.925     0.056     2.244     2.342
    44   1 H        0.924     0.045     2.386     2.416
    45   1 H        0.925     0.061     2.184     2.311
    46   1 H        0.923     0.070     2.087     2.259
    47   1 H        0.925     0.064     2.153     2.295
    48   1 H        0.926     0.047     2.358     2.401
    49   1 H        0.924     0.061     2.193     2.316
    50   1 H        0.924     0.059     2.214     2.327
    51   1 H        0.924     0.051     2.307     2.375
    52   1 H        0.924     0.052     2.293     2.368
    53   1 H        0.926     0.038     2.475     2.460
    54   1 H        0.926     0.052     2.294     2.369
    55   1 H        0.924     0.048     2.341     2.393
    56   1 H        0.924     0.051     2.307     2.375
    57   1 H        0.925     0.077     2.005     2.215
    58   1 H        0.925     0.077     2.008     2.216
    59   1 H        0.924     0.044     2.398     2.422
    60   1 H        0.924     0.048     2.339     2.392
    61   1 H        0.926     0.043     2.411     2.428
    62   1 H        0.924     0.069     2.098     2.265
    63   1 H        0.924     0.077     2.005     2.214
    64   1 H        0.925     0.073     2.058     2.243
    65   1 H        0.925     0.047     2.355     2.400
    66   1 H        0.925     0.027     2.632     2.537
    67   1 H        0.925     0.045     2.386     2.416
    68   1 H        0.925     0.057     2.232     2.336
    69   1 H        0.860     0.209     1.063     1.615
    70   1 H        0.925     0.014     2.826     2.629
    71   1 H        0.859     0.227     0.977     1.548
    72   1 H        0.925     0.069     2.102     2.267

Wiberg/Mayer (AO) data.
largest (>0.10) Wiberg bond orders for each atom

     #   Z sym  total        # sym  WBO       # sym  WBO       # sym  WBO
 ---------------------------------------------------------------------------
     1   7 N    3.704 --    69 H    0.936    71 H    0.925     2 C    0.918
                            33 C    0.889
     2   6 C    3.915 --     3 C    0.987    72 H    0.968    47 H    0.967
                             1 N    0.918
     3   6 C    3.954 --     4 C    0.994     2 C    0.987    14 C    0.974
                            31 C    0.915
     4   6 C    3.966 --    13 C    1.429     5 C    1.353     3 C    0.994
     5   6 C    3.968 --     6 C    1.415     4 C    1.353    34 H    0.960
     6   6 C    3.922 --     5 C    1.415     9 C    1.228     7 O    1.091
     7   8 O    2.261 --     6 C    1.091     8 C    0.980
     8   6 C    3.937 --     7 O    0.980    36 H    0.977    37 H    0.975
                            35 H    0.975
     9   6 C    3.918 --    12 C    1.405     6 C    1.228    10 O    1.093
    10   8 O    2.259 --     9 C    1.093    11 C    0.980
    11   6 C    3.936 --    10 O    0.980    39 H    0.978    38 H    0.975
                            40 H    0.975
    12   6 C    3.969 --     9 C    1.405    13 C    1.387    41 H    0.965
    13   6 C    3.967 --     4 C    1.429    12 C    1.387    42 H    0.962
    14   6 C    3.969 --    15 C    0.981     3 C    0.974    44 H    0.973
                            43 H    0.971
    15   6 C    3.988 --    16 C    1.058    14 C    0.981    45 H    0.964
                            46 H    0.934
    16   6 C    3.464 --    17 N    1.338    15 C    1.058    48 H    0.961
    17   7 N    3.399 --    16 C    1.338    30 C    1.002    18 C    0.993
    18   6 C    3.960 --    17 N    0.993    50 H    0.969    49 H    0.966
                            19 C    0.965
    19   6 C    3.974 --    20 C    1.008    52 H    0.972    51 H    0.972
                            18 C    0.965
    20   6 C    3.958 --    21 C    1.420    29 C    1.375    19 C    1.008
    21   6 C    3.962 --    20 C    1.420    22 C    1.410    53 H    0.969
    22   6 C    3.968 --    21 C    1.410    23 C    1.393    54 H    0.964
    23   6 C    3.909 --    22 C    1.393    26 C    1.232    24 O    1.096
    24   8 O    2.253 --    23 C    1.096    25 C    0.979
    25   6 C    3.935 --    24 O    0.979    57 H    0.978    55 H    0.974
                            56 H    0.974
    26   6 C    3.913 --    29 C    1.403    23 C    1.232    27 O    1.091
    27   8 O    2.253 --    26 C    1.091    28 C    0.981
    28   6 C    3.937 --    27 O    0.981    58 H    0.977    59 H    0.975
                            60 H    0.974
    29   6 C    3.966 --    26 C    1.403    20 C    1.375    61 H    0.963
    30   6 C    3.961 --    17 N    1.002    64 H    0.978    62 H    0.966
                            63 H    0.959
    31   6 C    3.974 --    33 C    1.033    32 C    0.999    65 H    0.963
                             3 C    0.915
    32   6 C    3.980 --    31 C    0.999    66 H    0.984    68 H    0.983
                            67 H    0.983
    33   6 C    2.961 --    31 C    1.033    70 H    0.965     1 N    0.889
    34   1 H    0.997 --     5 C    0.960
    35   1 H    0.996 --     8 C    0.975
    36   1 H    0.993 --     8 C    0.977
    37   1 H    0.996 --     8 C    0.975
    38   1 H    0.996 --    11 C    0.975
    39   1 H    0.993 --    11 C    0.978
    40   1 H    0.996 --    11 C    0.975
    41   1 H    0.997 --    12 C    0.965
    42   1 H    0.999 --    13 C    0.962
    43   1 H    0.995 --    14 C    0.971
    44   1 H    0.997 --    14 C    0.973
    45   1 H    0.996 --    15 C    0.964
    46   1 H    0.965 --    15 C    0.934
    47   1 H    0.996 --     2 C    0.967
    48   1 H    0.997 --    16 C    0.961
    49   1 H    0.992 --    18 C    0.966
    50   1 H    0.995 --    18 C    0.969
    51   1 H    0.996 --    19 C    0.972
    52   1 H    0.996 --    19 C    0.972
    53   1 H    0.998 --    21 C    0.969
    54   1 H    0.996 --    22 C    0.964
    55   1 H    0.994 --    25 C    0.974
    56   1 H    0.994 --    25 C    0.974
    57   1 H    0.993 --    25 C    0.978
    58   1 H    0.993 --    28 C    0.977
    59   1 H    0.995 --    28 C    0.975
    60   1 H    0.995 --    28 C    0.974
    61   1 H    0.997 --    29 C    0.963
    62   1 H    0.982 --    30 C    0.966
    63   1 H    0.987 --    30 C    0.959
    64   1 H    0.994 --    30 C    0.978
    65   1 H    0.995 --    31 C    0.963
    66   1 H    0.999 --    32 C    0.984
    67   1 H    0.997 --    32 C    0.983
    68   1 H    0.996 --    32 C    0.983
    69   1 H    0.955 --     1 N    0.936
    70   1 H    0.986 --    33 C    0.965
    71   1 H    0.942 --     1 N    0.925
    72   1 H    0.995 --     2 C    0.968
 ---------------------------------------------------------------------------

molecular dipole:
                 x           y           z       tot (Debye)
 q only:       -0.588       2.023       0.809
   full:       -0.211       2.058       0.799       5.637

           -------------------------------------------------
          | TOTAL ENERGY              -99.356134640676 Eh   |
          | GRADIENT NORM               0.006421202462 Eh/α |
          | HOMO-LUMO GAP               0.946372393485 eV   |
           -------------------------------------------------

 * finished run on 2024/04/06 at 11:12:32.301
