   * xtb version 6.6.1 (8d0f1dd) compiled by 'conda@1efc2f54142f' on 2023-08-01
          program call               : xtb xtbopt.xyz --opt crude --input .xc2 --gfn2

   ID    Z sym.   atoms
    1    6 C      1, 3, 5-7, 10, 11, 14
    2    7 N      2, 4, 9, 13
    3    8 O      8, 12
    4    1 H      15-25
########################################################################
[WARNING] Please study the warnings concerning your input carefully
-1- readin_getIntValue: could not parse ''
########################################################################

          :  Hamiltonian                  GFN2-xTB          :
 * total energy  :   -42.0568470 Eh     change       -0.1278977E-12 Eh
   *** GEOMETRY OPTIMIZATION CONVERGED AFTER 1 ITERATIONS ***

 final structure:
================
25
 xtb: 6.6.1 (8d0f1dd)
C            2.72224106709596        0.52956736004700       -0.27295922274415
N            1.70778285762636       -0.50604824862763       -0.11616538427753
C            2.15833649826149       -1.76736154965989        0.25776293485371
N            1.42721244739109       -2.55212290226677        0.91138144928907
C            0.41436493388457       -0.13794521673170       -0.10088639482489
C            0.70443772265508        2.31426587336651        0.86197535972877
C           -0.06061565500851        1.23410435342845        0.16753624739566
O            0.53969890252114        2.39539503903971       -0.40693562026519
N           -1.46881306366529        1.15638456751982        0.14788169260976
C           -2.36461850113311        2.25598570359193        0.41762345897767
C           -1.87058739809299       -0.11481792273495       -0.10064990439224
O           -2.96955319790632       -0.56158752474815       -0.19463489921159
N           -0.66595962665526       -0.89734231148747       -0.26412054832004
C           -0.79678716213456       -2.26655167327646       -0.66352316844249
H            2.73782005736384        1.18589491351585        0.60356383471587
H            3.69933781095951        0.06380707628910       -0.37017961912253
H            2.53102015056128        1.12727836355847       -1.16403072036843
H            3.19708381732690       -1.94062497550625       -0.03114596022633
H           -2.09112724193341        3.12279348626383       -0.18767436314518
H           -3.37140953724327        1.92916711161151        0.15880704579475
H           -2.32874838764489        2.52631014745834        1.47637818518355
H           -0.42592792043130       -2.92885563928656        0.12543166434862
H           -0.23116561848224       -2.45867003457049       -1.57494373358541
H           -1.85928130961375       -2.44757634266287       -0.83121433327045
H            1.82568986839757       -3.44321111253365        1.18189361719847

          :  Hamiltonian                  GFN2-xTB          :
         :: total energy             -42.056847021916 Eh    ::
         :: gradient norm              0.003417154746 Eh/a0 ::
         :: HOMO-LUMO gap              2.244401158950 eV    ::
         :: SCC energy               -42.549394308932 Eh    ::
         :: -> dispersion             -0.022847603918 Eh    ::
         :: repulsion energy           0.492353510554 Eh    ::

    * Orbital Energies and Occupations

         #    Occupation            Energy/Eh            Energy/eV
      -------------------------------------------------------------
         1        2.0000           -0.9498282             -25.8461
       ...           ...                  ...                  ...
        25        1.9999           -0.6818178             -18.5532
        26        1.9999           -0.6751310             -18.3713
        27        1.9998           -0.6622499             -18.0207
        28        1.9996           -0.6538961             -17.7934
        29        1.9995           -0.6487408             -17.6531
        30        1.9990           -0.6389030             -17.3854
        31        1.9982           -0.6298941             -17.1403
        32        1.9978           -0.6262215             -17.0404
        33        1.9929           -0.6078944             -16.5416
        34        1.9870           -0.5982027             -16.2779
        35        1.9833           -0.5941853             -16.1686
        36        1.8959           -0.5645370             -15.3618
        37        1.8889           -0.5634431             -15.3321 (HOMO)
        38        0.1701           -0.4809628             -13.0877 (LUMO)
        39        0.0872           -0.4696928             -12.7810
        40        0.0011           -0.4002344             -10.8909
        41        0.0001           -0.3615473              -9.8382
        42                         -0.2399614              -6.5297
        43                         -0.2185156              -5.9461
        44                         -0.2011802              -5.4744
        45                         -0.1712209              -4.6592
        46                         -0.1130383              -3.0759
        47                         -0.0956882              -2.6038
        48                         -0.0845406              -2.3005
       ...                                ...                  ...
        67                          0.5637062              15.3392
      -------------------------------------------------------------
                  HL-Gap            0.0824802 Eh            2.2444 eV

     #   Z          covCN         q      C6AA      α(0)
     1   6 C        3.707    -0.074    22.063     6.714
     2   7 N        2.740     0.004    21.192     6.837
     3   6 C        2.770     0.132    25.097     8.205
     4   7 N        1.781    -0.271    27.846     7.815
     5   6 C        2.920     0.118    25.404     8.265
     6   6 C        1.833    -0.014    31.549     9.074
     7   6 C        3.829     0.192    17.547     5.960
     8   8 O        1.703    -0.102    15.869     5.378
     9   7 N        2.778    -0.087    22.928     7.112
    10   6 C        3.689    -0.057    21.805     6.683
    11   6 C        2.821     0.318    21.612     7.617
    12   8 O        0.857    -0.325    20.236     6.031
    13   7 N        2.794    -0.019    21.609     6.904
    14   6 C        3.691    -0.083    22.274     6.754
    15   1 H        0.924     0.101     1.775     2.084
    16   1 H        0.925     0.108     1.715     2.048
    17   1 H        0.925     0.097     1.810     2.104
    18   1 H        0.924     0.076     2.025     2.225
    19   1 H        0.924     0.096     1.819     2.109
    20   1 H        0.925     0.118     1.633     1.998
    21   1 H        0.924     0.100     1.782     2.088
    22   1 H        0.924     0.134     1.504     1.918
    23   1 H        0.925     0.096     1.819     2.109
    24   1 H        0.924     0.134     1.503     1.917
    25   1 H        0.860     0.207     1.070     1.620

Wiberg/Mayer (AO) data.
largest (>0.10) Wiberg bond orders for each atom

     #   Z sym  total        # sym  WBO       # sym  WBO       # sym  WBO
 ---------------------------------------------------------------------------
     1   6 C    3.923 --     2 N    0.971    17 H    0.971    16 H    0.969
                            15 H    0.948
     2   7 N    3.586 --     5 C    1.268     3 C    1.094     1 C    0.971
     3   6 C    3.928 --     4 N    1.845     2 N    1.094    18 H    0.922
     4   7 N    2.983 --     3 C    1.845    25 H    0.923
     5   6 C    3.889 --    13 N    1.354     2 N    1.268     7 C    1.037
     6   6 C    2.433 --     8 O    1.443     7 C    0.832
     7   6 C    3.838 --     5 C    1.037     9 N    1.025     8 O    0.841
                             6 C    0.832
     8   8 O    2.401 --     6 C    1.443     7 C    0.841
     9   7 N    3.459 --    11 C    1.177     7 C    1.025    10 C    0.977
                            12 O    0.168
    10   6 C    3.905 --     9 N    0.977    20 H    0.967    19 H    0.965
                            21 H    0.956
    11   6 C    3.951 --    12 O    1.730     9 N    1.177    13 N    0.949
    12   8 O    2.082 --    11 C    1.730     9 N    0.168
    13   7 N    3.610 --     5 C    1.354    14 C    0.995    11 C    0.949
    14   6 C    3.901 --    13 N    0.995    23 H    0.960    24 H    0.956
                            22 H    0.914
    15   1 H    0.986 --     1 C    0.948
    16   1 H    0.987 --     1 C    0.969
    17   1 H    0.988 --     1 C    0.971
    18   1 H    0.973 --     3 C    0.922
    19   1 H    0.981 --    10 C    0.965
    20   1 H    0.984 --    10 C    0.967
    21   1 H    0.975 --    10 C    0.956
    22   1 H    0.973 --    14 C    0.914
    23   1 H    0.985 --    14 C    0.960
    24   1 H    0.979 --    14 C    0.956
    25   1 H    0.951 --     4 N    0.923
 ---------------------------------------------------------------------------

molecular dipole:
                 x           y           z       tot (Debye)
 q only:        1.455      -0.610      -0.069
   full:        1.920      -0.661      -0.576       5.366

           -------------------------------------------------
          | TOTAL ENERGY              -42.056847021916 Eh   |
          | GRADIENT NORM               0.003417154746 Eh/α |
          | HOMO-LUMO GAP               2.244401158950 eV   |
           -------------------------------------------------

 * finished run on 2024/06/05 at 19:59:10.905
