   * xtb version 6.6.1 (8d0f1dd) compiled by 'conda@1efc2f54142f' on 2023-08-01
          program call               : xtb xtbopt.xyz --opt crude --input .xc2 --gfn2

   ID    Z sym.   atoms
    1    7 N      1, 17
    2    6 C      2-6, 8, 9, 11-16, 18-23, 25, 26, 28-33
    3    8 O      7, 10, 24, 27
    4    1 H      34-72

          :  Hamiltonian                  GFN2-xTB          :
 * total energy  :   -99.2953969 Eh     change       -0.2174261E-11 Eh
   *** GEOMETRY OPTIMIZATION CONVERGED AFTER 1 ITERATIONS ***

 final structure:
================
72
 xtb: 6.6.1 (8d0f1dd)
N           -1.88610768464951        2.96030800461903        2.24443225526420
C           -1.83243414809209        2.21790776287645        1.24243579363798
C           -2.97724317583526        1.98776865068585        0.29345290732922
C           -3.39988758514147        0.52985750468537        0.34889793764472
C           -4.28605803347857        0.02837225719006       -0.60575428065559
C           -4.69924359888536       -1.29477094701696       -0.58510173176554
O           -5.54574401920358       -1.86155352405033       -1.46406902486387
C           -6.13598137439847       -1.07453239575246       -2.47221681871772
C           -4.20764603171633       -2.16619806383582        0.42892025871893
O           -4.64722363871855       -3.43373314634166        0.36263892581953
C           -4.23814341394884       -4.35895226047891        1.34410790351507
C           -3.34018903414235       -1.65416732896016        1.38361962129511
C           -2.94595042057320       -0.32523442105752        1.34411869511675
C           -2.43585252020390        2.33984663704738       -1.11823340098842
C           -1.53846910591538        1.27025275432077       -1.76973088284446
C           -0.21427636327644        1.10823038382633       -1.11984085995786
N            0.31701460703309       -0.03886030826917       -0.69709353110121
C            1.71445552994105        0.01470696366026       -0.27225672760476
C            2.65306846095966       -0.06085262425005       -1.48551372794569
C            4.08487582787664        0.02290272200337       -1.03538224907387
C            4.84243477607779        1.16659308169425       -1.24771303564750
C            6.15190771718337        1.24325213703259       -0.80049787605210
C            6.73382323264226        0.17742105229862       -0.12472153444457
O            7.98478376874780        0.14398932686234        0.35748149398207
C            8.82856821479370        1.25878501687879        0.17905869463821
C            5.96260175021314       -1.00336314100543        0.09748475185123
O            6.59094845410938       -1.98604083370865        0.75784603649574
C            5.92135366280921       -3.20703362588257        0.98399858661038
C            4.65691078169125       -1.05536016196019       -0.36842834465752
C           -0.27276634993307       -1.22065370421607       -0.65439135314697
C           -4.22281963290265        2.86782315955479        0.61560050381795
C           -4.82164845779548        2.51580809154094        1.97491099732947
C           -3.93541186663100        4.36474153066314        0.55245392502129
H           -4.66452585265312        0.68343083402309       -1.37329709502513
H           -6.72563185817554       -0.25618636858916       -2.04882947997124
H           -6.79426784487250       -1.74755709823559       -3.01805215081619
H           -5.38513039720539       -0.66985879919184       -3.15836697496124
H           -4.55069463727255       -4.04529727848091        2.34421159546879
H           -4.73223888506889       -5.29397949648172        1.08763962844209
H           -3.15371882817183       -4.50467077824923        1.32832689835526
H           -2.96686486011619       -2.28554232958134        2.17291241535303
H           -2.28834319665203        0.04143202985252        2.11634044493147
H           -3.28257089209760        2.51085744104665       -1.78273368114629
H           -1.87663097161068        3.27401298874718       -1.05222116680340
H           -2.07263512205184        0.32385994089877       -1.81978716503432
H           -1.36346026245446        1.60581606775740       -2.79959888520622
H           -0.91936943992170        1.68808949643562        0.92063374593265
H            0.43243221750110        1.97136549929887       -1.09363651039893
H            1.92429689393086       -0.83414452807686        0.39129263496583
H            1.89507293372073        0.94198310283198        0.27533780951736
H            2.43065844110789        0.75428895571972       -2.17630653249987
H            2.48216252286642       -1.00743793777460       -2.00236717747041
H            4.41613262119391        2.00806575750634       -1.77232576255735
H            6.71597439804005        2.14344461537452       -0.98236704414506
H            8.42694231231283        2.14724385239148        0.67531181894890
H            8.98833829971675        1.47290053087240       -0.88173896306461
H            9.77580893503074        0.98481072284477        0.63954991501389
H            6.62136382285035       -3.82545913423058        1.54305757821650
H            5.00672337022449       -3.06575533512787        1.56918829642250
H            5.67101111352297       -3.70044424364965        0.04011124663416
H            4.05382621548426       -1.93511735874929       -0.18753459696251
H            2.56904585957412       -2.62255840743758        1.04332143865952
H           -1.29172391148157       -1.34548926684908       -0.96133872922526
H            0.27280297557672       -2.06408672890989       -0.28099521133537
H           -4.97072633147215        2.63387969887765       -0.15102277601140
H           -4.12497020668983        2.77373552733866        2.76679732678996
H           -5.05481197348282        1.45584533921622        2.04119308137975
H           -5.73902883554429        3.07883316159502        2.12583979355651
H           -3.18820994892571        4.63611184832222        1.29197085428866
H           -3.59356533840579        4.67315146273342       -0.43150524680408
H           -4.84740247594950        4.91242938642624        0.77513908092092
H           -1.04920559453869        3.07487580190221        2.80660047932765

          :  Hamiltonian                  GFN2-xTB          :
         :: total energy             -99.295396926518 Eh    ::
         :: gradient norm              0.002646337265 Eh/a0 ::
         :: HOMO-LUMO gap              0.203916872723 eV    ::
         :: SCC energy              -100.676367445107 Eh    ::
         :: -> dispersion             -0.078364358877 Eh    ::
         :: repulsion energy           1.379611047638 Eh    ::

    * Orbital Energies and Occupations

         #    Occupation            Energy/Eh            Energy/eV
      -------------------------------------------------------------
         1        2.0000           -0.8203711             -22.3234
       ...           ...                  ...                  ...
        78        1.9965           -0.5354272             -14.5697
        79        1.9962           -0.5343335             -14.5400
        80        1.9951           -0.5301167             -14.4252
        81        1.9935           -0.5258304             -14.3086
        82        1.9918           -0.5221733             -14.2091
        83        1.9912           -0.5209394             -14.1755
        84        1.9888           -0.5170556             -14.0698
        85        1.9662           -0.4994338             -13.5903
        86        1.9554           -0.4949885             -13.4693
        87        1.8992           -0.4815971             -13.1049
        88        1.7787           -0.4681097             -12.7379
        89        1.7157           -0.4635725             -12.6145
        90        1.4668           -0.4511374             -12.2761 (HOMO)
        91        1.2631           -0.4436436             -12.0722 (LUMO)
        92        0.0099           -0.3512019              -9.5567
        93        0.0070           -0.3456623              -9.4059
        94        0.0020           -0.3254901              -8.8570
        95        0.0016           -0.3226144              -8.7788
        96        0.0013           -0.3192265              -8.6866
        97        0.0012           -0.3175397              -8.6407
        98        0.0000           -0.2002921              -5.4502
        99        0.0000           -0.1952007              -5.3117
       100                         -0.1221391              -3.3236
       101                         -0.0741636              -2.0181
       ...                                ...                  ...
       171                          0.5678372              15.4516
      -------------------------------------------------------------
                  HL-Gap            0.0074938 Eh            0.2039 eV

     #   Z          covCN         q      C6AA      α(0)
     1   7 N        1.774    -0.256    27.484     7.763
     2   6 C        2.827     0.103    25.721     8.310
     3   6 C        3.907     0.008    20.387     6.418
     4   6 C        2.974     0.009    27.814     8.651
     5   6 C        2.919    -0.077    29.924     8.971
     6   6 C        2.861     0.133    25.096     8.211
     7   8 O        1.706    -0.220    17.651     5.672
     8   6 C        3.644     0.025    20.494     6.507
     9   6 C        2.864     0.134    25.076     8.208
    10   8 O        1.706    -0.216    17.586     5.662
    11   6 C        3.645     0.023    20.522     6.511
    12   6 C        2.913    -0.068    29.698     8.936
    13   6 C        2.921    -0.045    29.119     8.849
    14   6 C        3.811    -0.064    21.720     6.634
    15   6 C        3.801    -0.065    21.748     6.640
    16   6 C        2.862    -0.033    28.815     8.799
    17   7 N        2.730     0.098    19.558     6.568
    18   6 C        3.781    -0.027    21.070     6.539
    19   6 C        3.808    -0.067    21.784     6.644
    20   6 C        2.969     0.010    27.792     8.647
    21   6 C        2.921    -0.043    29.066     8.841
    22   6 C        2.912    -0.065    29.610     8.923
    23   6 C        2.864     0.138    24.993     8.195
    24   8 O        1.706    -0.208    17.459     5.642
    25   6 C        3.645     0.021    20.549     6.515
    26   6 C        2.862     0.141    24.932     8.185
    27   8 O        1.706    -0.207    17.443     5.639
    28   6 C        3.645     0.022    20.547     6.515
    29   6 C        2.919    -0.074    29.845     8.959
    30   6 C        2.810    -0.087    30.175     9.000
    31   6 C        3.853    -0.007    20.671     6.467
    32   6 C        3.756    -0.119    22.834     6.813
    33   6 C        3.755    -0.120    22.855     6.817
    34   1 H        0.926     0.057     2.239     2.340
    35   1 H        0.924     0.058     2.224     2.332
    36   1 H        0.925     0.086     1.923     2.169
    37   1 H        0.924     0.052     2.292     2.368
    38   1 H        0.924     0.060     2.196     2.317
    39   1 H        0.925     0.086     1.920     2.167
    40   1 H        0.924     0.057     2.238     2.339
    41   1 H        0.926     0.061     2.187     2.313
    42   1 H        0.926     0.046     2.367     2.406
    43   1 H        0.925     0.060     2.202     2.321
    44   1 H        0.924     0.054     2.268     2.355
    45   1 H        0.925     0.058     2.225     2.333
    46   1 H        0.924     0.071     2.069     2.250
    47   1 H        0.923     0.019     2.752     2.594
    48   1 H        0.926     0.058     2.218     2.329
    49   1 H        0.924     0.100     1.783     2.088
    50   1 H        0.924     0.066     2.127     2.281
    51   1 H        0.924     0.055     2.255     2.348
    52   1 H        0.924     0.066     2.135     2.285
    53   1 H        0.926     0.054     2.273     2.357
    54   1 H        0.926     0.064     2.152     2.294
    55   1 H        0.924     0.060     2.193     2.316
    56   1 H        0.924     0.062     2.179     2.308
    57   1 H        0.925     0.088     1.903     2.157
    58   1 H        0.925     0.086     1.922     2.168
    59   1 H        0.924     0.070     2.087     2.259
    60   1 H        0.924     0.062     2.179     2.308
    61   1 H        0.925     0.080     1.974     2.197
    62   1 H        0.000    -0.268    44.232    12.161
    63   1 H        0.926     0.064     2.149     2.292
    64   1 H        0.926     0.083     1.951     2.184
    65   1 H        0.924     0.041     2.429     2.437
    66   1 H        0.925     0.071     2.071     2.250
    67   1 H        0.925     0.037     2.486     2.466
    68   1 H        0.925     0.055     2.257     2.349
    69   1 H        0.925     0.065     2.137     2.286
    70   1 H        0.925     0.039     2.456     2.450
    71   1 H        0.925     0.058     2.226     2.333
    72   1 H        0.860     0.164     1.310     1.793

Wiberg/Mayer (AO) data.
largest (>0.10) Wiberg bond orders for each atom

     #   Z sym  total        # sym  WBO       # sym  WBO       # sym  WBO
 ---------------------------------------------------------------------------
     1   7 N    3.021 --     2 C    1.959    72 H    0.938
     2   6 C    3.929 --     1 N    1.959     3 C    0.991    47 H    0.906
     3   6 C    3.965 --     2 C    0.991     4 C    0.973    14 C    0.953
                            31 C    0.939
     4   6 C    3.927 --    13 C    1.398     5 C    1.372     3 C    0.973
     5   6 C    3.951 --     6 C    1.392     4 C    1.372    34 H    0.957
     6   6 C    3.885 --     5 C    1.392     9 C    1.208     7 O    1.111
     7   8 O    2.251 --     6 C    1.111     8 C    0.976
     8   6 C    3.926 --    36 H    0.976     7 O    0.976    37 H    0.972
                            35 H    0.972
     9   6 C    3.880 --    12 C    1.378     6 C    1.208    10 O    1.118
    10   8 O    2.252 --     9 C    1.118    11 C    0.974
    11   6 C    3.923 --    39 H    0.976    10 O    0.974    40 H    0.971
                            38 H    0.971
    12   6 C    3.950 --    13 C    1.416     9 C    1.378    41 H    0.962
    13   6 C    3.935 --    12 C    1.416     4 C    1.398    42 H    0.961
    14   6 C    3.967 --    15 C    0.979    44 H    0.972    43 H    0.967
                             3 C    0.953
    15   6 C    3.982 --    16 C    1.052    14 C    0.979    45 H    0.961
                            46 H    0.938
    16   6 C    3.631 --    17 N    1.333    15 C    1.052    48 H    0.962
                            30 C    0.180
    17   7 N    3.748 --    30 C    1.392    16 C    1.333    18 C    0.961
    18   6 C    3.921 --    19 C    0.977    50 H    0.967    17 N    0.961
                            49 H    0.939
    19   6 C    3.985 --    20 C    1.008    18 C    0.977    51 H    0.972
                            52 H    0.965
    20   6 C    3.919 --    21 C    1.390    29 C    1.388    19 C    1.008
    21   6 C    3.919 --    22 C    1.422    20 C    1.390    53 H    0.966
    22   6 C    3.942 --    21 C    1.422    23 C    1.371    54 H    0.962
    23   6 C    3.863 --    22 C    1.371    26 C    1.197    24 O    1.126
    24   8 O    2.251 --    23 C    1.126    25 C    0.973
    25   6 C    3.921 --    57 H    0.976    24 O    0.973    55 H    0.970
                            56 H    0.970
    26   6 C    3.871 --    29 C    1.378    23 C    1.197    27 O    1.129
    27   8 O    2.253 --    26 C    1.129    28 C    0.972
    28   6 C    3.913 --    58 H    0.976    27 O    0.972    60 H    0.969
                            59 H    0.964
    29   6 C    3.917 --    20 C    1.388    26 C    1.378    61 H    0.935
    30   6 C    3.580 --    17 N    1.392    64 H    0.970    63 H    0.967
                            16 C    0.180
    31   6 C    3.962 --    33 C    1.008    32 C    1.008    65 H    0.956
                             3 C    0.939
    32   6 C    3.969 --    31 C    1.008    67 H    0.980    68 H    0.979
                            66 H    0.970
    33   6 C    3.972 --    31 C    1.008    70 H    0.981    71 H    0.978
                            69 H    0.972
    34   1 H    0.995 --     5 C    0.957
    35   1 H    0.990 --     8 C    0.972
    36   1 H    0.992 --     8 C    0.976
    37   1 H    0.991 --     8 C    0.972
    38   1 H    0.989 --    11 C    0.971
    39   1 H    0.992 --    11 C    0.976
    40   1 H    0.989 --    11 C    0.971
    41   1 H    0.994 --    12 C    0.962
    42   1 H    0.997 --    13 C    0.961
    43   1 H    0.994 --    14 C    0.967
    44   1 H    0.996 --    14 C    0.972
    45   1 H    0.996 --    15 C    0.961
    46   1 H    0.973 --    15 C    0.938
    47   1 H    0.973 --     2 C    0.906
    48   1 H    0.996 --    16 C    0.962
    49   1 H    0.989 --    18 C    0.939
    50   1 H    0.995 --    18 C    0.967
    51   1 H    0.995 --    19 C    0.972
    52   1 H    0.992 --    19 C    0.965
    53   1 H    0.995 --    21 C    0.966
    54   1 H    0.993 --    22 C    0.962
    55   1 H    0.987 --    25 C    0.970
    56   1 H    0.987 --    25 C    0.970
    57   1 H    0.991 --    25 C    0.976
    58   1 H    0.991 --    28 C    0.976
    59   1 H    0.986 --    28 C    0.964
    60   1 H    0.986 --    28 C    0.969
    61   1 H    0.991 --    29 C    0.935
    62   1 H    0.065
    63   1 H    0.995 --    30 C    0.967
    64   1 H    0.993 --    30 C    0.970
    65   1 H    0.987 --    31 C    0.956
    66   1 H    0.987 --    32 C    0.970
    67   1 H    0.995 --    32 C    0.980
    68   1 H    0.991 --    32 C    0.979
    69   1 H    0.989 --    33 C    0.972
    70   1 H    0.995 --    33 C    0.981
    71   1 H    0.991 --    33 C    0.978
    72   1 H    0.964 --     1 N    0.938
 ---------------------------------------------------------------------------

molecular dipole:
                 x           y           z       tot (Debye)
 q only:        0.202       1.003      -0.973
   full:        0.470       0.940      -1.111       3.886

           -------------------------------------------------
          | TOTAL ENERGY              -99.295396926518 Eh   |
          | GRADIENT NORM               0.002646337265 Eh/α |
          | HOMO-LUMO GAP               0.203916872723 eV   |
           -------------------------------------------------

 * finished run on 2024/04/06 at 11:13:29.495
