   * xtb version 6.6.1 (8d0f1dd) compiled by 'conda@1efc2f54142f' on 2023-08-01
          program call               : xtb struc.xyz --opt loose --input .xc1 --gfn2

   ID    Z sym.   atoms
    1    7 N      1, 17
    2    6 C      2-6, 8, 9, 11-16, 18-23, 25, 26, 28-33
    3    8 O      7, 10, 24, 27
    4    1 H      34-72
constraining bond 3 72 to    5.1400000 Å, actual value:    3.3670798 Å

          :  Hamiltonian                  GFN2-xTB          :
 * total energy  :   -98.8428943 Eh     change       -0.4035485E-08 Eh
 * total energy  :   -99.0261322 Eh     change       -0.1832380E+00 Eh
 * total energy  :   -99.1262305 Eh     change       -0.1000983E+00 Eh
 * total energy  :   -99.1765802 Eh     change       -0.5034964E-01 Eh
 * total energy  :   -99.2061183 Eh     change       -0.2953816E-01 Eh
 * total energy  :   -99.2254149 Eh     change       -0.1929661E-01 Eh
 * total energy  :   -99.2290525 Eh     change       -0.3637538E-02 Eh
 * total energy  :   -99.2312796 Eh     change       -0.2227110E-02 Eh
 * total energy  :   -99.2333765 Eh     change       -0.2096878E-02 Eh
 * total energy  :   -99.2344378 Eh     change       -0.1061324E-02 Eh
 * total energy  :   -99.3238966 Eh     change       -0.1184902E-03 Eh
 * total energy  :   -99.3240031 Eh     change       -0.1065816E-03 Eh
 * total energy  :   -99.3240684 Eh     change       -0.6526527E-04 Eh
 * total energy  :   -99.3241224 Eh     change       -0.5401226E-04 Eh
 * total energy  :   -99.3241795 Eh     change       -0.5711672E-04 Eh
 * total energy  :   -99.3242377 Eh     change       -0.5813609E-04 Eh
 * total energy  :   -99.3242961 Eh     change       -0.5842106E-04 Eh
 * total energy  :   -99.3243466 Eh     change       -0.5046808E-04 Eh
 * total energy  :   -99.3243908 Eh     change       -0.4425585E-04 Eh
   *** GEOMETRY OPTIMIZATION CONVERGED AFTER 45 ITERATIONS ***

 final structure:
================
72
 xtb: 6.6.1 (8d0f1dd)
N           -1.67725126655117        2.64329316922437        2.27038169341133
C           -2.36716513655357        2.32874728614330        1.41360136145592
C           -3.24474643928137        1.99129688594148        0.31022831476143
C           -3.70116726387600        0.54575662662713        0.40481049454901
C           -4.56361102654396        0.03460127716360       -0.56428220754252
C           -4.98978332395317       -1.28421257958853       -0.52508372070580
O           -5.82909319672315       -1.85805057258759       -1.40479345862291
C           -6.40997055877544       -1.07776128242885       -2.42373577488811
C           -4.52275755469434       -2.14095357795885        0.51368975145195
O           -4.96978059975990       -3.40636602465912        0.46032785168382
C           -4.58416335362359       -4.32019204208668        1.46137445632534
C           -3.66904332575835       -1.61904955425663        1.47552923457550
C           -3.26836165149516       -0.29253758867492        1.42407805018875
C           -2.45797673928941        2.22600546488023       -1.00799996853650
C           -1.48935743085863        1.10373648380819       -1.38357778589836
C           -0.32506847877753        0.96627012848127       -0.39879972591011
N            0.62071015380503       -0.03790353340474       -0.82072152121108
C            1.98542302880542        0.10657401775939       -0.38157294509955
C            2.97513525575213       -0.33700358420622       -1.47850198105723
C            4.38761282276515       -0.13959166435380       -1.01621548584012
C            5.03690271945453        1.07328818037147       -1.21736430786219
C            6.33088671372026        1.27259643922688       -0.76861241468970
C            7.01104403450979        0.26147433946059       -0.09895165177200
O            8.26042894033009        0.34067116293125        0.38042496940195
C            8.98803520581181        1.53931100949820        0.23346091812668
C            6.35505581221843       -0.98756863786836        0.11401624119533
O            7.08394220481676       -1.91004455045204        0.76248620834442
C            6.53651284941175       -3.18419371083320        1.00978999500304
C            5.05665931540668       -1.15968772009377       -0.34613344986913
C            0.10180404074783       -1.38237501504345       -0.84268790309162
C           -4.47733728764807        2.94657143641667        0.40595703696986
C           -5.25061000757053        2.68398520897117        1.69756630417032
C           -4.07467605340985        4.41722271384021        0.32981584952411
H           -4.90580692049445        0.67551600698038       -1.36019648651918
H           -6.98420738421511       -0.24319007051665       -2.01059850962218
H           -7.08127737965710       -1.74762224806045       -2.95710766779110
H           -5.65450464519888       -0.69659155957143       -3.11764828683991
H           -4.92095164651321       -3.99594223872190        2.45025849825352
H           -5.07142264168262       -5.25859758842635        1.20349070189102
H           -3.49963540414528       -4.46583587505152        1.47395932718705
H           -3.31367193589592       -2.24023372329566        2.28140420625703
H           -2.62000051520663        0.08519750485934        2.19996011352525
H           -3.17941936675825        2.34038713798656       -1.81790888731966
H           -1.90289733217399        3.16126087102774       -0.92165805853881
H           -2.03276599824361        0.16081271043735       -1.44782318931076
H           -1.07741468896150        1.32197732032938       -2.37009245850716
H           -0.72131470581647        0.72090036785207        0.59916458616005
H            0.18978855069831        1.92589220091162       -0.32541250820104
H            2.17753109964475       -0.47765457547404        0.53113469993453
H            2.17378177979209        1.15659927152969       -0.15106996273894
H            2.78510011292818        0.25701051350531       -2.37265490287760
H            2.80810052887901       -1.38609591291883       -1.72327065817502
H            4.53078389609641        1.87066755129771       -1.73898106852765
H            6.80978659392317        2.22134535109351       -0.94756994518373
H            8.47764179058673        2.37840499593947        0.71547882365296
H            9.16228101003377        1.77332257213725       -0.82113084337502
H            9.94235672249955        1.36433406029256        0.72714441159826
H            7.31635616457017       -3.74265727087747        1.52350842608883
H            5.65316380367883       -3.12177063460218        1.65216370985733
H            6.27770634652130       -3.69648092443305        0.07857829309920
H            4.55400241899486       -2.10181428130837       -0.19282160945755
H           -0.47543419697012       -1.54804326472580       -1.75303522545571
H           -0.55305342544359       -1.57339056730053        0.01632853580097
H            0.91536119379073       -2.10035031716575       -0.82785431539898
H           -5.13051869977527        2.72193219305286       -0.44359679765176
H           -4.63240891742011        2.90595934597230        2.56546923425958
H           -5.57468901937405        1.64718249556130        1.75990096828833
H           -6.13205470763136        3.31967039419393        1.73618946186437
H           -3.36679569947780        4.66547362901635        1.11811040160093
H           -3.63066576962918        4.66435456176289       -0.63084334367258
H           -4.95688700023201        5.04008093073962        0.45994940440368
H            0.69233918287094        2.73821839621884        3.52184133550209

          :  Hamiltonian                  GFN2-xTB          :
         :: total energy             -99.324390824688 Eh    ::
         :: gradient norm              0.002348632734 Eh/a0 ::
         :: HOMO-LUMO gap              0.665383837992 eV    ::
         :: SCC energy              -100.722498623949 Eh    ::
         :: -> dispersion             -0.072945815228 Eh    ::
         :: repulsion energy           1.396917217786 Eh    ::

    * Orbital Energies and Occupations

         #    Occupation            Energy/Eh            Energy/eV
      -------------------------------------------------------------
         1        2.0000           -0.8216628             -22.3586
       ...           ...                  ...                  ...
        78        1.9965           -0.5379872             -14.6394
        79        1.9956           -0.5344249             -14.5424
        80        1.9950           -0.5325086             -14.4903
        81        1.9930           -0.5270706             -14.3423
        82        1.9927           -0.5263909             -14.3238
        83        1.9902           -0.5217829             -14.1984
        84        1.9889           -0.5196985             -14.1417
        85        1.9739           -0.5060661             -13.7708
        86        1.9624           -0.5002189             -13.6117
        87        1.9557           -0.4975566             -13.5392
        88        1.7743           -0.4702513             -12.7962
        89        1.7434           -0.4679391             -12.7333
        90        1.6517           -0.4622478             -12.5784 (HOMO)
        91        1.0062           -0.4377954             -11.9130 (LUMO)
        92        0.0018           -0.3263098              -8.8793
        93        0.0015           -0.3233742              -8.7995
        94        0.0013           -0.3212561              -8.7418
        95        0.0012           -0.3195619              -8.6957
        96        0.0003           -0.2974492              -8.0940
        97        0.0003           -0.2958444              -8.0503
        98        0.0000           -0.2008483              -5.4654
        99        0.0000           -0.1972123              -5.3664
       100                         -0.1109991              -3.0204
       101                         -0.0740493              -2.0150
       ...                                ...                  ...
       171                          1.0472192              28.4963
      -------------------------------------------------------------
                  HL-Gap            0.0244524 Eh            0.6654 eV

     #   Z          covCN         q      C6AA      α(0)
     1   7 N        0.911    -0.225    25.911     7.362
     2   6 C        1.923     0.124    28.057     8.554
     3   6 C        3.907     0.018    20.214     6.391
     4   6 C        2.976     0.014    27.684     8.631
     5   6 C        2.919    -0.074    29.857     8.960
     6   6 C        2.862     0.135    25.057     8.205
     7   8 O        1.706    -0.218    17.614     5.666
     8   6 C        3.644     0.025    20.495     6.507
     9   6 C        2.863     0.135    25.055     8.205
    10   8 O        1.706    -0.215    17.570     5.659
    11   6 C        3.645     0.024    20.514     6.510
    12   6 C        2.913    -0.068    29.690     8.935
    13   6 C        2.920    -0.044    29.092     8.845
    14   6 C        3.813    -0.058    21.598     6.615
    15   6 C        3.801    -0.068    21.797     6.647
    16   6 C        3.749    -0.005    20.735     6.494
    17   7 N        2.728    -0.091    23.013     7.125
    18   6 C        3.748    -0.002    20.672     6.485
    19   6 C        3.808    -0.073    21.890     6.660
    20   6 C        2.968     0.014    27.700     8.633
    21   6 C        2.921    -0.041    29.010     8.833
    22   6 C        2.912    -0.063    29.564     8.916
    23   6 C        2.864     0.138    24.977     8.192
    24   8 O        1.706    -0.206    17.434     5.637
    25   6 C        3.645     0.021    20.563     6.517
    26   6 C        2.861     0.138    24.978     8.192
    27   8 O        1.706    -0.210    17.495     5.647
    28   6 C        3.645     0.023    20.526     6.512
    29   6 C        2.919    -0.074    29.853     8.960
    30   6 C        3.701    -0.052    21.675     6.657
    31   6 C        3.861    -0.004    20.619     6.458
    32   6 C        3.755    -0.110    22.651     6.786
    33   6 C        3.755    -0.113    22.716     6.796
    34   1 H        0.926     0.057     2.232     2.336
    35   1 H        0.924     0.058     2.222     2.331
    36   1 H        0.925     0.086     1.921     2.168
    37   1 H        0.924     0.055     2.259     2.351
    38   1 H        0.924     0.061     2.186     2.312
    39   1 H        0.925     0.086     1.919     2.167
    40   1 H        0.924     0.055     2.256     2.349
    41   1 H        0.926     0.060     2.203     2.321
    42   1 H        0.926     0.055     2.262     2.352
    43   1 H        0.924     0.054     2.276     2.359
    44   1 H        0.924     0.055     2.260     2.351
    45   1 H        0.925     0.046     2.367     2.406
    46   1 H        0.924     0.057     2.232     2.336
    47   1 H        0.923     0.045     2.380     2.413
    48   1 H        0.924     0.058     2.227     2.334
    49   1 H        0.923     0.047     2.363     2.404
    50   1 H        0.924     0.059     2.215     2.327
    51   1 H        0.925     0.066     2.132     2.284
    52   1 H        0.925     0.058     2.229     2.334
    53   1 H        0.926     0.059     2.207     2.323
    54   1 H        0.926     0.066     2.131     2.283
    55   1 H        0.924     0.062     2.176     2.307
    56   1 H        0.924     0.063     2.161     2.299
    57   1 H        0.925     0.088     1.897     2.154
    58   1 H        0.925     0.087     1.907     2.159
    59   1 H        0.924     0.057     2.232     2.336
    60   1 H        0.924     0.059     2.207     2.323
    61   1 H        0.926     0.056     2.244     2.343
    62   1 H        0.924     0.062     2.171     2.304
    63   1 H        0.924     0.046     2.365     2.405
    64   1 H        0.925     0.062     2.170     2.304
    65   1 H        0.924     0.041     2.441     2.443
    66   1 H        0.925     0.051     2.306     2.375
    67   1 H        0.925     0.038     2.478     2.462
    68   1 H        0.925     0.054     2.265     2.354
    69   1 H        0.925     0.051     2.306     2.374
    70   1 H        0.925     0.043     2.406     2.425
    71   1 H        0.925     0.057     2.236     2.338
    72   1 H        0.000    -0.016     8.348     5.283

Wiberg/Mayer (AO) data.
largest (>0.10) Wiberg bond orders for each atom

     #   Z sym  total        # sym  WBO       # sym  WBO       # sym  WBO
 ---------------------------------------------------------------------------
     1   7 N    3.001 --     2 C    2.830
     2   6 C    3.930 --     1 N    2.830     3 C    1.022
     3   6 C    3.975 --     2 C    1.022     4 C    0.969    14 C    0.941
                            31 C    0.920
     4   6 C    3.924 --    13 C    1.395     5 C    1.376     3 C    0.969
     5   6 C    3.949 --     6 C    1.389     4 C    1.376    34 H    0.957
     6   6 C    3.880 --     5 C    1.389     9 C    1.205     7 O    1.114
     7   8 O    2.250 --     6 C    1.114     8 C    0.975
     8   6 C    3.925 --    36 H    0.976     7 O    0.975    35 H    0.972
                            37 H    0.971
     9   6 C    3.874 --    12 C    1.377     6 C    1.205    10 O    1.118
    10   8 O    2.250 --     9 C    1.118    11 C    0.974
    11   6 C    3.924 --    39 H    0.976    10 O    0.974    40 H    0.971
                            38 H    0.971
    12   6 C    3.948 --    13 C    1.417     9 C    1.377    41 H    0.962
    13   6 C    3.929 --    12 C    1.417     4 C    1.395    42 H    0.961
    14   6 C    3.981 --    15 C    1.008    44 H    0.971    43 H    0.968
                             3 C    0.941
    15   6 C    3.978 --    14 C    1.008    16 C    0.994    46 H    0.971
                            45 H    0.969
    16   6 C    3.961 --    17 N    1.007    15 C    0.994    48 H    0.968
                            47 H    0.940
    17   7 N    3.093 --    30 C    1.018    18 C    1.011    16 C    1.007
    18   6 C    3.956 --    17 N    1.011    50 H    0.969    19 C    0.966
                            49 H    0.952
    19   6 C    3.970 --    20 C    1.016    51 H    0.968    52 H    0.966
                            18 C    0.966
    20   6 C    3.912 --    29 C    1.388    21 C    1.378    19 C    1.016
    21   6 C    3.914 --    22 C    1.432    20 C    1.378    53 H    0.966
    22   6 C    3.941 --    21 C    1.432    23 C    1.364    54 H    0.961
    23   6 C    3.859 --    22 C    1.364    26 C    1.199    24 O    1.128
    24   8 O    2.249 --    23 C    1.128    25 C    0.973
    25   6 C    3.919 --    57 H    0.976    24 O    0.973    55 H    0.970
                            56 H    0.969
    26   6 C    3.867 --    29 C    1.380    23 C    1.199    27 O    1.122
    27   8 O    2.250 --    26 C    1.122    28 C    0.975
    28   6 C    3.923 --    58 H    0.976    27 O    0.975    59 H    0.971
                            60 H    0.971
    29   6 C    3.943 --    20 C    1.388    26 C    1.380    61 H    0.961
    30   6 C    3.964 --    17 N    1.018    64 H    0.978    62 H    0.968
                            63 H    0.964
    31   6 C    3.973 --    33 C    1.009    32 C    1.008    65 H    0.958
                             3 C    0.920
    32   6 C    3.982 --    31 C    1.008    67 H    0.981    68 H    0.981
                            66 H    0.981
    33   6 C    3.981 --    31 C    1.009    70 H    0.981    69 H    0.980
                            71 H    0.979
    34   1 H    0.995 --     5 C    0.957
    35   1 H    0.990 --     8 C    0.972
    36   1 H    0.992 --     8 C    0.976
    37   1 H    0.990 --     8 C    0.971
    38   1 H    0.989 --    11 C    0.971
    39   1 H    0.992 --    11 C    0.976
    40   1 H    0.989 --    11 C    0.971
    41   1 H    0.994 --    12 C    0.962
    42   1 H    0.996 --    13 C    0.961
    43   1 H    0.994 --    14 C    0.968
    44   1 H    0.995 --    14 C    0.971
    45   1 H    0.996 --    15 C    0.969
    46   1 H    0.993 --    15 C    0.971
    47   1 H    0.967 --    16 C    0.940
    48   1 H    0.995 --    16 C    0.968
    49   1 H    0.971 --    18 C    0.952
    50   1 H    0.996 --    18 C    0.969
    51   1 H    0.991 --    19 C    0.968
    52   1 H    0.994 --    19 C    0.966
    53   1 H    0.995 --    21 C    0.966
    54   1 H    0.993 --    22 C    0.961
    55   1 H    0.987 --    25 C    0.970
    56   1 H    0.986 --    25 C    0.969
    57   1 H    0.991 --    25 C    0.976
    58   1 H    0.991 --    28 C    0.976
    59   1 H    0.988 --    28 C    0.971
    60   1 H    0.988 --    28 C    0.971
    61   1 H    0.995 --    29 C    0.961
    62   1 H    0.981 --    30 C    0.968
    63   1 H    0.976 --    30 C    0.964
    64   1 H    0.995 --    30 C    0.978
    65   1 H    0.993 --    31 C    0.958
    66   1 H    0.994 --    32 C    0.981
    67   1 H    0.996 --    32 C    0.981
    68   1 H    0.994 --    32 C    0.981
    69   1 H    0.994 --    33 C    0.980
    70   1 H    0.995 --    33 C    0.981
    71   1 H    0.993 --    33 C    0.979
    72   1 H    0.011
 ---------------------------------------------------------------------------

molecular dipole:
                 x           y           z       tot (Debye)
 q only:        0.968      -0.766      -1.119
   full:        0.637      -0.813      -1.222       4.067

           -------------------------------------------------
          | TOTAL ENERGY              -99.324390824688 Eh   |
          | GRADIENT NORM               0.002348632734 Eh/α |
          | HOMO-LUMO GAP               0.665383837992 eV   |
           -------------------------------------------------

 * finished run on 2024/04/06 at 11:12:09.965
