   * xtb version 6.6.1 (8d0f1dd) compiled by 'conda@1efc2f54142f' on 2023-08-01
          program call               : xtb xtbopt.xyz --opt crude --input .xc2 --gfn2

   ID    Z sym.   atoms
    1    6 C      1, 3, 5-7, 10, 11, 14
    2    7 N      2, 4, 9, 13
    3    8 O      8, 12
    4    1 H      15-25
########################################################################
[WARNING] Please study the warnings concerning your input carefully
-1- readin_getIntValue: could not parse ''
########################################################################

          :  Hamiltonian                  GFN2-xTB          :
 * total energy  :   -42.1841179 Eh     change       -0.8526513E-13 Eh
 * total energy  :   -42.1959006 Eh     change       -0.1178262E-01 Eh
 * total energy  :   -42.2052351 Eh     change       -0.9334495E-02 Eh
 * total energy  :   -42.2107451 Eh     change       -0.5510010E-02 Eh
 * total energy  :   -42.2153123 Eh     change       -0.4567229E-02 Eh
 * total energy  :   -42.2188863 Eh     change       -0.3573973E-02 Eh
 * total energy  :   -42.2209899 Eh     change       -0.2103627E-02 Eh
 * total energy  :   -42.2219781 Eh     change       -0.9882476E-03 Eh
 * total energy  :   -42.2222302 Eh     change       -0.2521083E-03 Eh
   *** GEOMETRY OPTIMIZATION CONVERGED AFTER 9 ITERATIONS ***

 final structure:
================
25
 xtb: 6.6.1 (8d0f1dd)
C            3.70203886658090        0.75146864584206        0.02204413626898
N            2.57329449548449       -0.14328051754276        0.00373899111060
C            2.61387079438234       -1.47048540910367       -0.00029896294185
N            1.35424008692888       -1.96484899891164       -0.00162024949505
C            0.49261834499316       -0.90660486621609        0.00211783474381
C            1.25939214362747        0.24354696013764        0.00600577429342
C            0.61849333737226        1.57577679138610       -0.01482464643938
O            1.22030306144445        2.61760244262767       -0.04076109298852
N           -0.74972723028942        1.46585000532925       -0.00630767490656
C           -3.44463153403956        1.60263614061704        0.00417939956483
C           -1.42545669268238        0.37403157242551        0.00149468429982
O           -2.73445867321464        0.35908481432678        0.01008532976325
N           -0.86244717789520       -0.90037271189998        0.00021651752071
C           -1.63195836698819       -2.12868277013961       -0.00889886996917
H            4.18977024963512        0.72277951001446        0.99751435202050
H            4.42378075722867        0.46363787542339       -0.74199552001999
H            3.34572315269917        1.76616351934295       -0.16395010359915
H            3.50553658227591       -2.06459400081994       -0.00377348835494
H           -2.75097728440151        2.44479123485326        0.00772496592137
H           -4.06607100934768        1.62808066659290       -0.89046265754196
H           -4.07960213308041        1.63022562278143        0.88970090948070
H           -1.41224086104991       -2.71818235788231        0.88247269346098
H           -1.40402726970941       -2.70959897333272       -0.90389981836808
H           -2.68841996821792       -1.87581661052433       -0.01237775523806
H            1.11138784236985       -2.94497004372991       -0.00695313068573

          :  Hamiltonian                  GFN2-xTB          :
         :: total energy             -42.222230248152 Eh    ::
         :: gradient norm              0.006622001667 Eh/a0 ::
         :: HOMO-LUMO gap              2.805001516798 eV    ::
         :: SCC energy               -42.742703133081 Eh    ::
         :: -> dispersion             -0.022096005480 Eh    ::
         :: repulsion energy           0.520428293941 Eh    ::

    * Orbital Energies and Occupations

         #    Occupation            Energy/Eh            Energy/eV
      -------------------------------------------------------------
         1        2.0000           -0.9078992             -24.7052
       ...           ...                  ...                  ...
        25        2.0000           -0.6716353             -18.2761
        26        2.0000           -0.6645365             -18.0830
        27        2.0000           -0.6443638             -17.5340
        28        1.9999           -0.6357635             -17.3000
        29        1.9999           -0.6291689             -17.1206
        30        1.9998           -0.6250266             -17.0078
        31        1.9996           -0.6123292             -16.6623
        32        1.9996           -0.6103173             -16.6076
        33        1.9989           -0.5951748             -16.1955
        34        1.9914           -0.5620628             -15.2945
        35        1.9876           -0.5561881             -15.1346
        36        1.9828           -0.5510343             -14.9944
        37        1.9376           -0.5302405             -14.4286 (HOMO)
        38        0.0884           -0.4271585             -11.6236 (LUMO)
        39        0.0096           -0.3914175             -10.6510
        40        0.0048           -0.3803585             -10.3501
        41        0.0000           -0.2676506              -7.2831
        42                         -0.2010290              -5.4703
        43                         -0.1865372              -5.0759
        44                         -0.1477713              -4.0211
        45                         -0.1216611              -3.3106
        46                         -0.0769407              -2.0937
        47                         -0.0457245              -1.2442
        48                         -0.0329094              -0.8955
       ...                                ...                  ...
        67                          0.5648601              15.3706
      -------------------------------------------------------------
                  HL-Gap            0.1030819 Eh            2.8050 eV

     #   Z          covCN         q      C6AA      α(0)
     1   6 C        3.691    -0.093    22.474     6.784
     2   7 N        2.839     0.083    19.802     6.609
     3   6 C        3.061     0.050    26.831     8.494
     4   7 N        2.796    -0.062    22.446     7.036
     5   6 C        3.077     0.112    25.445     8.270
     6   6 C        3.120    -0.023    28.401     8.728
     7   6 C        2.772     0.298    21.953     7.674
     8   8 O        0.858    -0.341    20.536     6.076
     9   7 N        1.840    -0.290    28.364     7.893
    10   6 C        3.648    -0.000    20.921     6.572
    11   6 C        2.779     0.301    21.889     7.663
    12   8 O        1.707    -0.200    17.337     5.622
    13   7 N        2.739    -0.049    22.194     6.997
    14   6 C        3.693    -0.072    22.063     6.721
    15   1 H        0.924     0.109     1.709     2.044
    16   1 H        0.925     0.104     1.749     2.068
    17   1 H        0.924     0.139     1.472     1.897
    18   1 H        0.926     0.123     1.590     1.972
    19   1 H        0.924     0.105     1.742     2.064
    20   1 H        0.925     0.099     1.796     2.096
    21   1 H        0.925     0.099     1.793     2.094
    22   1 H        0.924     0.084     1.938     2.177
    23   1 H        0.924     0.084     1.940     2.178
    24   1 H        0.925     0.117     1.640     2.003
    25   1 H        0.860     0.227     0.980     1.551

Wiberg/Mayer (AO) data.
largest (>0.10) Wiberg bond orders for each atom

     #   Z sym  total        # sym  WBO       # sym  WBO       # sym  WBO
 ---------------------------------------------------------------------------
     1   6 C    3.914 --     2 N    0.984    16 H    0.965    17 H    0.960
                            15 H    0.956
     2   7 N    3.690 --     3 C    1.392     6 C    1.174     1 C    0.984
     3   6 C    3.858 --     2 N    1.392     4 N    1.272    18 H    0.953
     4   7 N    3.583 --     3 C    1.272     5 C    1.190    25 H    0.920
     5   6 C    3.946 --     6 C    1.384     4 N    1.190    13 N    1.182
     6   6 C    3.901 --     5 C    1.384     2 N    1.174     7 C    1.013
     7   6 C    3.947 --     8 O    1.721     9 N    1.131     6 C    1.013
     8   8 O    2.042 --     7 C    1.721     9 N    0.112
     9   7 N    3.048 --    11 C    1.513     7 C    1.131     8 O    0.112
                            12 O    0.111
    10   6 C    3.871 --    19 H    0.970    21 H    0.969    20 H    0.969
                            12 O    0.924
    11   6 C    3.935 --     9 N    1.513    12 O    1.198    13 N    1.088
    12   8 O    2.353 --    11 C    1.198    10 C    0.924     9 N    0.111
    13   7 N    3.557 --     5 C    1.182    11 C    1.088    14 C    0.975
    14   6 C    3.931 --    13 N    0.975    23 H    0.971    22 H    0.971
                            24 H    0.969
    15   1 H    0.985 --     1 C    0.956
    16   1 H    0.987 --     1 C    0.965
    17   1 H    0.980 --     1 C    0.960
    18   1 H    0.984 --     3 C    0.953
    19   1 H    0.988 --    10 C    0.970
    20   1 H    0.987 --    10 C    0.969
    21   1 H    0.987 --    10 C    0.969
    22   1 H    0.990 --    14 C    0.971
    23   1 H    0.990 --    14 C    0.971
    24   1 H    0.986 --    14 C    0.969
    25   1 H    0.948 --     4 N    0.920
 ---------------------------------------------------------------------------

molecular dipole:
                 x           y           z       tot (Debye)
 q only:        1.173      -2.639       0.025
   full:        1.318      -3.418       0.034       9.313

           -------------------------------------------------
          | TOTAL ENERGY              -42.222230248152 Eh   |
          | GRADIENT NORM               0.006622001667 Eh/α |
          | HOMO-LUMO GAP               2.805001516798 eV   |
           -------------------------------------------------

 * finished run on 2024/06/05 at 19:57:57.387
