   * xtb version 6.6.1 (8d0f1dd) compiled by 'conda@1efc2f54142f' on 2023-08-01
          program call               : xtb xtbopt.xyz --opt crude --input .xc2 --gfn2

   ID    Z sym.   atoms
    1    6 C      1, 3, 5-7, 10, 11, 14
    2    7 N      2, 4, 9, 13
    3    8 O      8, 12
    4    1 H      15-25

          :  Hamiltonian                  GFN2-xTB          :
 * total energy  :   -42.1106900 Eh     change       -0.1648459E-11 Eh
 * total energy  :   -42.1178173 Eh     change       -0.7127290E-02 Eh
 * total energy  :   -42.1465471 Eh     change       -0.2872979E-01 Eh
 * total energy  :   -42.2199682 Eh     change       -0.7342111E-01 Eh
 * total energy  :   -42.0809700 Eh     change        0.1389982E+00 Eh
 * total energy  :   -42.2411283 Eh     change       -0.1601583E+00 Eh
 * total energy  :   -42.2407669 Eh     change        0.3614585E-03 Eh
 * total energy  :   -42.2443522 Eh     change       -0.3585313E-02 Eh
 * total energy  :   -42.2417363 Eh     change        0.2615895E-02 Eh
 * total energy  :   -42.2463974 Eh     change       -0.4661122E-02 Eh
 * total energy  :   -42.2461783 Eh     change        0.2191000E-03 Eh
 * total energy  :   -42.2465518 Eh     change       -0.3735115E-03 Eh
 * total energy  :   -42.2470200 Eh     change       -0.4682233E-03 Eh
 * total energy  :   -42.2474337 Eh     change       -0.4136757E-03 Eh
   *** GEOMETRY OPTIMIZATION CONVERGED AFTER 14 ITERATIONS ***

 final structure:
================
25
 xtb: 6.6.1 (8d0f1dd)
C            3.19906535296339        1.13889802268617        0.07208004410005
N            2.27556703291453        0.05455468353332       -0.07221656747061
C            2.54764012960850       -1.23983922131222       -0.13594330025818
N            1.39639005146743       -1.95214985238477       -0.14025066951759
C            0.35647346259371       -1.07135574315092       -0.06894823127924
C            0.90917635151597        0.19762361976989       -0.03224174807414
C            0.08257656947902        1.39286500062344       -0.01818145035224
O            0.49102104467728        2.52788728572046       -0.04275546798551
N           -1.27009535915088        1.06248223045475        0.01515032857828
C           -2.22590596435160        2.16345240514632        0.04039352045563
C           -1.84302806921138       -0.19642840779050        0.04185137177991
O           -3.02692446022834       -0.36531993938013        0.10645893304198
N           -0.96362517986509       -1.30425700696669       -0.01836159521412
C           -1.51747790915822       -2.64336252469878        0.02932569118951
H            3.28330607471257        1.41679790573028        1.12787047403559
H            4.18350945457224        0.86287967336354       -0.30052199635604
H            2.82727513319873        2.01932505220599       -0.45975586027024
H            3.52853469068224       -1.66980411044847       -0.19013271764434
H           -1.66745034292981        3.09598600811935        0.02214913311720
H           -2.88468706049146        2.09991695498171       -0.82484587383705
H           -2.83397283180050        2.10292610057418        0.94222016303246
H           -1.12620677265623       -3.18501610109792        0.89093139806143
H           -1.29674799205033       -3.18618947215208       -0.88984483283043
H           -2.59775618146729       -2.54450567249821        0.13168353746171
H            1.33377428907894       -2.95912834943987       -0.19494266586376

          :  Hamiltonian                  GFN2-xTB          :
         :: total energy             -42.247433710198 Eh    ::
         :: gradient norm              0.007208199245 Eh/a0 ::
         :: HOMO-LUMO gap              3.310925566520 eV    ::
         :: SCC energy               -42.775813134949 Eh    ::
         :: -> dispersion             -0.022675552054 Eh    ::
         :: repulsion energy           0.528262768423 Eh    ::

    * Orbital Energies and Occupations

         #    Occupation            Energy/Eh            Energy/eV
      -------------------------------------------------------------
         1        2.0000           -0.9179002             -24.9773
       ...           ...                  ...                  ...
        25        2.0000           -0.6686396             -18.1946
        26        2.0000           -0.6651277             -18.0990
        27        1.9999           -0.6562417             -17.8572
        28        1.9999           -0.6398178             -17.4103
        29        1.9997           -0.6308936             -17.1675
        30        1.9996           -0.6251566             -17.0114
        31        1.9995           -0.6214608             -16.9108
        32        1.9994           -0.6179803             -16.8161
        33        1.9978           -0.5969425             -16.2436
        34        1.9928           -0.5782170             -15.7341
        35        1.9811           -0.5629053             -15.3174
        36        1.9763           -0.5592253             -15.2173
        37        1.9743           -0.5579427             -15.1824 (HOMO)
        38        0.0683           -0.4362684             -11.8715 (LUMO)
        39        0.0101           -0.4055890             -11.0366
        40        0.0013           -0.3728828             -10.1467
        41        0.0000           -0.2889560              -7.8629
        42                         -0.2062934              -5.6135
        43                         -0.1980581              -5.3894
        44                         -0.1447766              -3.9396
        45                         -0.1303382              -3.5467
        46                         -0.0847220              -2.3054
        47                         -0.0487177              -1.3257
        48                         -0.0340250              -0.9259
       ...                                ...                  ...
        67                          0.5594054              15.2222
      -------------------------------------------------------------
                  HL-Gap            0.1216743 Eh            3.3109 eV

     #   Z          covCN         q      C6AA      α(0)
     1   6 C        3.692    -0.092    22.443     6.779
     2   7 N        2.834     0.091    19.661     6.586
     3   6 C        3.059     0.052    26.774     8.486
     4   7 N        2.798    -0.059    22.384     7.027
     5   6 C        3.041     0.116    25.402     8.267
     6   6 C        3.130    -0.026    28.447     8.732
     7   6 C        2.764     0.273    22.377     7.747
     8   8 O        0.858    -0.361    20.923     6.133
     9   7 N        2.746    -0.085    22.888     7.105
    10   6 C        3.710    -0.062    21.839     6.679
    11   6 C        2.728     0.318    21.596     7.608
    12   8 O        0.859    -0.353    20.772     6.111
    13   7 N        2.738    -0.059    22.373     7.025
    14   6 C        3.696    -0.072    22.060     6.719
    15   1 H        0.924     0.116     1.646     2.007
    16   1 H        0.925     0.104     1.752     2.070
    17   1 H        0.924     0.135     1.500     1.915
    18   1 H        0.926     0.127     1.558     1.952
    19   1 H        0.925     0.113     1.668     2.019
    20   1 H        0.925     0.099     1.795     2.095
    21   1 H        0.925     0.100     1.786     2.090
    22   1 H        0.924     0.081     1.966     2.192
    23   1 H        0.925     0.084     1.942     2.179
    24   1 H        0.925     0.129     1.545     1.944
    25   1 H        0.860     0.231     0.959     1.534

Wiberg/Mayer (AO) data.
largest (>0.10) Wiberg bond orders for each atom

     #   Z sym  total        # sym  WBO       # sym  WBO       # sym  WBO
 ---------------------------------------------------------------------------
     1   6 C    3.917 --     2 N    0.990    16 H    0.972    17 H    0.956
                            15 H    0.948
     2   7 N    3.698 --     3 C    1.404     6 C    1.162     1 C    0.990
     3   6 C    3.870 --     2 N    1.404     4 N    1.270    18 H    0.952
     4   7 N    3.591 --     3 C    1.270     5 C    1.189    25 H    0.918
     5   6 C    3.952 --     6 C    1.355    13 N    1.221     4 N    1.189
     6   6 C    3.912 --     5 C    1.355     2 N    1.162     7 C    1.059
     7   6 C    3.952 --     8 O    1.696     9 N    1.107     6 C    1.059
     8   8 O    2.040 --     7 C    1.696     9 N    0.151
     9   7 N    3.556 --    11 C    1.123     7 C    1.107    10 C    0.968
                             8 O    0.151    12 O    0.136
    10   6 C    3.910 --     9 N    0.968    19 H    0.968    20 H    0.964
                            21 H    0.963
    11   6 C    3.957 --    12 O    1.714     9 N    1.123    13 N    1.029
    12   8 O    2.064 --    11 C    1.714     9 N    0.136    13 N    0.122
    13   7 N    3.552 --     5 C    1.221    11 C    1.029    14 C    0.974
                            12 O    0.122
    14   6 C    3.923 --    13 N    0.974    22 H    0.971    23 H    0.970
                            24 H    0.963
    15   1 H    0.984 --     1 C    0.948
    16   1 H    0.988 --     1 C    0.972
    17   1 H    0.981 --     1 C    0.956
    18   1 H    0.983 --     3 C    0.952
    19   1 H    0.985 --    10 C    0.968
    20   1 H    0.984 --    10 C    0.964
    21   1 H    0.984 --    10 C    0.963
    22   1 H    0.990 --    14 C    0.971
    23   1 H    0.989 --    14 C    0.970
    24   1 H    0.983 --    14 C    0.963
    25   1 H    0.946 --     4 N    0.918
 ---------------------------------------------------------------------------

molecular dipole:
                 x           y           z       tot (Debye)
 q only:        2.614      -1.997      -0.074
   full:        2.900      -2.513      -0.096       9.757

           -------------------------------------------------
          | TOTAL ENERGY              -42.247433710198 Eh   |
          | GRADIENT NORM               0.007208199245 Eh/α |
          | HOMO-LUMO GAP               3.310925566520 eV   |
           -------------------------------------------------

 * finished run on 2024/06/05 at 19:58:08.750
