   * xtb version 6.6.1 (8d0f1dd) compiled by 'conda@1efc2f54142f' on 2023-08-01
          program call               : xtb struc.xyz --opt loose --input .xc1 --gfn2

   ID    Z sym.   atoms
    1    6 C      1, 3, 5-7, 10, 11, 14
    2    7 N      2, 4, 9, 13
    3    8 O      8, 12
    4    1 H      15-25
constraining bond 5 15 to    4.7133300 Å, actual value:    4.1661194 Å

          :  Hamiltonian                  GFN2-xTB          :
 * total energy  :   -42.7825173 Eh     change       -0.6650680E-10 Eh
 * total energy  :   -44.9862781 Eh     change       -0.2203761E+01 Eh
 * total energy  :   -48.8503566 Eh     change       -0.3864079E+01 Eh
 * total energy  :   -54.5915888 Eh     change       -0.5741232E+01 Eh
 * total energy  :   -62.2654306 Eh     change       -0.7673842E+01 Eh
 * total energy  :   -71.1099378 Eh     change       -0.8844507E+01 Eh
 * total energy  :   -57.7386417 Eh     change        0.1337130E+02 Eh
 * total energy  :   -68.2373000 Eh     change       -0.1049866E+02 Eh
 * total energy  :   -68.7990205 Eh     change       -0.5617205E+00 Eh
 * total energy  :   -71.8913241 Eh     change       -0.3092304E+01 Eh
 * total energy  :   -73.3094459 Eh     change       -0.1270728E-03 Eh
 * total energy  :   -73.3098194 Eh     change       -0.3735010E-03 Eh
 * total energy  :   -73.3099591 Eh     change       -0.1397347E-03 Eh
 * total energy  :   -73.3101323 Eh     change       -0.1732003E-03 Eh
 * total energy  :   -73.3102820 Eh     change       -0.1497323E-03 Eh
 * total energy  :   -73.3103571 Eh     change       -0.7507520E-04 Eh
 * total energy  :   -73.3104427 Eh     change       -0.8556848E-04 Eh
 * total energy  :   -73.3104826 Eh     change       -0.3989933E-04 Eh
 * total energy  :   -73.3105267 Eh     change       -0.4409091E-04 Eh
   *** GEOMETRY OPTIMIZATION CONVERGED AFTER 85 ITERATIONS ***

 final structure:
================
25
 xtb: 6.6.1 (8d0f1dd)
C            2.38243421417314        0.00515496322864       -1.59347376274257
N            1.74214165546528        0.19218010382343       -0.50454092251162
C            2.06929518141647       -1.59129991572928        1.13012324390255
N            2.40754737922735       -2.30600723615771        0.16200389322168
C            1.78910629751691       -0.10075484138310        0.92844377494807
C            0.47463566342977        0.23765992845105        0.10157925455509
C           -0.14775462966763        1.61660769098938        0.42638820442137
O            0.46366370804061        2.59813822375708        0.72920683501707
N           -1.48312303828250        1.42381786088969        0.29817963831011
C           -2.48701800587258        2.43620007391814        0.53633926561136
C           -1.80324642796892        0.12488649374311       -0.11221488424686
O           -2.89132632644787       -0.30682392892882       -0.32456369697142
N           -0.60358494000070       -0.56872842771455       -0.25041490939543
C           -0.58917029970283       -1.95822136406840       -0.64501998812010
H            1.90901248677055        0.15163610914565        1.19101580300001
H            3.43266420793063       -0.24181260518067       -1.55598981006335
H            1.89031690447785        0.14188359008481       -2.54487328276603
H            1.99049322875480       -1.88783080640961        2.17796455658617
H           -2.03136486003597        3.41632368186290        0.41030329497925
H           -3.30250277693081        2.29361217817514       -0.17099118336840
H           -2.87961870389978        2.34737281754761        1.55061626998956
H           -0.61902391623690       -2.60882190817103        0.23015441671858
H            0.29874301702385       -2.17841047643373       -1.23304847876733
H           -1.48631786813148       -2.13854667229592       -1.23654511702503
H            2.63442936305797       -3.27997699154526        0.33052920261318

          :  Hamiltonian                  GFN2-xTB          :
         :: total energy             -73.310526669210 Eh    ::
         :: gradient norm              0.003940605373 Eh/a0 ::
         :: HOMO-LUMO gap              2.307205647128 eV    ::
         :: SCC energy               -42.655035170398 Eh    ::
         :: -> dispersion             -0.022741452014 Eh    ::
         :: repulsion energy           2.819436539811 Eh    ::

    * Orbital Energies and Occupations

         #    Occupation            Energy/Eh            Energy/eV
      -------------------------------------------------------------
         1        2.0000           -0.9271931             -25.2302
       ...           ...                  ...                  ...
        25        1.9999           -0.6809214             -18.5288
        26        1.9999           -0.6698087             -18.2264
        27        1.9997           -0.6578149             -17.9001
        28        1.9997           -0.6549776             -17.8228
        29        1.9995           -0.6486772             -17.6514
        30        1.9994           -0.6456189             -17.5682
        31        1.9988           -0.6330287             -17.2256
        32        1.9973           -0.6205103             -16.8849
        33        1.9903           -0.6002355             -16.3332
        34        1.9697           -0.5820428             -15.8382
        35        1.9679           -0.5811427             -15.8137
        36        1.9415           -0.5714079             -15.5488
        37        1.9146           -0.5651835             -15.3794 (HOMO)
        38        0.1915           -0.4803953             -13.0722 (LUMO)
        39        0.0277           -0.4484060             -12.2017
        40        0.0026           -0.4107433             -11.1769
        41        0.0000           -0.3466292              -9.4323
        42        0.0000           -0.3017993              -8.2124
        43                         -0.2071846              -5.6378
        44                         -0.1966955              -5.3524
        45                         -0.1713320              -4.6622
        46                         -0.1321024              -3.5947
        47                         -0.1199226              -3.2633
        48                         -0.0723330              -1.9683
       ...                                ...                  ...
        67                         14.1666403             385.4939
      -------------------------------------------------------------
                  HL-Gap            0.0847882 Eh            2.3072 eV

     #   Z          covCN         q      C6AA      α(0)
     1   6 C        2.764    -0.000    28.013     8.668
     2   7 N        2.735     0.072    19.983     6.639
     3   6 C        2.820     0.082    26.161     8.381
     4   7 N        1.775    -0.260    27.574     7.776
     5   6 C        3.784    -0.033    21.185     6.556
     6   6 C        3.850     0.104    18.838     6.173
     7   6 C        2.820     0.266    22.526     7.777
     8   8 O        0.857    -0.315    20.052     6.004
     9   7 N        2.777    -0.076    22.716     7.079
    10   6 C        3.691    -0.061    21.869     6.692
    11   6 C        2.804     0.324    21.503     7.597
    12   8 O        0.857    -0.323    20.195     6.025
    13   7 N        2.768    -0.103    23.257     7.162
    14   6 C        3.689    -0.065    21.938     6.703
    15   1 H        0.945     0.194     1.130     1.662
    16   1 H        0.926     0.154     1.365     1.827
    17   1 H        0.926     0.142     1.449     1.882
    18   1 H        0.924     0.078     1.996     2.209
    19   1 H        0.925     0.110     1.694     2.035
    20   1 H        0.925     0.112     1.677     2.025
    21   1 H        0.924     0.105     1.742     2.064
    22   1 H        0.924     0.085     1.931     2.173
    23   1 H        0.925     0.084     1.936     2.176
    24   1 H        0.925     0.119     1.622     1.992
    25   1 H        0.860     0.204     1.083     1.631

Wiberg/Mayer (AO) data.
largest (>0.10) Wiberg bond orders for each atom

     #   Z sym  total        # sym  WBO       # sym  WBO       # sym  WBO
 ---------------------------------------------------------------------------
     1   6 C    3.698 --     2 N    1.634    17 H    0.945    16 H    0.942
     2   7 N    3.592 --     1 C    1.634     6 C    0.943     5 C    0.914
     3   6 C    3.932 --     4 N    1.955     5 C    0.987    18 H    0.923
     4   7 N    3.010 --     3 C    1.955    25 H    0.921
     5   6 C    3.845 --     3 C    0.987    15 H    0.935     2 N    0.914
                             6 C    0.790
     6   6 C    3.908 --    13 N    1.075     2 N    0.943     7 C    0.882
                             5 C    0.790
     7   6 C    3.951 --     8 O    1.762     9 N    1.195     6 C    0.882
     8   8 O    2.101 --     7 C    1.762     9 N    0.168
     9   7 N    3.548 --     7 C    1.195    11 C    1.044    10 C    0.971
                             8 O    0.168    12 O    0.107
    10   6 C    3.899 --     9 N    0.971    19 H    0.968    20 H    0.964
                            21 H    0.955
    11   6 C    3.956 --    12 O    1.745    13 N    1.077     9 N    1.044
    12   8 O    2.085 --    11 C    1.745    13 N    0.137     9 N    0.107
    13   7 N    3.430 --    11 C    1.077     6 C    1.075    14 C    0.980
                            12 O    0.137
    14   6 C    3.921 --    13 N    0.980    23 H    0.970    24 H    0.964
                            22 H    0.963
    15   1 H    0.961 --     5 C    0.935
    16   1 H    0.973 --     1 C    0.942
    17   1 H    0.979 --     1 C    0.945
    18   1 H    0.974 --     3 C    0.923
    19   1 H    0.983 --    10 C    0.968
    20   1 H    0.980 --    10 C    0.964
    21   1 H    0.976 --    10 C    0.955
    22   1 H    0.982 --    14 C    0.963
    23   1 H    0.989 --    14 C    0.970
    24   1 H    0.982 --    14 C    0.964
    25   1 H    0.951 --     4 N    0.921
 ---------------------------------------------------------------------------

molecular dipole:
                 x           y           z       tot (Debye)
 q only:        1.793      -0.747      -0.408
   full:        2.020      -1.041      -0.166       5.792

           -------------------------------------------------
          | TOTAL ENERGY              -73.310526669210 Eh   |
          | GRADIENT NORM               0.003940605373 Eh/α |
          | HOMO-LUMO GAP               2.307205647128 eV   |
           -------------------------------------------------

 * finished run on 2024/06/05 at 19:58:09.340
