   * xtb version 6.6.1 (8d0f1dd) compiled by 'conda@1efc2f54142f' on 2023-08-01
          program call               : xtb xtbopt.xyz --opt crude --input .xc2 --gfn2

   ID    Z sym.   atoms
    1    6 C      1, 3, 5-7, 10, 11, 14
    2    7 N      2, 4, 9, 13
    3    8 O      8, 12
    4    1 H      15-25
########################################################################
[WARNING] Please study the warnings concerning your input carefully
-1- readin_getIntValue: could not parse ''
########################################################################

          :  Hamiltonian                  GFN2-xTB          :
 * total energy  :   -39.8353955 Eh     change       -0.1278977E-12 Eh
 * total energy  :   -42.0892260 Eh     change       -0.2253830E+01 Eh
 * total energy  :   -42.1107627 Eh     change       -0.2153665E-01 Eh
 * total energy  :   -42.1159954 Eh     change       -0.5232740E-02 Eh
 * total energy  :   -42.1170347 Eh     change       -0.1039254E-02 Eh
 * total energy  :   -42.1177604 Eh     change       -0.7257634E-03 Eh
 * total energy  :   -42.1185618 Eh     change       -0.8013515E-03 Eh
 * total energy  :   -42.1192242 Eh     change       -0.6624241E-03 Eh
 * total energy  :   -42.1196443 Eh     change       -0.4200876E-03 Eh
 * total energy  :   -42.1198880 Eh     change       -0.2437166E-03 Eh
   *** GEOMETRY OPTIMIZATION CONVERGED AFTER 10 ITERATIONS ***

 final structure:
================
25
 xtb: 6.6.1 (8d0f1dd)
C            2.33064635887238        0.02458104520699       -1.64542043358579
N            1.71200187570684        0.16135718206876       -0.53624020558949
C            2.11591793514769       -1.61469306812998        1.13821348227618
N            2.42803995262009       -2.37669402263623        0.19216758286712
C            1.74180794573176       -0.21405072339016        0.83049316845508
C            0.45283986245445        0.19158297811478        0.11151563176616
C           -0.15301131853732        1.56402464928137        0.48538154272733
O            0.46853927281089        2.50246007375702        0.88749779185727
N           -1.48056619578350        1.41879059944799        0.27333408811741
C           -2.47025393258116        2.44468370308740        0.51345749744836
C           -1.81855582786847        0.13749270932653       -0.18745130234286
O           -2.90878571951620       -0.25045614067907       -0.46506161347721
N           -0.63674670012172       -0.58640951237368       -0.27985893623895
C           -0.62714687855225       -1.97889277797899       -0.66282483055818
H            2.08926327413141        0.52178043637376        1.55192738232718
H            3.37742692175793       -0.24179793321611       -1.65194707097828
H            1.81323372209928        0.20902597929364       -2.57700242241972
H            2.10397947472480       -1.86807388988355        2.20146640821751
H           -2.00086774323104        3.41977882823159        0.39843576263119
H           -3.28142265886759        2.31811841015308       -0.20173563869448
H           -2.87122395239149        2.35489547935232        1.52449590181726
H           -0.57713580860702       -2.62382629436479        0.21707208817188
H            0.21912429603534       -2.19217146823776       -1.31518363257594
H           -1.56240745246516       -2.17480437374537       -1.18660439102207
H            2.69573481053739       -3.32846332746101        0.41504376669903

          :  Hamiltonian                  GFN2-xTB          :
         :: total energy             -42.119888002897 Eh    ::
         :: gradient norm              0.008387637130 Eh/a0 ::
         :: HOMO-LUMO gap              2.220584811778 eV    ::
         :: SCC energy               -42.650779668729 Eh    ::
         :: -> dispersion             -0.022575038912 Eh    ::
         :: repulsion energy           0.530679787700 Eh    ::

    * Orbital Energies and Occupations

         #    Occupation            Energy/Eh            Energy/eV
      -------------------------------------------------------------
         1        2.0000           -0.9181015             -24.9828
       ...           ...                  ...                  ...
        25        1.9999           -0.6793214             -18.4853
        26        1.9999           -0.6679657             -18.1763
        27        1.9997           -0.6547117             -17.8156
        28        1.9997           -0.6527234             -17.7615
        29        1.9996           -0.6472166             -17.6117
        30        1.9994           -0.6430430             -17.4981
        31        1.9987           -0.6296305             -17.1331
        32        1.9974           -0.6193602             -16.8536
        33        1.9904           -0.5983429             -16.2817
        34        1.9705           -0.5804780             -15.7956
        35        1.9686           -0.5794600             -15.7679
        36        1.9406           -0.5691450             -15.4872
        37        1.9042           -0.5612698             -15.2729 (HOMO)
        38        0.2060           -0.4796648             -13.0523 (LUMO)
        39        0.0228           -0.4432860             -12.0624
        40        0.0027           -0.4094083             -11.1406
        41        0.0000           -0.3443119              -9.3692
        42        0.0000           -0.2658870              -7.2352
        43                         -0.2038600              -5.5473
        44                         -0.1900653              -5.1719
        45                         -0.1563685              -4.2550
        46                         -0.1138973              -3.0993
        47                         -0.1006800              -2.7396
        48                         -0.0609407              -1.6583
       ...                                ...                  ...
        67                          0.5723833              15.5753
      -------------------------------------------------------------
                  HL-Gap            0.0816050 Eh            2.2206 eV

     #   Z          covCN         q      C6AA      α(0)
     1   6 C        2.764    -0.002    28.058     8.675
     2   7 N        2.731     0.093    19.639     6.582
     3   6 C        2.815     0.091    25.970     8.350
     4   7 N        1.782    -0.255    27.462     7.761
     5   6 C        3.800     0.017    20.291     6.414
     6   6 C        3.855     0.101    18.888     6.181
     7   6 C        2.819     0.266    22.510     7.774
     8   8 O        0.857    -0.322    20.189     6.024
     9   7 N        2.778    -0.077    22.727     7.080
    10   6 C        3.691    -0.061    21.858     6.690
    11   6 C        2.802     0.324    21.504     7.597
    12   8 O        0.857    -0.326    20.254     6.034
    13   7 N        2.768    -0.101    23.217     7.156
    14   6 C        3.689    -0.063    21.909     6.699
    15   1 H        0.925     0.133     1.513     1.924
    16   1 H        0.926     0.153     1.374     1.833
    17   1 H        0.925     0.141     1.455     1.886
    18   1 H        0.924     0.077     2.010     2.217
    19   1 H        0.925     0.108     1.709     2.045
    20   1 H        0.925     0.113     1.675     2.024
    21   1 H        0.924     0.104     1.752     2.070
    22   1 H        0.924     0.082     1.955     2.187
    23   1 H        0.925     0.083     1.945     2.181
    24   1 H        0.925     0.119     1.621     1.991
    25   1 H        0.860     0.202     1.096     1.640

Wiberg/Mayer (AO) data.
largest (>0.10) Wiberg bond orders for each atom

     #   Z sym  total        # sym  WBO       # sym  WBO       # sym  WBO
 ---------------------------------------------------------------------------
     1   6 C    3.683 --     2 N    1.634    17 H    0.947    16 H    0.941
     2   7 N    3.587 --     1 C    1.634     5 C    0.933     6 C    0.916
     3   6 C    3.935 --     4 N    1.944     5 C    1.015    18 H    0.925
     4   7 N    2.994 --     3 C    1.944    25 H    0.926
     5   6 C    3.888 --     3 C    1.015     2 N    0.933    15 H    0.927
                             6 C    0.836
     6   6 C    3.907 --    13 N    1.060     2 N    0.916     7 C    0.881
                             5 C    0.836
     7   6 C    3.952 --     8 O    1.756     9 N    1.205     6 C    0.881
     8   8 O    2.099 --     7 C    1.756     9 N    0.169
     9   7 N    3.550 --     7 C    1.205    11 C    1.036    10 C    0.972
                             8 O    0.169    12 O    0.105
    10   6 C    3.901 --     9 N    0.972    19 H    0.968    20 H    0.965
                            21 H    0.955
    11   6 C    3.956 --    12 O    1.742    13 N    1.090     9 N    1.036
    12   8 O    2.082 --    11 C    1.742    13 N    0.142     9 N    0.105
    13   7 N    3.425 --    11 C    1.090     6 C    1.060    14 C    0.981
                            12 O    0.142
    14   6 C    3.921 --    13 N    0.981    23 H    0.970    24 H    0.965
                            22 H    0.963
    15   1 H    0.977 --     5 C    0.927
    16   1 H    0.973 --     1 C    0.941
    17   1 H    0.979 --     1 C    0.947
    18   1 H    0.973 --     3 C    0.925
    19   1 H    0.983 --    10 C    0.968
    20   1 H    0.981 --    10 C    0.965
    21   1 H    0.977 --    10 C    0.955
    22   1 H    0.982 --    14 C    0.963
    23   1 H    0.988 --    14 C    0.970
    24   1 H    0.983 --    14 C    0.965
    25   1 H    0.952 --     4 N    0.926
 ---------------------------------------------------------------------------

molecular dipole:
                 x           y           z       tot (Debye)
 q only:        1.875      -0.722      -0.424
   full:        2.127      -0.921      -0.135       5.901

           -------------------------------------------------
          | TOTAL ENERGY              -42.119888002897 Eh   |
          | GRADIENT NORM               0.008387637130 Eh/α |
          | HOMO-LUMO GAP               2.220584811778 eV   |
           -------------------------------------------------

 * finished run on 2024/06/05 at 19:58:09.761
