   * xtb version 6.6.1 (8d0f1dd) compiled by 'conda@1efc2f54142f' on 2023-08-01
          program call               : xtb struc.xyz --opt loose --input .xc1 --gfn2

   ID    Z sym.   atoms
    1    6 C      1, 3, 5-7, 10, 11, 14
    2    7 N      2, 4, 9, 13
    3    8 O      8, 12
    4    1 H      15-25
constraining bond 10 11 to    5.0000000 Å, actual value:    2.3893559 Å

          :  Hamiltonian                  GFN2-xTB          :
 * total energy  :   -30.0908233 Eh     change       -0.2401990E-09 Eh
 * total energy  :   -34.4498542 Eh     change       -0.4359031E+01 Eh
 * total energy  :   -37.8616034 Eh     change       -0.3411749E+01 Eh
 * total energy  :   -40.0819984 Eh     change       -0.2220395E+01 Eh
 * total energy  :   -41.2871525 Eh     change       -0.1205154E+01 Eh
 * total energy  :   -41.6164314 Eh     change       -0.3292789E+00 Eh
 * total energy  :   -41.6628235 Eh     change       -0.4639214E-01 Eh
 * total energy  :   -41.6899234 Eh     change       -0.2709985E-01 Eh
 * total energy  :   -41.7131881 Eh     change       -0.2326469E-01 Eh
 * total energy  :   -41.7467199 Eh     change       -0.3353183E-01 Eh
 * total energy  :   -42.1524059 Eh     change       -0.1460521E-03 Eh
 * total energy  :   -42.1525635 Eh     change       -0.1576029E-03 Eh
 * total energy  :   -42.1526362 Eh     change       -0.7265986E-04 Eh
 * total energy  :   -42.1527336 Eh     change       -0.9735185E-04 Eh
 * total energy  :   -42.1528050 Eh     change       -0.7144353E-04 Eh
 * total energy  :   -42.1528969 Eh     change       -0.9192126E-04 Eh
 * total energy  :   -42.1529669 Eh     change       -0.6995312E-04 Eh
 * total energy  :   -42.1530174 Eh     change       -0.5056184E-04 Eh
 * total energy  :   -42.1530631 Eh     change       -0.4563873E-04 Eh
   *** GEOMETRY OPTIMIZATION CONVERGED AFTER 108 ITERATIONS ***

 final structure:
================
25
 xtb: 6.6.1 (8d0f1dd)
C            3.03158435809248        1.15279967846921       -0.03951922322438
N            2.13500957122451        0.05084706568953        0.17865198798513
C            2.51881636205689       -1.18725820732675        0.49420800132341
N            1.43612940565904       -1.97921249341607        0.56982776615476
C            0.32138098165872       -1.21975780202751        0.28720336082132
C            0.76323711928409        0.07646543366426        0.04904997839692
C           -0.01250551487124        1.33239749482281       -0.16014741626101
O            0.54555975405549        2.42736920747332       -0.02585622649190
N           -1.28369652759425        1.12562295837542       -0.44773643314637
C           -2.18339960920849        2.19981527549866       -0.63614424977194
C           -1.34009326402142       -2.21971721057642        1.54468376178193
O           -1.12917792405844       -2.52674165377088        2.65461605254083
N           -0.97113645099533       -1.77338315602161        0.38890247361877
C           -1.86326752740636       -1.74124193147270       -0.76583424519631
H            2.57435815534195        2.07136809874842        0.33288824147473
H            3.97556984468526        0.96340779302686        0.46667144734562
H            3.21398643195412        1.28308054682699       -1.10855550808011
H            3.52818737145161       -1.49938366655987        0.66859869968719
H           -1.80304885327085        3.13562308786075       -0.20939733393543
H           -2.36164181806019        2.35328150818544       -1.70677436394592
H           -3.13853696625858        1.94062318177514       -0.17195867800693
H           -1.45405974219493       -2.36322601290107       -1.56188446189043
H           -1.94382863229811       -0.70512263627987       -1.10537970087971
H           -2.83935044204917       -2.11897050843304       -0.47484728042672
H            1.44035543092742       -2.96044751002660        0.80990496802926

          :  Hamiltonian                  GFN2-xTB          :
         :: total energy             -42.153063079781 Eh    ::
         :: gradient norm              0.002340082356 Eh/a0 ::
         :: HOMO-LUMO gap              1.587246497713 eV    ::
         :: SCC energy               -42.680534853231 Eh    ::
         :: -> dispersion             -0.021831318544 Eh    ::
         :: repulsion energy           0.527251200478 Eh    ::

    * Orbital Energies and Occupations

         #    Occupation            Energy/Eh            Energy/eV
      -------------------------------------------------------------
         1        2.0000           -0.9141010             -24.8740
       ...           ...                  ...                  ...
        25        1.9993           -0.6701456             -18.2356
        26        1.9993           -0.6669891             -18.1497
        27        1.9982           -0.6462937             -17.5865
        28        1.9973           -0.6366910             -17.3252
        29        1.9963           -0.6287808             -17.1100
        30        1.9940           -0.6176345             -16.8067
        31        1.9915           -0.6092503             -16.5785
        32        1.9895           -0.6041822             -16.4406
        33        1.9882           -0.6013776             -16.3643
        34        1.9696           -0.5786559             -15.7460
        35        1.8780           -0.5445373             -14.8176
        36        1.6830           -0.5192476             -14.1294
        37        1.6647           -0.5176542             -14.0861 (HOMO)
        38        0.5974           -0.4593240             -12.4988 (LUMO)
        39        0.1326           -0.4167658             -11.3408
        40        0.0966           -0.4087844             -11.1236
        41        0.0257           -0.3765161             -10.2455
        42        0.0009           -0.2962214              -8.0606
        43        0.0000           -0.2094967              -5.7007
        44        0.0000           -0.1838753              -5.0035
        45        0.0000           -0.1327902              -3.6134
        46                         -0.0714146              -1.9433
        47                         -0.0522298              -1.4212
        48                         -0.0359399              -0.9780
       ...                                ...                  ...
        67                          0.7530173              20.4906
      -------------------------------------------------------------
                  HL-Gap            0.0583302 Eh            1.5872 eV

     #   Z          covCN         q      C6AA      α(0)
     1   6 C        3.692    -0.091    22.421     6.775
     2   7 N        2.844     0.077    19.907     6.627
     3   6 C        3.019     0.049    26.882     8.505
     4   7 N        2.792    -0.061    22.413     7.031
     5   6 C        3.050     0.082    26.118     8.382
     6   6 C        3.075     0.008    27.756     8.638
     7   6 C        2.764     0.279    22.278     7.730
     8   8 O        0.858    -0.394    21.559     6.225
     9   7 N        1.833    -0.252    27.420     7.760
    10   6 C        3.700    -0.026    21.198     6.584
    11   6 C        1.828     0.252    25.342     8.133
    12   8 O        0.856    -0.171    17.602     5.625
    13   7 N        2.728     0.013    21.020     6.809
    14   6 C        3.699    -0.091    22.410     6.770
    15   1 H        0.924     0.148     1.406     1.855
    16   1 H        0.925     0.099     1.793     2.094
    17   1 H        0.924     0.111     1.686     2.030
    18   1 H        0.926     0.122     1.594     1.974
    19   1 H        0.924     0.098     1.808     2.103
    20   1 H        0.924     0.096     1.821     2.110
    21   1 H        0.924     0.090     1.874     2.141
    22   1 H        0.925     0.099     1.795     2.095
    23   1 H        0.924     0.129     1.543     1.942
    24   1 H        0.925     0.107     1.722     2.052
    25   1 H        0.860     0.225     0.986     1.555

Wiberg/Mayer (AO) data.
largest (>0.10) Wiberg bond orders for each atom

     #   Z sym  total        # sym  WBO       # sym  WBO       # sym  WBO
 ---------------------------------------------------------------------------
     1   6 C    3.897 --     2 N    0.989    16 H    0.969    17 H    0.949
                            15 H    0.938
     2   7 N    3.644 --     3 C    1.345     6 C    1.176     1 C    0.989
     3   6 C    3.791 --     2 N    1.345     4 N    1.292    18 H    0.952
     4   7 N    3.545 --     3 C    1.292     5 C    1.166    25 H    0.921
     5   6 C    3.791 --     6 C    1.414     4 N    1.166    13 N    0.992
     6   6 C    3.815 --     5 C    1.414     2 N    1.176     7 C    0.984
     7   6 C    3.905 --     8 O    1.513     9 N    1.349     6 C    0.984
     8   8 O    1.744 --     7 C    1.513     9 N    0.130
     9   7 N    2.636 --     7 C    1.349    10 C    1.071     8 O    0.130
    10   6 C    3.874 --     9 N    1.071    21 H    0.935    19 H    0.923
                            20 H    0.917
    11   6 C    3.426 --    12 O    1.961    13 N    1.377
    12   8 O    2.184 --    11 C    1.961    13 N    0.169
    13   7 N    3.537 --    11 C    1.377     5 C    0.992    14 C    0.945
                            12 O    0.169
    14   6 C    3.872 --    24 H    0.973    22 H    0.967    13 N    0.945
                            23 H    0.935
    15   1 H    0.971 --     1 C    0.938
    16   1 H    0.985 --     1 C    0.969
    17   1 H    0.979 --     1 C    0.949
    18   1 H    0.984 --     3 C    0.952
    19   1 H    0.930 --    10 C    0.923
    20   1 H    0.936 --    10 C    0.917
    21   1 H    0.950 --    10 C    0.935
    22   1 H    0.985 --    14 C    0.967
    23   1 H    0.978 --    14 C    0.935
    24   1 H    0.985 --    14 C    0.973
    25   1 H    0.948 --     4 N    0.921
 ---------------------------------------------------------------------------

molecular dipole:
                 x           y           z       tot (Debye)
 q only:        1.200      -2.278      -0.332
   full:        1.319      -2.481      -0.265       7.173

           -------------------------------------------------
          | TOTAL ENERGY              -42.153063079781 Eh   |
          | GRADIENT NORM               0.002340082356 Eh/α |
          | HOMO-LUMO GAP               1.587246497713 eV   |
           -------------------------------------------------

 * finished run on 2024/06/05 at 19:58:54.220
