   * xtb version 6.6.1 (8d0f1dd) compiled by 'conda@1efc2f54142f' on 2023-08-01
          program call               : xtb struc.xyz --opt loose --input .xc1 --gfn2

   ID    Z sym.   atoms
    1    6 C      1, 3, 5-7, 10, 11, 14
    2    7 N      2, 4, 9, 13
    3    8 O      8, 12
    4    1 H      15-25
constraining bond 4 6 to    4.9200000 Å, actual value:    2.2058558 Å

          :  Hamiltonian                  GFN2-xTB          :
 * total energy  :   -29.0945960 Eh     change       -0.6650680E-10 Eh
 * total energy  :   -33.5674750 Eh     change       -0.4472879E+01 Eh
 * total energy  :   -36.6731742 Eh     change       -0.3105699E+01 Eh
 * total energy  :   -38.9729551 Eh     change       -0.2299781E+01 Eh
 * total energy  :   -40.7252066 Eh     change       -0.1752251E+01 Eh
 * total energy  :   -41.3834563 Eh     change       -0.6582497E+00 Eh
 * total energy  :   -41.4947134 Eh     change       -0.1112572E+00 Eh
 * total energy  :   -41.5418636 Eh     change       -0.4715020E-01 Eh
 * total energy  :   -41.5599439 Eh     change       -0.1808029E-01 Eh
 * total energy  :   -41.5698196 Eh     change       -0.9875681E-02 Eh
 * total energy  :   -41.9252005 Eh     change       -0.1673266E-03 Eh
 * total energy  :   -41.9253552 Eh     change       -0.1547262E-03 Eh
 * total energy  :   -41.9255110 Eh     change       -0.1557656E-03 Eh
 * total energy  :   -41.9256797 Eh     change       -0.1687203E-03 Eh
 * total energy  :   -41.9258539 Eh     change       -0.1741974E-03 Eh
 * total energy  :   -41.9260089 Eh     change       -0.1549739E-03 Eh
 * total energy  :   -41.9261261 Eh     change       -0.1172714E-03 Eh
 * total energy  :   -41.9261837 Eh     change       -0.5760068E-04 Eh
 * total energy  :   -41.9262317 Eh     change       -0.4795295E-04 Eh
   *** GEOMETRY OPTIMIZATION CONVERGED AFTER 84 ITERATIONS ***

 final structure:
================
25
 xtb: 6.6.1 (8d0f1dd)
C            4.96934651790057        0.15166812987830        0.20457805690919
N            3.65690866600565       -0.24389467188538       -0.01272109390480
C            3.17113358161359       -1.40754312523984       -0.34673435289894
N            1.95771906732241       -1.75536706129639       -0.51862988382336
C           -0.39071773699637       -0.11224416531251       -0.15326589258287
C           -0.35201413437150        2.52217172519199        0.22802246148025
C           -0.98783799163568        1.21090131629275       -0.17217210825750
O           -0.52651060542195        2.28099769465201       -0.99365508058295
N           -2.39231968260634        1.03611014287678       -0.01779850076471
C           -3.36183968447086        2.09780156570722        0.02411038902400
C           -2.65241868093130       -0.27910811232782        0.18220510834331
O           -3.68442160189290       -0.83841923999196        0.39416973833377
N           -1.36251854749473       -0.94402089222954        0.08541192700479
C           -1.28385290140093       -2.36980932113826        0.24408306248671
H            5.03559125776090        0.62228112023336        1.19363538656400
H            5.70260342385662       -0.66569388003424        0.14792686364017
H            5.23968222544363        0.92346708868849       -0.52706183201775
H            3.88965287487003       -2.23394842796362       -0.50745173834418
H           -3.02251589529029        2.88456591995040        0.70129671186827
H           -3.51153885958680        2.52057223369556       -0.97223625889520
H           -4.30262158443263        1.68127606942281        0.38232842806688
H           -0.83324377113927       -2.61581022983578        1.20663301769789
H           -0.67719579872244       -2.80658577401264       -0.54834301315969
H           -2.29771395419524       -2.76976942113869        0.21263466900954
H            1.17707532992155       -1.07136014258641       -0.40579444729800

          :  Hamiltonian                  GFN2-xTB          :
         :: total energy             -41.926231683611 Eh    ::
         :: gradient norm              0.003643744435 Eh/a0 ::
         :: HOMO-LUMO gap              0.187217049026 eV    ::
         :: SCC energy               -42.412655915194 Eh    ::
         :: -> dispersion             -0.018308928553 Eh    ::
         :: repulsion energy           0.486400172562 Eh    ::

    * Orbital Energies and Occupations

         #    Occupation            Energy/Eh            Energy/eV
      -------------------------------------------------------------
         1        2.0000           -0.9462512             -25.7488
       ...           ...                  ...                  ...
        25        1.9998           -0.6708313             -18.2542
        26        1.9991           -0.6462426             -17.5852
        27        1.9979           -0.6321279             -17.2011
        28        1.9973           -0.6282648             -17.0960
        29        1.9971           -0.6270848             -17.0638
        30        1.9963           -0.6229690             -16.9518
        31        1.9950           -0.6181379             -16.8204
        32        1.9893           -0.6061928             -16.4953
        33        1.9810           -0.5970474             -16.2465
        34        1.8739           -0.5661905             -15.4068
        35        1.8299           -0.5610726             -15.2676
        36        1.6877           -0.5501705             -14.9709
        37        1.3790           -0.5360902             -14.5878 (HOMO)
        38        1.1797           -0.5292101             -14.4005 (LUMO)
        39        0.0728           -0.4715865             -12.8325
        40        0.0247           -0.4541028             -12.3568
        41        0.0000           -0.3554924              -9.6734
        42        0.0000           -0.3547202              -9.6524
        43                         -0.2307061              -6.2778
        44                         -0.1949081              -5.3037
        45                         -0.1639094              -4.4602
        46                         -0.0946577              -2.5758
        47                         -0.0635546              -1.7294
        48                         -0.0535375              -1.4568
       ...                                ...                  ...
        67                          0.5646713              15.3655
      -------------------------------------------------------------
                  HL-Gap            0.0068801 Eh            0.1872 eV

     #   Z          covCN         q      C6AA      α(0)
     1   6 C        3.689    -0.045    21.581     6.649
     2   7 N        1.827    -0.119    24.351     7.312
     3   6 C        2.752     0.150    24.735     8.144
     4   7 N        1.775    -0.226    26.752     7.659
     5   6 C        1.978    -0.089    33.492     9.346
     6   6 C        1.832     0.018    30.691     8.950
     7   6 C        3.869     0.210    17.277     5.911
     8   8 O        1.704    -0.051    15.163     5.257
     9   7 N        2.777    -0.083    22.863     7.102
    10   6 C        3.688    -0.053    21.734     6.673
    11   6 C        2.822     0.318    21.609     7.617
    12   8 O        0.857    -0.318    20.102     6.011
    13   7 N        2.828     0.023    20.851     6.782
    14   6 C        3.693    -0.080    22.209     6.743
    15   1 H        0.924     0.127     1.559     1.953
    16   1 H        0.923     0.101     1.772     2.082
    17   1 H        0.924     0.127     1.561     1.954
    18   1 H        0.922     0.122     1.601     1.979
    19   1 H        0.924     0.096     1.819     2.109
    20   1 H        0.924     0.099     1.790     2.092
    21   1 H        0.925     0.116     1.648     2.007
    22   1 H        0.924     0.111     1.684     2.029
    23   1 H        0.925     0.117     1.637     2.001
    24   1 H        0.924     0.120     1.610     1.984
    25   1 H        0.858     0.209     1.060     1.613

Wiberg/Mayer (AO) data.
largest (>0.10) Wiberg bond orders for each atom

     #   Z sym  total        # sym  WBO       # sym  WBO       # sym  WBO
 ---------------------------------------------------------------------------
     1   6 C    3.872 --     2 N    1.118    16 H    0.914    15 H    0.904
                            17 H    0.901
     2   7 N    2.611 --     3 C    1.403     1 C    1.118
     3   6 C    3.921 --     4 N    1.629     2 N    1.403    18 H    0.840
     4   7 N    2.571 --     3 C    1.629    25 H    0.802
     5   6 C    3.049 --    13 N    1.559     7 C    1.089    25 H    0.110
     6   6 C    2.504 --     8 O    1.571     7 C    0.786
     7   6 C    3.776 --     5 C    1.089     9 N    0.999     8 O    0.825
                             6 C    0.786
     8   8 O    2.496 --     6 C    1.571     7 C    0.825
     9   7 N    3.436 --    11 C    1.189     7 C    0.999    10 C    0.987
                            12 O    0.155
    10   6 C    3.905 --     9 N    0.987    21 H    0.964    19 H    0.957
                            20 H    0.953
    11   6 C    3.932 --    12 O    1.721     9 N    1.189    13 N    0.927
    12   8 O    2.032 --    11 C    1.721     9 N    0.155
    13   7 N    3.661 --     5 C    1.559    14 C    0.990    11 C    0.927
    14   6 C    3.908 --    13 N    0.990    24 H    0.964    23 H    0.955
                            22 H    0.948
    15   1 H    0.924 --     1 C    0.904
    16   1 H    0.919 --     1 C    0.914
    17   1 H    0.922 --     1 C    0.901
    18   1 H    0.860 --     3 C    0.840
    19   1 H    0.976 --    10 C    0.957
    20   1 H    0.970 --    10 C    0.953
    21   1 H    0.979 --    10 C    0.964
    22   1 H    0.980 --    14 C    0.948
    23   1 H    0.978 --    14 C    0.955
    24   1 H    0.982 --    14 C    0.964
    25   1 H    0.934 --     4 N    0.802     5 C    0.110
 ---------------------------------------------------------------------------

molecular dipole:
                 x           y           z       tot (Debye)
 q only:        1.912      -0.097       0.132
   full:        1.966       0.065      -0.235       5.035

           -------------------------------------------------
          | TOTAL ENERGY              -41.926231683611 Eh   |
          | GRADIENT NORM               0.003643744435 Eh/α |
          | HOMO-LUMO GAP               0.187217049026 eV   |
           -------------------------------------------------

 * finished run on 2024/06/05 at 19:57:56.872
