   * xtb version 6.6.1 (8d0f1dd) compiled by 'conda@1efc2f54142f' on 2023-08-01
          program call               : xtb struc.xyz --opt loose --input .xc1 --gfn2

   ID    Z sym.   atoms
    1    6 C      1, 3, 5-7, 10, 11, 14
    2    7 N      2, 4, 9, 13
    3    8 O      8, 12
    4    1 H      15-25
constraining bond 4 18 to    4.0600000 Å, actual value:    2.1494719 Å

          :  Hamiltonian                  GFN2-xTB          :
 * total energy  :   -16.1782507 Eh     change       -0.6650680E-10 Eh
 * total energy  :   -30.9898675 Eh     change       -0.1481162E+02 Eh
 * total energy  :   -38.4348120 Eh     change       -0.7444944E+01 Eh
 * total energy  :   -41.4105503 Eh     change       -0.2975738E+01 Eh
 * total energy  :   -41.8903116 Eh     change       -0.4797613E+00 Eh
 * total energy  :   -41.9109372 Eh     change       -0.2062558E-01 Eh
 * total energy  :   -41.9217417 Eh     change       -0.1080452E-01 Eh
 * total energy  :   -41.9314389 Eh     change       -0.9697185E-02 Eh
 * total energy  :   -41.9434186 Eh     change       -0.1197972E-01 Eh
 * total energy  :   -41.9542675 Eh     change       -0.1084891E-01 Eh
 * total energy  :   -42.0363522 Eh     change       -0.5563897E-02 Eh
 * total energy  :   -42.0400348 Eh     change       -0.3682634E-02 Eh
 * total energy  :   -42.0435970 Eh     change       -0.3562161E-02 Eh
 * total energy  :   -42.0594874 Eh     change       -0.1589041E-01 Eh
 * total energy  :   -42.0687473 Eh     change       -0.9259887E-02 Eh
 * total energy  :   -42.0719271 Eh     change       -0.3179811E-02 Eh
 * total energy  :   -42.0730940 Eh     change       -0.1166915E-02 Eh
 * total energy  :   -42.0733535 Eh     change       -0.2595309E-03 Eh
 * total energy  :   -42.0734034 Eh     change       -0.4993030E-04 Eh
   *** GEOMETRY OPTIMIZATION CONVERGED AFTER 27 ITERATIONS ***

 final structure:
================
25
 xtb: 6.6.1 (8d0f1dd)
C            3.06451826456089        1.25353174844575        0.02140282874474
N            2.37029880162418       -0.04949719952711       -0.00755701516918
C            3.21777819074480       -1.01971120166418       -0.01659185079286
N            0.68397472843611       -2.60712537032534       -0.00980754396352
C            0.24405918996841       -1.40287794696920       -0.00398008142421
C            0.97194389853621       -0.13105562517544       -0.00339643000672
C            0.17560069850289        1.09420824537311       -0.00914622246900
O            0.62562609276126        2.23488733660901       -0.02497114926183
N           -1.19920404332274        0.96639857578789        0.00068534830491
C           -2.01283455397760        2.16840876382587       -0.00102457820206
C           -1.90618190177307       -0.21897252228145        0.00638955021747
O           -3.11017499340882       -0.23787258846701        0.01301962110398
N           -1.13841587793870       -1.35822970312836        0.00212272217762
C           -1.83786365372983       -2.62504306730667        0.00044429529290
H            3.53174295813794        1.39458532628650        0.99697521322696
H            3.82525990572319        1.28404332249626       -0.75776801309630
H            2.36209792086383        2.07506566190058       -0.14441868250059
H            4.31001173216925       -0.78749410146518       -0.01097046231624
H           -1.36162126044093        3.03974817788073        0.00636419401104
H           -2.65006218477405        2.17682529012784       -0.88734210020733
H           -2.66255795453944        2.16936226133584        0.87599525506261
H           -1.55612690293549       -3.20910075670333        0.87737473153175
H           -1.56840858685082       -3.19982764654547       -0.88657253407329
H           -2.90810808961426       -2.42422155496571        0.00869473976649
H            1.68907913537690       -2.76779688394478       -0.01475021805744

          :  Hamiltonian                  GFN2-xTB          :
         :: total energy             -42.073403444020 Eh    ::
         :: gradient norm              0.002347791097 Eh/a0 ::
         :: HOMO-LUMO gap              0.370507853088 eV    ::
         :: SCC energy               -42.569015864024 Eh    ::
         :: -> dispersion             -0.022235389026 Eh    ::
         :: repulsion energy           0.495433865972 Eh    ::

    * Orbital Energies and Occupations

         #    Occupation            Energy/Eh            Energy/eV
      -------------------------------------------------------------
         1        2.0000           -0.8955439             -24.3690
       ...           ...                  ...                  ...
        25        1.9997           -0.6768963             -18.4193
        26        1.9989           -0.6566500             -17.8684
        27        1.9983           -0.6502907             -17.6953
        28        1.9976           -0.6451745             -17.5561
        29        1.9949           -0.6327823             -17.2189
        30        1.9911           -0.6240827             -16.9822
        31        1.9888           -0.6203928             -16.8817
        32        1.9475           -0.5955856             -16.2067
        33        1.9153           -0.5877656             -15.9939
        34        1.8872           -0.5829904             -15.8640
        35        1.8317           -0.5761818             -15.6787
        36        1.8134           -0.5743881             -15.6299
        37        1.5032           -0.5559123             -15.1271 (HOMO)
        38        1.1230           -0.5422964             -14.7566 (LUMO)
        39        0.0097           -0.4540789             -12.3561
        40        0.0005           -0.4074878             -11.0883
        41        0.0001           -0.3859526             -10.5023
        42        0.0000           -0.3028811              -8.2418
        43                         -0.2282972              -6.2123
        44                         -0.1763211              -4.7979
        45                         -0.1491469              -4.0585
        46                         -0.1164647              -3.1692
        47                         -0.0695990              -1.8939
        48                         -0.0524782              -1.4280
       ...                                ...                  ...
        67                          0.5076706              13.8144
      -------------------------------------------------------------
                  HL-Gap            0.0136159 Eh            0.3705 eV

     #   Z          covCN         q      C6AA      α(0)
     1   6 C        3.751    -0.101    22.486     6.763
     2   7 N        2.728     0.135    18.951     6.465
     3   6 C        1.913    -0.065    32.859     9.258
     4   7 N        1.810    -0.245    27.223     7.730
     5   6 C        2.825     0.160    24.532     8.116
     6   6 C        2.892    -0.020    28.497     8.752
     7   6 C        2.767     0.265    22.523     7.772
     8   8 O        0.861    -0.358    20.860     6.124
     9   7 N        2.745    -0.059    22.391     7.028
    10   6 C        3.710    -0.063    21.850     6.680
    11   6 C        2.724     0.320    21.565     7.602
    12   8 O        0.860    -0.332    20.376     6.052
    13   7 N        2.777    -0.030    21.825     6.938
    14   6 C        3.711    -0.076    22.093     6.717
    15   1 H        0.924     0.112     1.679     2.027
    16   1 H        0.925     0.110     1.696     2.037
    17   1 H        0.924     0.173     1.247     1.746
    18   1 H        0.920     0.137     1.483     1.905
    19   1 H        0.925     0.125     1.574     1.962
    20   1 H        0.924     0.118     1.633     1.999
    21   1 H        0.924     0.118     1.631     1.997
    22   1 H        0.924     0.121     1.602     1.979
    23   1 H        0.924     0.121     1.602     1.979
    24   1 H        0.925     0.129     1.541     1.941
    25   1 H        0.860     0.204     1.085     1.632

Wiberg/Mayer (AO) data.
largest (>0.10) Wiberg bond orders for each atom

     #   Z sym  total        # sym  WBO       # sym  WBO       # sym  WBO
 ---------------------------------------------------------------------------
     1   6 C    3.788 --    16 H    0.959    15 H    0.957     2 N    0.923
                            17 H    0.874
     2   7 N    3.727 --     3 C    1.622     6 C    1.135     1 C    0.923
     3   6 C    2.794 --     2 N    1.622    18 H    0.907
     4   7 N    2.749 --     5 C    1.618    25 H    0.900
     5   6 C    3.956 --     4 N    1.618    13 N    1.126     6 C    1.111
     6   6 C    3.597 --     2 N    1.135     7 C    1.116     5 C    1.111
     7   6 C    3.937 --     8 O    1.583     9 N    1.131     6 C    1.116
     8   8 O    1.923 --     7 C    1.583     9 N    0.111
     9   7 N    3.483 --     7 C    1.131    11 C    1.090    10 C    0.979
                             8 O    0.111    12 O    0.105
    10   6 C    3.861 --     9 N    0.979    19 H    0.956    21 H    0.941
                            20 H    0.941
    11   6 C    3.957 --    12 O    1.668    13 N    1.114     9 N    1.090
    12   8 O    1.970 --    11 C    1.668    13 N    0.112     9 N    0.105
    13   7 N    3.485 --     5 C    1.126    11 C    1.114    14 C    0.984
                            12 O    0.112
    14   6 C    3.860 --    13 N    0.984    24 H    0.954    22 H    0.938
                            23 H    0.938
    15   1 H    0.982 --     1 C    0.957
    16   1 H    0.981 --     1 C    0.959
    17   1 H    0.939 --     1 C    0.874
    18   1 H    0.935 --     3 C    0.907
    19   1 H    0.976 --    10 C    0.956
    20   1 H    0.958 --    10 C    0.941
    21   1 H    0.959 --    10 C    0.941
    22   1 H    0.956 --    14 C    0.938
    23   1 H    0.956 --    14 C    0.938
    24   1 H    0.974 --    14 C    0.954
    25   1 H    0.948 --     4 N    0.900
 ---------------------------------------------------------------------------

molecular dipole:
                 x           y           z       tot (Debye)
 q only:        1.671      -0.609       0.005
   full:        2.157      -0.359       0.015       5.559

           -------------------------------------------------
          | TOTAL ENERGY              -42.073403444020 Eh   |
          | GRADIENT NORM               0.002347791097 Eh/α |
          | HOMO-LUMO GAP               0.370507853088 eV   |
           -------------------------------------------------

 * finished run on 2024/06/05 at 20:00:10.338
