   * xtb version 6.6.1 (8d0f1dd) compiled by 'conda@1efc2f54142f' on 2023-08-01
          program call               : xtb xtbopt.xyz --opt crude --input .xc2 --gfn2

   ID    Z sym.   atoms
    1    6 C      1, 3, 5-7, 10, 11, 14
    2    7 N      2, 4, 9, 13
    3    8 O      8, 12
    4    1 H      15-25
########################################################################
[WARNING] Please study the warnings concerning your input carefully
-1- readin_getIntValue: could not parse ''
########################################################################

          :  Hamiltonian                  GFN2-xTB          :
 * total energy  :   -42.0734679 Eh     change       -0.1065814E-12 Eh
 * total energy  :   -42.0827019 Eh     change       -0.9233909E-02 Eh
 * total energy  :   -42.0915150 Eh     change       -0.8813115E-02 Eh
 * total energy  :   -42.0953320 Eh     change       -0.3817077E-02 Eh
 * total energy  :   -42.0969041 Eh     change       -0.1572016E-02 Eh
 * total energy  :   -42.0976620 Eh     change       -0.7579172E-03 Eh
 * total energy  :   -42.0978969 Eh     change       -0.2348906E-03 Eh
 * total energy  :   -42.0980818 Eh     change       -0.1849768E-03 Eh
   *** GEOMETRY OPTIMIZATION CONVERGED AFTER 8 ITERATIONS ***

 final structure:
================
25
 xtb: 6.6.1 (8d0f1dd)
C            3.11393629845876        1.14209813455435        0.02706663861831
N            2.27478195645315       -0.05076722596223       -0.00914157364665
C            2.86323030788397       -1.19775526458028       -0.03110651884123
N            0.93771808681116       -2.36785850427049       -0.01410564318722
C            0.26335992748441       -1.27420183424867       -0.00357344949725
C            0.90836927632279        0.01553979026414       -0.00121064484814
C            0.12055555391673        1.23202848397871       -0.01414471332313
O            0.57862380641855        2.35861222150739       -0.03923858414053
N           -1.25093205465288        1.02259798325186        0.00016022237520
C           -2.12450819740735        2.18311636924101       -0.00317104200340
C           -1.89975527106331       -0.20003705250948        0.01116504045153
O           -3.09858626483802       -0.28142200220304        0.02233886116260
N           -1.09374300712609       -1.33249394940978        0.00587980673962
C           -1.71997293858800       -2.64005675951517        0.00492586920238
H            3.57270409866038        1.23533191683642        1.01230064963716
H            3.90133150480629        1.06742252042759       -0.72132120216992
H            2.50511002131976        2.02835158748735       -0.16110165233271
H            3.91428422130547       -1.40810812257011       -0.02333034560478
H           -1.50997741326455        3.08066100331991        0.00452444677398
H           -2.75919470666114        2.16533528071756       -0.89062409309931
H           -2.77327080784684        2.15711142680473        0.87362324870819
H           -1.39984434685222       -3.20073101526129        0.88409463200547
H           -1.41453441681904       -3.19226431262827       -0.88481694936360
H           -2.79975908661230       -2.50582042290060        0.01438969531255
H            2.05050496599043       -2.21845171073141       -0.03241108102923

          :  Hamiltonian                  GFN2-xTB          :
         :: total energy             -42.098081848601 Eh    ::
         :: gradient norm              0.006140365481 Eh/a0 ::
         :: HOMO-LUMO gap              1.363225122508 eV    ::
         :: SCC energy               -42.605262443989 Eh    ::
         :: -> dispersion             -0.022442088043 Eh    ::
         :: repulsion energy           0.507063627037 Eh    ::

    * Orbital Energies and Occupations

         #    Occupation            Energy/Eh            Energy/eV
      -------------------------------------------------------------
         1        2.0000           -0.8968561             -24.4047
       ...           ...                  ...                  ...
        25        1.9998           -0.6747270             -18.3603
        26        1.9993           -0.6566151             -17.8674
        27        1.9990           -0.6504896             -17.7007
        28        1.9985           -0.6441871             -17.5292
        29        1.9974           -0.6358496             -17.3023
        30        1.9941           -0.6227880             -16.9469
        31        1.9907           -0.6156128             -16.7517
        32        1.9831           -0.6060452             -16.4913
        33        1.9557           -0.5906059             -16.0712
        34        1.9336           -0.5840125             -15.8918
        35        1.9102           -0.5790291             -15.7562
        36        1.8740           -0.5733693             -15.6022
        37        1.7932           -0.5648174             -15.3695 (HOMO)
        38        0.5363           -0.5147198             -14.0062 (LUMO)
        39        0.0347           -0.4666844             -12.6991
        40        0.0007           -0.4035791             -10.9819
        41        0.0002           -0.3846233             -10.4661
        42        0.0000           -0.2965772              -8.0703
        43                         -0.2106566              -5.7323
        44                         -0.1640911              -4.4651
        45                         -0.1460444              -3.9741
        46                         -0.0797340              -2.1697
        47                         -0.0456030              -1.2409
        48                         -0.0393870              -1.0718
       ...                                ...                  ...
        67                          0.5261596              14.3175
      -------------------------------------------------------------
                  HL-Gap            0.0500976 Eh            1.3632 eV

     #   Z          covCN         q      C6AA      α(0)
     1   6 C        3.716    -0.102    22.586     6.790
     2   7 N        2.740     0.148    18.734     6.428
     3   6 C        2.725    -0.044    29.077     8.828
     4   7 N        1.816    -0.264    27.705     7.799
     5   6 C        2.844     0.160    24.546     8.120
     6   6 C        2.950    -0.039    28.965     8.827
     7   6 C        2.764     0.272    22.410     7.753
     8   8 O        0.859    -0.360    20.901     6.130
     9   7 N        2.743    -0.069    22.585     7.058
    10   6 C        3.709    -0.062    21.830     6.678
    11   6 C        2.720     0.321    21.552     7.600
    12   8 O        0.860    -0.333    20.388     6.054
    13   7 N        2.753    -0.036    21.937     6.956
    14   6 C        3.705    -0.070    22.000     6.706
    15   1 H        0.924     0.120     1.613     1.986
    16   1 H        0.925     0.114     1.659     2.014
    17   1 H        0.924     0.156     1.352     1.818
    18   1 H        0.926     0.150     1.388     1.843
    19   1 H        0.925     0.121     1.606     1.982
    20   1 H        0.924     0.113     1.674     2.024
    21   1 H        0.924     0.113     1.671     2.021
    22   1 H        0.924     0.109     1.703     2.041
    23   1 H        0.924     0.109     1.703     2.041
    24   1 H        0.925     0.125     1.576     1.963
    25   1 H        1.600     0.249     0.874     1.460

Wiberg/Mayer (AO) data.
largest (>0.10) Wiberg bond orders for each atom

     #   Z sym  total        # sym  WBO       # sym  WBO       # sym  WBO
 ---------------------------------------------------------------------------
     1   6 C    3.855 --    16 H    0.962    15 H    0.951     2 N    0.938
                            17 H    0.932
     2   7 N    3.761 --     3 C    1.570     6 C    1.182     1 C    0.938
     3   6 C    3.435 --     2 N    1.570    18 H    0.929    25 H    0.380
                             4 N    0.251     6 C    0.137
     4   7 N    2.623 --     5 C    1.579    25 H    0.538     3 C    0.251
     5   6 C    3.965 --     4 N    1.579    13 N    1.162     6 C    1.122
     6   6 C    3.742 --     2 N    1.182     5 C    1.122     7 C    1.101
                             3 C    0.137
     7   6 C    3.951 --     8 O    1.634     9 N    1.113     6 C    1.101
     8   8 O    1.971 --     7 C    1.634     9 N    0.122
     9   7 N    3.500 --     7 C    1.113    11 C    1.101    10 C    0.977
                             8 O    0.122    12 O    0.113
    10   6 C    3.873 --     9 N    0.977    19 H    0.961    21 H    0.946
                            20 H    0.946
    11   6 C    3.956 --    12 O    1.688     9 N    1.101    13 N    1.081
    12   8 O    2.002 --    11 C    1.688     9 N    0.113    13 N    0.112
    13   7 N    3.499 --     5 C    1.162    11 C    1.081    14 C    0.976
                            12 O    0.112
    14   6 C    3.884 --    13 N    0.976    24 H    0.962    22 H    0.950
                            23 H    0.950
    15   1 H    0.983 --     1 C    0.951
    16   1 H    0.985 --     1 C    0.962
    17   1 H    0.969 --     1 C    0.932
    18   1 H    0.959 --     3 C    0.929
    19   1 H    0.979 --    10 C    0.961
    20   1 H    0.963 --    10 C    0.946
    21   1 H    0.963 --    10 C    0.946
    22   1 H    0.969 --    14 C    0.950
    23   1 H    0.969 --    14 C    0.950
    24   1 H    0.980 --    14 C    0.962
    25   1 H    0.937 --     4 N    0.538     3 C    0.380
 ---------------------------------------------------------------------------

molecular dipole:
                 x           y           z       tot (Debye)
 q only:        2.229      -0.824       0.018
   full:        2.521      -0.763       0.030       6.696

           -------------------------------------------------
          | TOTAL ENERGY              -42.098081848601 Eh   |
          | GRADIENT NORM               0.006140365481 Eh/α |
          | HOMO-LUMO GAP               1.363225122508 eV   |
           -------------------------------------------------

 * finished run on 2024/06/05 at 20:00:10.675
