   * xtb version 6.6.1 (8d0f1dd) compiled by 'conda@1efc2f54142f' on 2023-08-01
          program call               : xtb struc.xyz --opt loose --input .xc1 --gfn2

   ID    Z sym.   atoms
    1    6 C      1, 3, 5-7, 10, 11, 14
    2    7 N      2, 4, 9, 13
    3    8 O      8, 12
    4    1 H      15-25
constraining bond 5 22 to    3.7133300 Å, actual value:    2.7765911 Å

          :  Hamiltonian                  GFN2-xTB          :
 * total energy  :   -43.8120517 Eh     change       -0.6633627E-10 Eh
 * total energy  :   -47.0927154 Eh     change       -0.3280664E+01 Eh
 * total energy  :   -52.1485925 Eh     change       -0.5055877E+01 Eh
 * total energy  :   -58.6783879 Eh     change       -0.6529795E+01 Eh
 * total energy  :   -45.4225698 Eh     change        0.1325582E+02 Eh
 * total energy  :   -56.2514203 Eh     change       -0.1082885E+02 Eh
 * total energy  :   -56.6038462 Eh     change       -0.3524259E+00 Eh
 * total energy  :   -58.9962247 Eh     change       -0.2392379E+01 Eh
 * total energy  :   -56.5559285 Eh     change        0.2440296E+01 Eh
 * total energy  :   -59.3548778 Eh     change       -0.2798949E+01 Eh
 * total energy  :   -59.7293291 Eh     change       -0.1484317E-03 Eh
 * total energy  :   -59.7294216 Eh     change       -0.9247959E-04 Eh
 * total energy  :   -59.7295497 Eh     change       -0.1281013E-03 Eh
 * total energy  :   -59.7296087 Eh     change       -0.5896996E-04 Eh
 * total energy  :   -59.7296432 Eh     change       -0.3454325E-04 Eh
 * total energy  :   -59.7296847 Eh     change       -0.4143082E-04 Eh
 * total energy  :   -59.7297090 Eh     change       -0.2432433E-04 Eh
 * total energy  :   -59.7297544 Eh     change       -0.4541352E-04 Eh
 * total energy  :   -59.7297682 Eh     change       -0.1378484E-04 Eh
   *** GEOMETRY OPTIMIZATION CONVERGED AFTER 80 ITERATIONS ***

 final structure:
================
25
 xtb: 6.6.1 (8d0f1dd)
C            2.68869485655105        0.83006094261467        0.02064289262922
N            1.73404200505442       -0.27246387522938       -0.02785208654860
C            2.26555775856951       -1.51442352119881       -0.03914548783925
N            1.49492531886289       -2.60895449367924        0.01842634264666
C            0.35525906070609       -2.44994850790640        0.82463731504608
C            0.42471343816429        0.05339734637503       -0.12657916164825
C           -0.07138669778137        1.45612802973520       -0.06718698071941
O            0.55622571477360        2.48167483770632       -0.02538061000251
N           -1.44722219635518        1.35176194873170       -0.06461126659553
C           -2.34297148016925        2.48847264372807       -0.00307001802002
C           -1.86303129744498        0.05753576398577       -0.07588615374824
O           -2.96059405567074       -0.40077406655071       -0.03116098208536
N           -0.67117571242449       -0.75368036126957       -0.17610649161457
C           -0.83682474948343       -2.20391801128826       -0.08190478773795
H            2.51479621494411        1.44778792816608        0.90130666524511
H            3.70179258873275        0.43924318872577        0.05476493879877
H            2.57713537996600        1.46841863496491       -0.85529298154980
H            3.33613887533588       -1.59982098758764       -0.14348326988795
H           -1.75006045334912        3.36575644676940        0.24793821011874
H           -2.82789944051332        2.63568351758078       -0.96785739875437
H           -3.10310398877545        2.31218721523140        0.75584482518475
H            0.36596729902645       -2.32259639371642        1.22905407328069
H           -0.78231487786044       -2.67685763188320       -1.06465195621300
H           -1.82090963433165       -2.38298612217881        0.35836858166284
H            1.62267758757206       -3.38344593022816       -0.62964259374829

          :  Hamiltonian                  GFN2-xTB          :
         :: total energy             -59.729768178461 Eh    ::
         :: gradient norm              0.002357489611 Eh/a0 ::
         :: HOMO-LUMO gap              1.051197973387 eV    ::
         :: SCC energy               -42.663280363825 Eh    ::
         :: -> dispersion             -0.023245189173 Eh    ::
         :: repulsion energy           2.250735597886 Eh    ::

    * Orbital Energies and Occupations

         #    Occupation            Energy/Eh            Energy/eV
      -------------------------------------------------------------
         1        2.0000           -0.8978453             -24.4316
       ...           ...                  ...                  ...
        25        2.0000           -0.6741266             -18.3439
        26        2.0000           -0.6724268             -18.2977
        27        2.0000           -0.6676289             -18.1671
        28        2.0000           -0.6475725             -17.6213
        29        2.0000           -0.6419931             -17.4695
        30        2.0000           -0.6390469             -17.3894
        31        2.0000           -0.6221015             -16.9282
        32        2.0000           -0.6129834             -16.6801
        33        2.0000           -0.6004304             -16.3385
        34        2.0000           -0.5977227             -16.2649
        35        1.9993           -0.5747020             -15.6384
        36        1.9987           -0.5698557             -15.5066
        37        1.8406           -0.5311185             -14.4525 (HOMO)
        38        0.1613           -0.4924877             -13.4013 (LUMO)
        39        0.0002           -0.4387797             -11.9398
        40                         -0.3592312              -9.7752
        41                         -0.3342852              -9.0964
        42                         -0.2253876              -6.1331
        43                         -0.1927962              -5.2463
        44                         -0.1682422              -4.5781
        45                         -0.1455748              -3.9613
        46                         -0.1164993              -3.1701
        47                         -0.0705026              -1.9185
        48                         -0.0671199              -1.8264
       ...                                ...                  ...
        67                         10.5204441             286.2759
      -------------------------------------------------------------
                  HL-Gap            0.0386308 Eh            1.0512 eV

     #   Z          covCN         q      C6AA      α(0)
     1   6 C        3.719    -0.094    22.422     6.764
     2   7 N        2.734     0.067    20.071     6.654
     3   6 C        2.836     0.053    26.799     8.483
     4   7 N        2.702    -0.076    22.726     7.080
     5   6 C        2.934    -0.068    29.694     8.937
     6   6 C        2.922     0.058    26.689     8.472
     7   6 C        2.848     0.261    22.611     7.793
     8   8 O        0.857    -0.340    20.516     6.073
     9   7 N        2.784    -0.077    22.738     7.082
    10   6 C        3.691    -0.061    21.857     6.690
    11   6 C        2.818     0.320    21.565     7.609
    12   8 O        0.857    -0.323    20.195     6.025
    13   7 N        2.838    -0.067    22.540     7.051
    14   6 C        3.750    -0.014    20.893     6.519
    15   1 H        0.925     0.124     1.578     1.965
    16   1 H        0.925     0.102     1.763     2.076
    17   1 H        0.925     0.124     1.581     1.966
    18   1 H        0.926     0.107     1.724     2.053
    19   1 H        0.925     0.109     1.701     2.040
    20   1 H        0.925     0.096     1.823     2.111
    21   1 H        0.925     0.099     1.795     2.095
    22   1 H        0.942     0.166     1.288     1.775
    23   1 H        0.924     0.092     1.856     2.131
    24   1 H        0.924     0.128     1.553     1.949
    25   1 H        0.860     0.212     1.046     1.602

Wiberg/Mayer (AO) data.
largest (>0.10) Wiberg bond orders for each atom

     #   Z sym  total        # sym  WBO       # sym  WBO       # sym  WBO
 ---------------------------------------------------------------------------
     1   6 C    3.911 --    16 H    0.972     2 N    0.968    17 H    0.958
                            15 H    0.956
     2   7 N    3.702 --     3 C    1.275     6 C    1.262     1 C    0.968
     3   6 C    3.867 --     4 N    1.293     2 N    1.275    18 H    0.944
                             5 C    0.165
     4   7 N    3.541 --     3 C    1.293     5 C    1.207    25 H    0.906
     5   6 C    3.649 --     4 N    1.207    14 C    1.004    22 H    0.957
                             3 C    0.165    13 N    0.110
     6   6 C    3.860 --     2 N    1.262    13 N    1.248     7 C    1.006
     7   6 C    3.950 --     8 O    1.713     9 N    1.116     6 C    1.006
     8   8 O    2.068 --     7 C    1.713     9 N    0.139
     9   7 N    3.576 --    11 C    1.152     7 C    1.116    10 C    0.966
                             8 O    0.139    12 O    0.135
    10   6 C    3.919 --    19 H    0.972    21 H    0.971    20 H    0.968
                             9 N    0.966
    11   6 C    3.946 --    12 O    1.750     9 N    1.152    13 N    0.953
    12   8 O    2.105 --    11 C    1.750     9 N    0.135
    13   7 N    3.542 --     6 C    1.248    11 C    0.953    14 C    0.942
                             5 C    0.110
    14   6 C    3.927 --     5 C    1.004    23 H    0.958    24 H    0.947
                            13 N    0.942
    15   1 H    0.983 --     1 C    0.956
    16   1 H    0.989 --     1 C    0.972
    17   1 H    0.983 --     1 C    0.958
    18   1 H    0.987 --     3 C    0.944
    19   1 H    0.987 --    10 C    0.972
    20   1 H    0.990 --    10 C    0.968
    21   1 H    0.989 --    10 C    0.971
    22   1 H    0.972 --     5 C    0.957
    23   1 H    0.987 --    14 C    0.958
    24   1 H    0.982 --    14 C    0.947
    25   1 H    0.943 --     4 N    0.906
 ---------------------------------------------------------------------------

molecular dipole:
                 x           y           z       tot (Debye)
 q only:        1.948      -1.635      -0.100
   full:        2.084      -1.872      -0.226       7.144

           -------------------------------------------------
          | TOTAL ENERGY              -59.729768178461 Eh   |
          | GRADIENT NORM               0.002357489611 Eh/α |
          | HOMO-LUMO GAP               1.051197973387 eV   |
           -------------------------------------------------

 * finished run on 2024/06/05 at 19:58:12.377
