   * xtb version 6.6.1 (8d0f1dd) compiled by 'conda@1efc2f54142f' on 2023-08-01
          program call               : xtb xtbopt.xyz --opt crude --input .xc2 --gfn2

   ID    Z sym.   atoms
    1    6 C      1, 3, 5-7, 10, 11, 14
    2    7 N      2, 4, 9, 13
    3    8 O      8, 12
    4    1 H      15-25
########################################################################
[WARNING] Please study the warnings concerning your input carefully
-1- readin_getIntValue: could not parse ''
########################################################################

          :  Hamiltonian                  GFN2-xTB          :
 * total energy  :   -40.4123871 Eh     change       -0.1939782E-11 Eh
 * total energy  :   -42.1159399 Eh     change       -0.1703553E+01 Eh
 * total energy  :   -42.1365382 Eh     change       -0.2059830E-01 Eh
 * total energy  :   -42.1393254 Eh     change       -0.2787207E-02 Eh
 * total energy  :   -42.1401036 Eh     change       -0.7781209E-03 Eh
 * total energy  :   -42.1407040 Eh     change       -0.6004462E-03 Eh
 * total energy  :   -42.1414561 Eh     change       -0.7520458E-03 Eh
 * total energy  :   -42.1420180 Eh     change       -0.5619369E-03 Eh
 * total energy  :   -42.1423721 Eh     change       -0.3540906E-03 Eh
 * total energy  :   -42.1425480 Eh     change       -0.1759452E-03 Eh
 * total energy  :   -42.1426422 Eh     change       -0.9421827E-04 Eh
 * total energy  :   -42.1427098 Eh     change       -0.6750512E-04 Eh
 * total energy  :   -42.1427894 Eh     change       -0.7964487E-04 Eh
 * total energy  :   -42.1428991 Eh     change       -0.1096738E-03 Eh
 * total energy  :   -42.1430415 Eh     change       -0.1424546E-03 Eh
   *** GEOMETRY OPTIMIZATION CONVERGED AFTER 15 ITERATIONS ***

 final structure:
================
25
 xtb: 6.6.1 (8d0f1dd)
C            2.67618739601130        0.81193919566815        0.06852824577527
N            1.72597822436116       -0.29233184361952       -0.03024667675534
C            2.26845336686056       -1.52574986304073       -0.11415829509083
N            1.50747992660099       -2.63186490645333       -0.09224574523454
C            0.37172448627803       -2.55070779812090        0.65475816465831
C            0.41610314430851        0.03661331996836       -0.11501551677116
C           -0.07341059209285        1.44340561578766       -0.05265674416415
O            0.55774507904147        2.46662967434799       -0.00059011635485
N           -1.44854857984827        1.34801151175919       -0.07631314552225
C           -2.34105197959706        2.48731089664675       -0.02531807502408
C           -1.87159487092586        0.05416690136351       -0.09692620181577
O           -2.97298146508609       -0.39563778767978       -0.06067371022690
N           -0.68563851860461       -0.75935570332115       -0.19823202550175
C           -0.85576556309742       -2.20840428081111       -0.09544496512452
H            2.48437811568592        1.40201297823901        0.96405866494696
H            3.68923364586782        0.42340726175662        0.11010291481628
H            2.57986099026944        1.47760618268177       -0.78864983954962
H            3.34198252028851       -1.60174591638992       -0.19514459120171
H           -1.73668448983908        3.37473175601678        0.15282733086690
H           -2.87343714103412        2.58583631235048       -0.97110349760342
H           -3.06358071255607        2.35262635608715        0.77828155144939
H            0.48283225008105       -2.02977598934397        1.60934016735766
H           -0.89679523819318       -2.66673343961030       -1.08329680417796
H           -1.80167058226189       -2.38444091152113        0.42328932776125
H            1.67963210158149       -3.39931098116305       -0.73399879961343

          :  Hamiltonian                  GFN2-xTB          :
         :: total energy             -42.143041525623 Eh    ::
         :: gradient norm              0.009615712131 Eh/a0 ::
         :: HOMO-LUMO gap              1.170997868178 eV    ::
         :: SCC energy               -42.649614795712 Eh    ::
         :: -> dispersion             -0.023273474735 Eh    ::
         :: repulsion energy           0.506411174348 Eh    ::

    * Orbital Energies and Occupations

         #    Occupation            Energy/Eh            Energy/eV
      -------------------------------------------------------------
         1        2.0000           -0.8958570             -24.3775
       ...           ...                  ...                  ...
        25        2.0000           -0.6736601             -18.3312
        26        2.0000           -0.6721049             -18.2889
        27        2.0000           -0.6617556             -18.0073
        28        2.0000           -0.6473701             -17.6158
        29        2.0000           -0.6403368             -17.4245
        30        2.0000           -0.6384149             -17.3722
        31        2.0000           -0.6240227             -16.9805
        32        2.0000           -0.6119834             -16.6529
        33        2.0000           -0.6002934             -16.3348
        34        2.0000           -0.5963254             -16.2268
        35        1.9993           -0.5737700             -15.6131
        36        1.9987           -0.5685385             -15.4707
        37        1.8770           -0.5318114             -14.4713 (HOMO)
        38        0.1248           -0.4887781             -13.3003 (LUMO)
        39        0.0002           -0.4353209             -11.8457
        40                         -0.3576944              -9.7334
        41                         -0.3333169              -9.0700
        42                         -0.2226017              -6.0573
        43                         -0.1848020              -5.0287
        44                         -0.1619430              -4.4067
        45                         -0.1418142              -3.8590
        46                         -0.1100892              -2.9957
        47                         -0.0655551              -1.7838
        48                         -0.0465977              -1.2680
       ...                                ...                  ...
        67                          0.5727939              15.5865
      -------------------------------------------------------------
                  HL-Gap            0.0430334 Eh            1.1710 eV

     #   Z          covCN         q      C6AA      α(0)
     1   6 C        3.720    -0.094    22.411     6.762
     2   7 N        2.734     0.066    20.085     6.656
     3   6 C        2.841     0.042    27.043     8.522
     4   7 N        2.691    -0.047    22.145     6.989
     5   6 C        2.919    -0.013    28.338     8.730
     6   6 C        2.922     0.058    26.691     8.472
     7   6 C        2.848     0.261    22.611     7.793
     8   8 O        0.857    -0.342    20.548     6.078
     9   7 N        2.785    -0.078    22.758     7.085
    10   6 C        3.691    -0.060    21.852     6.689
    11   6 C        2.819     0.321    21.559     7.608
    12   8 O        0.857    -0.324    20.225     6.030
    13   7 N        2.823    -0.073    22.660     7.070
    14   6 C        3.746    -0.007    20.774     6.501
    15   1 H        0.925     0.123     1.586     1.970
    16   1 H        0.925     0.102     1.764     2.077
    17   1 H        0.925     0.125     1.574     1.962
    18   1 H        0.926     0.107     1.719     2.050
    19   1 H        0.925     0.110     1.700     2.039
    20   1 H        0.925     0.096     1.823     2.111
    21   1 H        0.925     0.098     1.806     2.101
    22   1 H        0.924     0.075     2.030     2.228
    23   1 H        0.925     0.101     1.772     2.082
    24   1 H        0.924     0.131     1.531     1.935
    25   1 H        0.860     0.221     1.005     1.570

Wiberg/Mayer (AO) data.
largest (>0.10) Wiberg bond orders for each atom

     #   Z sym  total        # sym  WBO       # sym  WBO       # sym  WBO
 ---------------------------------------------------------------------------
     1   6 C    3.911 --    16 H    0.973     2 N    0.967    17 H    0.957
                            15 H    0.957
     2   7 N    3.701 --     3 C    1.270     6 C    1.267     1 C    0.967
     3   6 C    3.868 --     4 N    1.279     2 N    1.270    18 H    0.944
                             5 C    0.176
     4   7 N    3.575 --     3 C    1.279     5 C    1.260    25 H    0.907
     5   6 C    3.721 --     4 N    1.260    14 C    1.020    22 H    0.959
                             3 C    0.176
     6   6 C    3.877 --     2 N    1.267    13 N    1.245     7 C    1.004
     7   6 C    3.952 --     8 O    1.712     9 N    1.120     6 C    1.004
     8   8 O    2.072 --     7 C    1.712     9 N    0.141
     9   7 N    3.576 --    11 C    1.146     7 C    1.120    10 C    0.967
                             8 O    0.141    12 O    0.134
    10   6 C    3.920 --    19 H    0.972    21 H    0.970    20 H    0.968
                             9 N    0.967
    11   6 C    3.948 --    12 O    1.750     9 N    1.146    13 N    0.961
    12   8 O    2.106 --    11 C    1.750     9 N    0.134
    13   7 N    3.538 --     6 C    1.245    11 C    0.961    14 C    0.941
    14   6 C    3.932 --     5 C    1.020    23 H    0.953    24 H    0.943
                            13 N    0.941
    15   1 H    0.983 --     1 C    0.957
    16   1 H    0.989 --     1 C    0.973
    17   1 H    0.983 --     1 C    0.957
    18   1 H    0.987 --     3 C    0.944
    19   1 H    0.987 --    10 C    0.972
    20   1 H    0.990 --    10 C    0.968
    21   1 H    0.990 --    10 C    0.970
    22   1 H    0.992 --     5 C    0.959
    23   1 H    0.986 --    14 C    0.953
    24   1 H    0.981 --    14 C    0.943
    25   1 H    0.943 --     4 N    0.907
 ---------------------------------------------------------------------------

molecular dipole:
                 x           y           z       tot (Debye)
 q only:        1.994      -1.729      -0.212
   full:        2.139      -1.920      -0.254       7.334

           -------------------------------------------------
          | TOTAL ENERGY              -42.143041525623 Eh   |
          | GRADIENT NORM               0.009615712131 Eh/α |
          | HOMO-LUMO GAP               1.170997868178 eV   |
           -------------------------------------------------

 * finished run on 2024/06/05 at 19:58:12.945
