   * xtb version 6.6.1 (8d0f1dd) compiled by 'conda@1efc2f54142f' on 2023-08-01
          program call               : xtb struc.xyz --opt loose --input .xc1 --gfn2

   ID    Z sym.   atoms
    1    6 C      1, 3, 5-7, 10, 11, 14
    2    7 N      2, 4, 9, 13
    3    8 O      8, 12
    4    1 H      15-25
constraining bond 12 22 to    4.6333300 Å, actual value:    3.4782509 Å

          :  Hamiltonian                  GFN2-xTB          :
 * total energy  :   -44.6301292 Eh     change       -0.6650680E-10 Eh
 * total energy  :   -48.5853401 Eh     change       -0.3955211E+01 Eh
 * total energy  :   -54.3792071 Eh     change       -0.5793867E+01 Eh
 * total energy  :   -62.1246549 Eh     change       -0.7745448E+01 Eh
 * total energy  :   -71.0866422 Eh     change       -0.8961987E+01 Eh
 * total energy  :   -43.7968063 Eh     change        0.2728984E+02 Eh
 * total energy  :   -67.5292765 Eh     change       -0.2373247E+02 Eh
 * total energy  :   -67.8527003 Eh     change       -0.3234238E+00 Eh
 * total energy  :   -68.8592062 Eh     change       -0.1006506E+01 Eh
 * total energy  :   -71.2266079 Eh     change       -0.2367402E+01 Eh
 * total energy  :   -72.1151506 Eh     change       -0.2147844E-04 Eh
 * total energy  :   -72.1151836 Eh     change       -0.3297566E-04 Eh
 * total energy  :   -72.1152222 Eh     change       -0.3861034E-04 Eh
 * total energy  :   -72.1138339 Eh     change        0.1388371E-02 Eh
 * total energy  :   -72.1152446 Eh     change       -0.1410761E-02 Eh
 * total energy  :   -72.1152572 Eh     change       -0.1255677E-04 Eh
 * total energy  :   -72.1153130 Eh     change       -0.5586354E-04 Eh
 * total energy  :   -72.1153280 Eh     change       -0.1499084E-04 Eh
 * total energy  :   -72.1153605 Eh     change       -0.3246376E-04 Eh
   *** GEOMETRY OPTIMIZATION CONVERGED AFTER 127 ITERATIONS ***

 final structure:
================
25
 xtb: 6.6.1 (8d0f1dd)
C            3.30739582438633        1.21643983892340        0.02785930481879
N            2.37086687841486        0.12484877149091        0.01356419855338
C            2.65442577938453       -1.17978439451383        0.01549314594447
N            1.50546676814112       -1.89847593778165       -0.01049582269211
C            0.46169046880845       -1.01635686336393       -0.02362723713274
C            1.00267863412618        0.26047497665275       -0.00795164652163
C            0.16158794915786        1.43109105437535        0.01473007149650
O            0.52066151761176        2.59084625369456        0.02682978728431
N           -1.19535540059233        1.05993636867091        0.02820815054144
C           -2.12007056680207        2.17789815472315        0.07654996025431
C           -1.72566008786759       -0.16892622905442       -0.00470707016462
O           -2.88590514058634       -2.49417983355261       -0.06434647284233
N           -0.87097891560257       -1.22936660316237       -0.05051874901907
C           -1.37061579309900       -2.58285577627508        0.00318498690045
H            3.94424374703545        1.15924642486016        0.91076826136323
H            3.93619454290054        1.18941084975314       -0.86264422510114
H            2.74602610281339        2.15034052738093        0.04484500240973
H            3.63851081208126       -1.60057612241081        0.03452251382295
H           -1.87394117420815        2.88650285934010       -0.71472949870360
H           -3.13284966058123        1.80666587650834       -0.04745524546627
H           -2.02312853974854        2.69498186179415        1.03219521683307
H           -3.05063684123911       -2.32626086647474       -0.39585939378715
H           -1.08301753920737       -3.11340214275238       -0.91045267042799
H           -3.19192042305826       -2.41637816427831        0.87595814720334
H            1.43476257182928       -2.90388234294804        0.01925090233361

          :  Hamiltonian                  GFN2-xTB          :
         :: total energy             -72.115360494407 Eh    ::
         :: gradient norm              0.001944843039 Eh/a0 ::
         :: HOMO-LUMO gap              2.060796417516 eV    ::
         :: SCC energy               -42.600945672612 Eh    ::
         :: -> dispersion             -0.022670033898 Eh    ::
         :: repulsion energy           2.386117056846 Eh    ::

    * Orbital Energies and Occupations

         #    Occupation            Energy/Eh            Energy/eV
      -------------------------------------------------------------
         1        2.0000           -0.9501085             -25.8538
       ...           ...                  ...                  ...
        25        2.0000           -0.6445298             -17.5385
        26        2.0000           -0.6423490             -17.4792
        27        2.0000           -0.6297923             -17.1375
        28        2.0000           -0.6175282             -16.8038
        29        2.0000           -0.6134791             -16.6936
        30        1.9999           -0.6048949             -16.4600
        31        1.9998           -0.5916767             -16.1003
        32        1.9997           -0.5832805             -15.8719
        33        1.9988           -0.5594011             -15.2221
        34        1.9967           -0.5435952             -14.7920
        35        1.9961           -0.5411935             -14.7266
        36        1.9266           -0.4940161             -13.4429
        37        1.8515           -0.4822261             -13.1220 (HOMO)
        38        0.1890           -0.4064932             -11.0612 (LUMO)
        39        0.0343           -0.3781901             -10.2911
        40        0.0075           -0.3539669              -9.6319
        41        0.0000           -0.2555135              -6.9529
        42        0.0000           -0.2232681              -6.0754
        43                         -0.1683898              -4.5821
        44                         -0.1539330              -4.1887
        45                         -0.0990743              -2.6960
        46                         -0.0953751              -2.5953
        47                         -0.0801733              -2.1816
        48                         -0.0350212              -0.9530
       ...                                ...                  ...
        67                          5.6761448             154.4558
      -------------------------------------------------------------
                  HL-Gap            0.0757329 Eh            2.0608 eV

     #   Z          covCN         q      C6AA      α(0)
     1   6 C        3.691    -0.085    22.327     6.762
     2   7 N        2.829     0.059    20.206     6.676
     3   6 C        3.046     0.046    26.921     8.510
     4   7 N        2.787    -0.074    22.673     7.072
     5   6 C        3.056     0.102    25.686     8.312
     6   6 C        3.112    -0.013    28.188     8.698
     7   6 C        2.773     0.254    22.726     7.808
     8   8 O        0.857    -0.406    21.794     6.259
     9   7 N        2.751    -0.018    21.606     6.904
    10   6 C        3.719    -0.059    21.764     6.664
    11   6 C        1.889    -0.147    35.278     9.593
    12   8 O        2.439    -0.245    18.027     5.734
    13   7 N        2.744    -0.004    21.342     6.861
    14   6 C        2.692    -0.123    31.090     9.125
    15   1 H        0.925     0.095     1.827     2.114
    16   1 H        0.924     0.096     1.823     2.112
    17   1 H        0.925     0.130     1.533     1.936
    18   1 H        0.926     0.110     1.701     2.039
    19   1 H        0.924     0.089     1.887     2.148
    20   1 H        0.925     0.083     1.953     2.185
    21   1 H        0.924     0.084     1.941     2.179
    22   1 H        0.818     0.376     0.529     1.141
    23   1 H        0.924     0.042     2.424     2.435
    24   1 H        0.801     0.387     0.510     1.122
    25   1 H        0.860     0.221     1.004     1.569

Wiberg/Mayer (AO) data.
largest (>0.10) Wiberg bond orders for each atom

     #   Z sym  total        # sym  WBO       # sym  WBO       # sym  WBO
 ---------------------------------------------------------------------------
     1   6 C    3.925 --     2 N    0.988    15 H    0.964    17 H    0.963
                            16 H    0.963
     2   7 N    3.632 --     3 C    1.356     6 C    1.150     1 C    0.988
     3   6 C    3.788 --     2 N    1.356     4 N    1.264    18 H    0.956
     4   7 N    3.552 --     3 C    1.264     5 C    1.171    25 H    0.923
     5   6 C    3.932 --     6 C    1.351    13 N    1.188     4 N    1.171
     6   6 C    3.907 --     5 C    1.351     2 N    1.150     7 C    1.095
     7   6 C    3.928 --     8 O    1.654     6 C    1.095     9 N    1.066
     8   8 O    1.972 --     7 C    1.654     9 N    0.130
     9   7 N    3.630 --    11 C    1.354     7 C    1.066    10 C    0.988
                             8 O    0.130
    10   6 C    3.946 --     9 N    0.988    20 H    0.979    19 H    0.968
                            21 H    0.966
    11   6 C    2.853 --     9 N    1.354    13 N    1.241
    12   8 O    2.490 --    22 H    0.855    24 H    0.838    14 C    0.769
    13   7 N    3.615 --    11 C    1.241     5 C    1.188    14 C    0.993
    14   6 C    2.847 --    13 N    0.993    23 H    0.953    12 O    0.769
    15   1 H    0.987 --     1 C    0.964
    16   1 H    0.986 --     1 C    0.963
    17   1 H    0.983 --     1 C    0.963
    18   1 H    0.987 --     3 C    0.956
    19   1 H    0.990 --    10 C    0.968
    20   1 H    0.992 --    10 C    0.979
    21   1 H    0.990 --    10 C    0.966
    22   1 H    0.858 --    12 O    0.855
    23   1 H    0.985 --    14 C    0.953
    24   1 H    0.849 --    12 O    0.838
    25   1 H    0.950 --     4 N    0.923
 ---------------------------------------------------------------------------

molecular dipole:
                 x           y           z       tot (Debye)
 q only:       -0.345      -3.055       0.359
   full:       -0.037      -3.089       0.007       7.851

           -------------------------------------------------
          | TOTAL ENERGY              -72.115360494407 Eh   |
          | GRADIENT NORM               0.001944843039 Eh/α |
          | HOMO-LUMO GAP               2.060796417516 eV   |
           -------------------------------------------------

 * finished run on 2024/06/05 at 20:00:10.187
