   * xtb version 6.6.1 (8d0f1dd) compiled by 'conda@1efc2f54142f' on 2023-08-01
          program call               : xtb xtbopt.xyz --opt crude --input .xc2 --gfn2

   ID    Z sym.   atoms
    1    6 C      1, 3, 5-7, 10, 11, 14
    2    7 N      2, 4, 9, 13
    3    8 O      8, 12
    4    1 H      15-25
########################################################################
[WARNING] Please study the warnings concerning your input carefully
-1- readin_getIntValue: could not parse ''
########################################################################

          :  Hamiltonian                  GFN2-xTB          :
 * total energy  :   -40.2147301 Eh     change       -0.3055334E-12 Eh
 * total energy  :   -42.0490432 Eh     change       -0.1834313E+01 Eh
 * total energy  :   -42.0683486 Eh     change       -0.1930535E-01 Eh
 * total energy  :   -42.0725120 Eh     change       -0.4163385E-02 Eh
 * total energy  :   -42.0760818 Eh     change       -0.3569844E-02 Eh
 * total energy  :   -42.0768494 Eh     change       -0.7676131E-03 Eh
 * total energy  :   -42.0772258 Eh     change       -0.3763493E-03 Eh
 * total energy  :   -42.0775516 Eh     change       -0.3258013E-03 Eh
 * total energy  :   -42.0777479 Eh     change       -0.1963550E-03 Eh
 * total energy  :   -42.0778473 Eh     change       -0.9939278E-04 Eh
 * total energy  :   -42.0779529 Eh     change       -0.1055583E-03 Eh
 * total energy  :   -42.0780374 Eh     change       -0.8448785E-04 Eh
   *** GEOMETRY OPTIMIZATION CONVERGED AFTER 12 ITERATIONS ***

 final structure:
================
25
 xtb: 6.6.1 (8d0f1dd)
C            3.29081480877365        1.22465270833505        0.01899498261640
N            2.36903257514479        0.12063267265050        0.00602156576971
C            2.67165951500428       -1.18056649899756        0.00557781648859
N            1.53292796823051       -1.91600694103844       -0.01493881967587
C            0.47607381357398       -1.04853809486882       -0.01905887454495
C            0.99876557373301        0.23600494351680       -0.00888287505681
C            0.14318366842778        1.39538375192024        0.02129752144075
O            0.48841989607158        2.56013019969225        0.02875405709943
N           -1.20869927461119        1.00999220005191        0.05009735177651
C           -2.14189773974751        2.12055577576574        0.10670791362079
C           -1.72908982083827       -0.22675225465941        0.03407786059654
O           -2.82885585278819       -2.55436971831583        0.04138932204783
N           -0.85513646266910       -1.27865039527942       -0.02521846748876
C           -1.36467231549300       -2.61164206328280        0.06873492734824
H            3.93582879026742        1.17015083470228        0.89621291577817
H            3.91254641502415        1.21178742786435       -0.87675625140411
H            2.71727132492451        2.15083921785034        0.04684553364017
H            3.66209042390085       -1.58606938597057        0.01803178348206
H           -1.93902316032720        2.80631542933898       -0.71573928291731
H           -3.15658035284780        1.73957647924827        0.04154048409230
H           -2.00532609872088        2.66879427710052        1.03939488752553
H           -3.18158759560442       -2.09671458505467       -0.77222912127138
H           -1.04440667927663       -3.22791084235086       -0.76973857062862
H           -3.06268245631624       -1.94748178322320        0.78151049605889
H            1.47977455026232       -2.92187481339597        0.02854446150671

          :  Hamiltonian                  GFN2-xTB          :
         :: total energy             -42.078037365728 Eh    ::
         :: gradient norm              0.009175367430 Eh/a0 ::
         :: HOMO-LUMO gap              1.918960697667 eV    ::
         :: SCC energy               -42.570702676891 Eh    ::
         :: -> dispersion             -0.022735761696 Eh    ::
         :: repulsion energy           0.492560244778 Eh    ::

    * Orbital Energies and Occupations

         #    Occupation            Energy/Eh            Energy/eV
      -------------------------------------------------------------
         1        2.0000           -0.9183474             -24.9895
       ...           ...                  ...                  ...
        25        2.0000           -0.6463341             -17.5876
        26        2.0000           -0.6444830             -17.5373
        27        2.0000           -0.6329171             -17.2226
        28        2.0000           -0.6194947             -16.8573
        29        2.0000           -0.6158201             -16.7573
        30        1.9999           -0.6074850             -16.5305
        31        1.9998           -0.5921429             -16.1130
        32        1.9998           -0.5875000             -15.9867
        33        1.9989           -0.5615694             -15.2811
        34        1.9971           -0.5455654             -14.8456
        35        1.9967           -0.5433873             -14.7863
        36        1.9509           -0.5004879             -13.6190
        37        1.8091           -0.4777885             -13.0013 (HOMO)
        38        0.1987           -0.4072680             -11.0823 (LUMO)
        39        0.0405           -0.3807399             -10.3605
        40        0.0086           -0.3560253              -9.6879
        41        0.0000           -0.2577319              -7.0132
        42        0.0000           -0.2133431              -5.8054
        43                         -0.1713711              -4.6632
        44                         -0.1554628              -4.2304
        45                         -0.0993506              -2.7035
        46                         -0.0955046              -2.5988
        47                         -0.0799738              -2.1762
        48                         -0.0304973              -0.8299
       ...                                ...                  ...
        67                          0.5519044              15.0181
      -------------------------------------------------------------
                  HL-Gap            0.0705205 Eh            1.9190 eV

     #   Z          covCN         q      C6AA      α(0)
     1   6 C        3.691    -0.085    22.322     6.761
     2   7 N        2.828     0.058    20.228     6.680
     3   6 C        3.045     0.046    26.927     8.511
     4   7 N        2.786    -0.075    22.697     7.076
     5   6 C        3.051     0.101    25.715     8.317
     6   6 C        3.111    -0.013    28.174     8.696
     7   6 C        2.773     0.253    22.750     7.812
     8   8 O        0.857    -0.409    21.856     6.268
     9   7 N        2.751    -0.020    21.630     6.907
    10   6 C        3.719    -0.059    21.760     6.663
    11   6 C        1.889    -0.168    35.946     9.683
    12   8 O        2.444    -0.220    17.612     5.668
    13   7 N        2.744    -0.012    21.491     6.885
    14   6 C        2.703    -0.091    30.244     9.001
    15   1 H        0.925     0.095     1.829     2.115
    16   1 H        0.924     0.096     1.826     2.113
    17   1 H        0.925     0.130     1.534     1.937
    18   1 H        0.927     0.109     1.703     2.041
    19   1 H        0.925     0.089     1.894     2.152
    20   1 H        0.925     0.079     1.993     2.207
    21   1 H        0.924     0.085     1.927     2.171
    22   1 H        0.800     0.362     0.562     1.178
    23   1 H        0.925     0.043     2.414     2.430
    24   1 H        0.802     0.386     0.512     1.124
    25   1 H        0.860     0.220     1.008     1.572

Wiberg/Mayer (AO) data.
largest (>0.10) Wiberg bond orders for each atom

     #   Z sym  total        # sym  WBO       # sym  WBO       # sym  WBO
 ---------------------------------------------------------------------------
     1   6 C    3.925 --     2 N    0.989    15 H    0.964    17 H    0.963
                            16 H    0.963
     2   7 N    3.628 --     3 C    1.352     6 C    1.150     1 C    0.989
     3   6 C    3.781 --     2 N    1.352     4 N    1.264    18 H    0.957
     4   7 N    3.547 --     3 C    1.264     5 C    1.169    25 H    0.924
     5   6 C    3.928 --     6 C    1.351    13 N    1.183     4 N    1.169
     6   6 C    3.905 --     5 C    1.351     2 N    1.150     7 C    1.096
     7   6 C    3.927 --     8 O    1.650     6 C    1.096     9 N    1.067
     8   8 O    1.964 --     7 C    1.650     9 N    0.130
     9   7 N    3.627 --    11 C    1.348     7 C    1.067    10 C    0.989
                             8 O    0.130
    10   6 C    3.947 --     9 N    0.989    20 H    0.980    19 H    0.968
                            21 H    0.967
    11   6 C    2.875 --     9 N    1.348    13 N    1.228
    12   8 O    2.509 --    22 H    0.826    14 C    0.825    24 H    0.821
    13   7 N    3.613 --    11 C    1.228     5 C    1.183    14 C    1.014
    14   6 C    2.956 --    13 N    1.014    23 H    0.952    12 O    0.825
    15   1 H    0.987 --     1 C    0.964
    16   1 H    0.986 --     1 C    0.963
    17   1 H    0.983 --     1 C    0.963
    18   1 H    0.987 --     3 C    0.957
    19   1 H    0.990 --    10 C    0.968
    20   1 H    0.993 --    10 C    0.980
    21   1 H    0.990 --    10 C    0.967
    22   1 H    0.861 --    12 O    0.826
    23   1 H    0.985 --    14 C    0.952
    24   1 H    0.851 --    12 O    0.821
    25   1 H    0.951 --     4 N    0.924
 ---------------------------------------------------------------------------

molecular dipole:
                 x           y           z       tot (Debye)
 q only:       -0.387      -2.738      -0.005
   full:        0.040      -2.720      -0.358       6.973

           -------------------------------------------------
          | TOTAL ENERGY              -42.078037365728 Eh   |
          | GRADIENT NORM               0.009175367430 Eh/α |
          | HOMO-LUMO GAP               1.918960697667 eV   |
           -------------------------------------------------

 * finished run on 2024/06/05 at 20:00:10.663
