   * xtb version 6.6.1 (8d0f1dd) compiled by 'conda@1efc2f54142f' on 2023-08-01
          program call               : xtb struc.xyz --opt loose --input .xc1 --gfn2

   ID    Z sym.   atoms
    1    6 C      1, 3, 5-7, 10, 11, 14
    2    7 N      2, 4, 9, 13
    3    8 O      8, 12
    4    1 H      15-25
constraining bond 4 16 to    4.6866700 Å, actual value:    3.9838146 Å

          :  Hamiltonian                  GFN2-xTB          :
 * total energy  :   -43.1421133 Eh     change       -0.2401990E-09 Eh
 * total energy  :   -45.7470291 Eh     change       -0.2604916E+01 Eh
 * total energy  :   -49.8297011 Eh     change       -0.4082672E+01 Eh
 * total energy  :   -55.5452403 Eh     change       -0.5715539E+01 Eh
 * total energy  :   -63.2434920 Eh     change       -0.7698252E+01 Eh
 * total energy  :   -71.4487560 Eh     change       -0.8205264E+01 Eh
 * total energy  :   -67.9758480 Eh     change        0.3472908E+01 Eh
 * total energy  :   -72.1885113 Eh     change       -0.4212663E+01 Eh
 * total energy  :   -72.3272122 Eh     change       -0.1387009E+00 Eh
 * total energy  :   -72.3767593 Eh     change       -0.4954705E-01 Eh
 * total energy  :   -72.8981155 Eh     change       -0.1772565E-03 Eh
 * total energy  :   -72.8983731 Eh     change       -0.2576507E-03 Eh
 * total energy  :   -72.8985114 Eh     change       -0.1382514E-03 Eh
 * total energy  :   -72.8986127 Eh     change       -0.1012912E-03 Eh
 * total energy  :   -72.8986825 Eh     change       -0.6984178E-04 Eh
 * total energy  :   -72.8987593 Eh     change       -0.7683250E-04 Eh
 * total energy  :   -72.8988066 Eh     change       -0.4730183E-04 Eh
 * total energy  :   -72.8988654 Eh     change       -0.5873826E-04 Eh
 * total energy  :   -72.8989019 Eh     change       -0.3650008E-04 Eh
   *** GEOMETRY OPTIMIZATION CONVERGED AFTER 82 ITERATIONS ***

 final structure:
================
25
 xtb: 6.6.1 (8d0f1dd)
C            2.84362074776854        1.07394511306251        0.72174628816342
N            2.23790885335165        0.11520941726843        0.03794056234357
C            2.95281416788697       -0.67819773649600       -0.87647076149565
N            4.18803045615444       -0.56888198381057       -1.06971056815977
C            0.21728764909656       -1.24547202538699        0.22772998432451
C            0.83794170121361       -0.03219969338356        0.11009125819857
C            0.04381104446194        1.19035235815813       -0.00299611657547
O            0.52909130964355        2.30146043642204       -0.07353483119516
N           -1.32540852394690        0.97793897478858       -0.04442199240249
C           -2.19683154647898        2.12794991251995       -0.20906890963760
C           -1.95914469420009       -0.24627806690804        0.06971971647986
O           -3.15904027846393       -0.34962004167343        0.03051171124555
N           -1.12729639425155       -1.35588139985353        0.23557144917498
C           -1.75444670631649       -2.64489078015553        0.43477160746950
H            3.88908101318080        1.25309543076634        0.53912844524855
H            4.57812512611623       -0.55580765846780       -1.17118040557856
H            2.30153486274170        1.66971495106759        1.43055278983581
H            2.30713312117250       -1.37980683351991       -1.41090853987666
H           -1.58450474928259        3.02823170742430       -0.19700336268089
H           -2.73621815824977        2.05418501938816       -1.15585327150046
H           -2.93117532724393        2.15283307579470        0.59791942547761
H           -1.49232175221214       -3.04524729273647        1.41523398306821
H           -1.43924647297153       -3.34858729579382       -0.33561187913433
H           -2.83443496914884       -2.51116168800993        0.37909657208572
H            0.77412103407302       -2.16464535886598        0.34791846302142

          :  Hamiltonian                  GFN2-xTB          :
         :: total energy             -72.898901887792 Eh    ::
         :: gradient norm              0.003358482672 Eh/a0 ::
         :: HOMO-LUMO gap              1.851065376539 eV    ::
         :: SCC energy               -42.757831615589 Eh    ::
         :: -> dispersion             -0.021931942550 Eh    ::
         :: repulsion energy           2.618635845683 Eh    ::

    * Orbital Energies and Occupations

         #    Occupation            Energy/Eh            Energy/eV
      -------------------------------------------------------------
         1        2.0000           -0.8892459             -24.1976
       ...           ...                  ...                  ...
        25        1.9987           -0.6793979             -18.4874
        26        1.9977           -0.6669257             -18.1480
        27        1.9948           -0.6472552             -17.6127
        28        1.9937           -0.6424599             -17.4822
        29        1.9924           -0.6380695             -17.3628
        30        1.9892           -0.6297944             -17.1376
        31        1.9869           -0.6251880             -17.0122
        32        1.9808           -0.6159302             -16.7603
        33        1.9443           -0.5902672             -16.0620
        34        1.9150           -0.5798461             -15.7784
        35        1.9066           -0.5775188             -15.7151
        36        1.8639           -0.5680353             -15.4570
        37        1.7450           -0.5515548             -15.0086 (HOMO)
        38        0.5615           -0.4835294             -13.1575 (LUMO)
        39        0.1011           -0.4362111             -11.8699
        40        0.0235           -0.4005581             -10.8997
        41        0.0099           -0.3799534             -10.3391
        42        0.0005           -0.3070042              -8.3540
        43        0.0000           -0.2068591              -5.6289
        44        0.0000           -0.1483532              -4.0369
        45        0.0000           -0.1348779              -3.6702
        46                         -0.0778989              -2.1197
        47                         -0.0690185              -1.8781
        48                         -0.0259853              -0.7071
       ...                                ...                  ...
        67                          7.1488891             194.5312
      -------------------------------------------------------------
                  HL-Gap            0.0680254 Eh            1.8511 eV

     #   Z          covCN         q      C6AA      α(0)
     1   6 C        2.810    -0.024    28.585     8.759
     2   7 N        2.740     0.080    19.854     6.618
     3   6 C        2.820     0.103    25.714     8.309
     4   7 N        1.778    -0.243    27.171     7.719
     5   6 C        2.855     0.013    27.728     8.631
     6   6 C        2.922    -0.007    28.203     8.709
     7   6 C        2.771     0.265    22.524     7.773
     8   8 O        0.858    -0.351    20.735     6.105
     9   7 N        2.741    -0.062    22.442     7.036
    10   6 C        3.707    -0.062    21.840     6.680
    11   6 C        2.724     0.314    21.668     7.620
    12   8 O        0.859    -0.341    20.532     6.075
    13   7 N        2.742    -0.008    21.416     6.873
    14   6 C        3.703    -0.078    22.147     6.729
    15   1 H        0.926     0.131     1.531     1.935
    16   1 H        0.903     0.261     0.837     1.431
    17   1 H        0.926     0.131     1.524     1.930
    18   1 H        0.924     0.087     1.904     2.158
    19   1 H        0.925     0.123     1.586     1.969
    20   1 H        0.924     0.113     1.672     2.022
    21   1 H        0.924     0.115     1.654     2.011
    22   1 H        0.924     0.103     1.754     2.071
    23   1 H        0.925     0.102     1.763     2.077
    24   1 H        0.925     0.130     1.534     1.937
    25   1 H        0.925     0.104     1.748     2.067

Wiberg/Mayer (AO) data.
largest (>0.10) Wiberg bond orders for each atom

     #   Z sym  total        # sym  WBO       # sym  WBO       # sym  WBO
 ---------------------------------------------------------------------------
     1   6 C    3.440 --     2 N    1.408    17 H    0.958    15 H    0.955
     2   7 N    3.610 --     1 C    1.408     3 C    1.052     6 C    1.032
     3   6 C    3.836 --     4 N    1.820     2 N    1.052    18 H    0.913
     4   7 N    2.874 --     3 C    1.820    16 H    0.926
     5   6 C    3.843 --     6 C    1.494    13 N    1.251    25 H    0.948
     6   6 C    3.820 --     5 C    1.494     7 C    1.057     2 N    1.032
     7   6 C    3.917 --     8 O    1.650     9 N    1.111     6 C    1.057
     8   8 O    1.947 --     7 C    1.650     9 N    0.122
     9   7 N    3.502 --     7 C    1.111    11 C    1.110    10 C    0.977
                             8 O    0.122    12 O    0.120
    10   6 C    3.867 --     9 N    0.977    19 H    0.955    21 H    0.946
                            20 H    0.944
    11   6 C    3.939 --    12 O    1.672     9 N    1.110    13 N    1.069
    12   8 O    1.976 --    11 C    1.672     9 N    0.120    13 N    0.105
    13   7 N    3.539 --     5 C    1.251    11 C    1.069    14 C    0.981
                            12 O    0.105
    14   6 C    3.892 --    13 N    0.981    24 H    0.957    23 H    0.957
                            22 H    0.955
    15   1 H    0.978 --     1 C    0.955
    16   1 H    0.932 --     4 N    0.926
    17   1 H    0.978 --     1 C    0.958
    18   1 H    0.951 --     3 C    0.913
    19   1 H    0.973 --    10 C    0.955
    20   1 H    0.963 --    10 C    0.944
    21   1 H    0.965 --    10 C    0.946
    22   1 H    0.972 --    14 C    0.955
    23   1 H    0.973 --    14 C    0.957
    24   1 H    0.976 --    14 C    0.957
    25   1 H    0.984 --     5 C    0.948
 ---------------------------------------------------------------------------

molecular dipole:
                 x           y           z       tot (Debye)
 q only:        1.550      -1.190       0.218
   full:        1.683      -1.391       0.206       5.574

           -------------------------------------------------
          | TOTAL ENERGY              -72.898901887792 Eh   |
          | GRADIENT NORM               0.003358482672 Eh/α |
          | HOMO-LUMO GAP               1.851065376539 eV   |
           -------------------------------------------------

 * finished run on 2024/06/05 at 19:58:58.714
