   * xtb version 6.6.1 (8d0f1dd) compiled by 'conda@1efc2f54142f' on 2023-08-01
          program call               : xtb xtbopt.xyz --opt crude --input .xc2 --gfn2

   ID    Z sym.   atoms
    1    6 C      1, 3, 5-7, 10, 11, 14
    2    7 N      2, 4, 9, 13
    3    8 O      8, 12
    4    1 H      15-25
########################################################################
[WARNING] Please study the warnings concerning your input carefully
-1- readin_getIntValue: could not parse ''
########################################################################

          :  Hamiltonian                  GFN2-xTB          :
 * total energy  :   -40.1390946 Eh     change       -0.1243450E-11 Eh
 * total energy  :   -41.9759569 Eh     change       -0.1836862E+01 Eh
 * total energy  :   -42.1432344 Eh     change       -0.1672775E+00 Eh
 * total energy  :   -42.1529260 Eh     change       -0.9691596E-02 Eh
 * total energy  :   -42.1579778 Eh     change       -0.5051871E-02 Eh
 * total energy  :   -42.1585322 Eh     change       -0.5544056E-03 Eh
 * total energy  :   -42.1590882 Eh     change       -0.5559652E-03 Eh
 * total energy  :   -42.1595858 Eh     change       -0.4975832E-03 Eh
 * total energy  :   -42.1602161 Eh     change       -0.6302746E-03 Eh
 * total energy  :   -42.1609990 Eh     change       -0.7829547E-03 Eh
 * total energy  :   -42.1703934 Eh     change       -0.2040294E-02 Eh
 * total energy  :   -42.1714183 Eh     change       -0.1024919E-02 Eh
 * total energy  :   -42.1723520 Eh     change       -0.9337155E-03 Eh
 * total energy  :   -42.1730736 Eh     change       -0.7215629E-03 Eh
 * total energy  :   -42.1738407 Eh     change       -0.7671349E-03 Eh
 * total energy  :   -42.1743566 Eh     change       -0.5158497E-03 Eh
 * total energy  :   -42.1750787 Eh     change       -0.7220779E-03 Eh
 * total energy  :   -42.1756768 Eh     change       -0.5981005E-03 Eh
 * total energy  :   -42.1760853 Eh     change       -0.4085034E-03 Eh
   *** GEOMETRY OPTIMIZATION CONVERGED AFTER 24 ITERATIONS ***

 final structure:
================
25
 xtb: 6.6.1 (8d0f1dd)
C            2.79298007061254        1.32538494041510        0.39708590352925
N            2.21590531161461        0.21188970502075       -0.03370223970635
C            3.02845946641777       -0.80331037707337       -0.56557264728214
N            4.28075709133836       -0.69466516383358       -0.46343109921863
C            0.22206942037800       -1.18127437082453        0.13835349603503
C            0.82088567982575        0.04553306763148        0.00592743930794
C           -0.02201758567218        1.23893394882762       -0.11699086648586
O            0.40265877859152        2.36015204566704       -0.32526061602493
N           -1.38486783916766        1.00250968995731        0.02435537377286
C           -2.28468656295261        2.14389728893842        0.02844553365367
C           -1.98622426772410       -0.23371027563231        0.15426359031601
O           -3.18177592962941       -0.35916435315329        0.26123346119681
N           -1.12040286195718       -1.32969339152878        0.15324295182412
C           -1.70954559952109       -2.65106393648381        0.20842488092819
H            3.85711797589624        1.40638483743824        0.26207947653277
H            4.87697476884346       -1.40768151676323       -0.86347006589179
H            2.22034985259609        2.12846080641087        0.81340312175306
H            2.49106888865345       -1.61761594562858       -1.06218467950168
H           -1.69755209513229        3.04718617958957       -0.12590726084169
H           -3.03012387911892        2.03681623874332       -0.76231104482800
H           -2.81210272678433        2.19242300078553        0.98578090630237
H           -1.36233775012477       -3.19320070792198        1.08836700066523
H           -1.45305401403085       -3.21776586882939       -0.68810790900321
H           -2.79279603529341       -2.53833913521785        0.26044097320082
H            0.78869135643674       -2.09384816493404        0.25670593766652

          :  Hamiltonian                  GFN2-xTB          :
         :: total energy             -42.176085257017 Eh    ::
         :: gradient norm              0.009763687283 Eh/a0 ::
         :: HOMO-LUMO gap              2.245760658147 eV    ::
         :: SCC energy               -42.702201101201 Eh    ::
         :: -> dispersion             -0.021857214567 Eh    ::
         :: repulsion energy           0.526049270184 Eh    ::

    * Orbital Energies and Occupations

         #    Occupation            Energy/Eh            Energy/eV
      -------------------------------------------------------------
         1        2.0000           -0.8893627             -24.2008
       ...           ...                  ...                  ...
        25        1.9984           -0.6765756             -18.4106
        26        1.9975           -0.6656915             -18.1144
        27        1.9943           -0.6456555             -17.5692
        28        1.9931           -0.6411101             -17.4455
        29        1.9914           -0.6361338             -17.3101
        30        1.9892           -0.6306388             -17.1606
        31        1.9845           -0.6220019             -16.9255
        32        1.9804           -0.6162725             -16.7696
        33        1.9431           -0.5905648             -16.0701
        34        1.9073           -0.5785220             -15.7424
        35        1.9049           -0.5778970             -15.7254
        36        1.8501           -0.5664000             -15.4125
        37        1.8316           -0.5633866             -15.3305 (HOMO)
        38        0.5039           -0.4808565             -13.0848 (LUMO)
        39        0.1042           -0.4377915             -11.9129
        40        0.0246           -0.4025761             -10.9547
        41        0.0075           -0.3740539             -10.1785
        42        0.0004           -0.3042416              -8.2788
        43        0.0000           -0.2114569              -5.7540
        44        0.0000           -0.1590386              -4.3277
        45        0.0000           -0.1394810              -3.7955
        46                         -0.0844719              -2.2986
        47                         -0.0708695              -1.9285
        48                         -0.0505235              -1.3748
       ...                                ...                  ...
        67                          0.5178969              14.0927
      -------------------------------------------------------------
                  HL-Gap            0.0825302 Eh            2.2458 eV

     #   Z          covCN         q      C6AA      α(0)
     1   6 C        2.815    -0.026    28.629     8.767
     2   7 N        2.746     0.094    19.616     6.578
     3   6 C        2.786     0.113    25.498     8.271
     4   7 N        1.782    -0.227    26.785     7.665
     5   6 C        2.856     0.011    27.758     8.635
     6   6 C        2.914    -0.004    28.130     8.697
     7   6 C        2.770     0.265    22.538     7.775
     8   8 O        0.858    -0.350    20.712     6.102
     9   7 N        2.741    -0.061    22.428     7.034
    10   6 C        3.706    -0.062    21.844     6.681
    11   6 C        2.724     0.314    21.666     7.620
    12   8 O        0.859    -0.341    20.531     6.075
    13   7 N        2.741    -0.009    21.434     6.876
    14   6 C        3.703    -0.077    22.138     6.727
    15   1 H        0.926     0.147     1.415     1.860
    16   1 H        0.860     0.212     1.047     1.603
    17   1 H        0.926     0.144     1.431     1.871
    18   1 H        0.924     0.069     2.096     2.264
    19   1 H        0.925     0.124     1.579     1.965
    20   1 H        0.924     0.116     1.650     2.009
    21   1 H        0.924     0.113     1.670     2.021
    22   1 H        0.924     0.103     1.759     2.074
    23   1 H        0.924     0.102     1.768     2.079
    24   1 H        0.924     0.130     1.534     1.937
    25   1 H        0.926     0.101     1.774     2.083

Wiberg/Mayer (AO) data.
largest (>0.10) Wiberg bond orders for each atom

     #   Z sym  total        # sym  WBO       # sym  WBO       # sym  WBO
 ---------------------------------------------------------------------------
     1   6 C    3.439 --     2 N    1.413    17 H    0.949    15 H    0.947
     2   7 N    3.639 --     1 C    1.413     3 C    1.063     6 C    1.057
     3   6 C    3.853 --     4 N    1.817     2 N    1.063    18 H    0.921
     4   7 N    2.849 --     3 C    1.817    16 H    0.920
     5   6 C    3.829 --     6 C    1.477    13 N    1.251    25 H    0.947
     6   6 C    3.825 --     5 C    1.477     7 C    1.059     2 N    1.057
     7   6 C    3.914 --     8 O    1.647     9 N    1.109     6 C    1.059
     8   8 O    1.944 --     7 C    1.647     9 N    0.122
     9   7 N    3.501 --    11 C    1.113     7 C    1.109    10 C    0.977
                             8 O    0.122    12 O    0.119
    10   6 C    3.865 --     9 N    0.977    19 H    0.955    20 H    0.945
                            21 H    0.944
    11   6 C    3.938 --    12 O    1.669     9 N    1.113    13 N    1.068
    12   8 O    1.971 --    11 C    1.669     9 N    0.119    13 N    0.104
    13   7 N    3.536 --     5 C    1.251    11 C    1.068    14 C    0.982
                            12 O    0.104
    14   6 C    3.892 --    13 N    0.982    24 H    0.957    22 H    0.956
                            23 H    0.955
    15   1 H    0.973 --     1 C    0.947
    16   1 H    0.945 --     4 N    0.920
    17   1 H    0.974 --     1 C    0.949
    18   1 H    0.963 --     3 C    0.921
    19   1 H    0.973 --    10 C    0.955
    20   1 H    0.963 --    10 C    0.945
    21   1 H    0.963 --    10 C    0.944
    22   1 H    0.973 --    14 C    0.956
    23   1 H    0.972 --    14 C    0.955
    24   1 H    0.976 --    14 C    0.957
    25   1 H    0.985 --     5 C    0.947
 ---------------------------------------------------------------------------

molecular dipole:
                 x           y           z       tot (Debye)
 q only:        1.565      -1.174       0.114
   full:        1.598      -1.636      -0.053       5.815

           -------------------------------------------------
          | TOTAL ENERGY              -42.176085257017 Eh   |
          | GRADIENT NORM               0.009763687283 Eh/α |
          | HOMO-LUMO GAP               2.245760658147 eV   |
           -------------------------------------------------

 * finished run on 2024/06/05 at 19:58:59.531
