   * xtb version 6.6.1 (8d0f1dd) compiled by 'conda@1efc2f54142f' on 2023-08-01
          program call               : xtb xtbopt.xyz --opt crude --input .xc2 --gfn2

   ID    Z sym.   atoms
    1    7 N      1, 17
    2    6 C      2-6, 8, 9, 11-16, 18-23, 25, 26, 28-33
    3    8 O      7, 10, 24, 27
    4    1 H      34-72

          :  Hamiltonian                  GFN2-xTB          :
 * total energy  :   -99.2512054 Eh     change       -0.7887024E-11 Eh
   *** GEOMETRY OPTIMIZATION CONVERGED AFTER 1 ITERATIONS ***

 final structure:
================
72
 xtb: 6.6.1 (8d0f1dd)
N           -1.88375854475886        2.85031234621270        2.25043969587396
C           -1.83326737007047        2.14147075795396        1.22343136195198
C           -2.97739858421656        1.92969072123149        0.27105994653694
C           -3.43965983500490        0.48236888585112        0.34222269388243
C           -4.34491940410280       -0.00313896303230       -0.60388456391288
C           -4.81079057390455       -1.30619621547332       -0.55766007149150
O           -5.69012231739494       -1.85121685053538       -1.42438930142438
C           -6.27809313688659       -1.03814584774522       -2.41229540351332
C           -4.35318842068724       -2.17715371292477        0.46751499719480
O           -4.85347715402218       -3.42912765748317        0.43092801808120
C           -4.52213757405494       -4.32839336813604        1.46294799691521
C           -3.45696837855464       -1.68881836222364        1.40425781427454
C           -3.00888445345888       -0.37476541242401        1.34240341057113
C           -2.41344679395448        2.23999913673634       -1.14031200985360
C           -1.48021072932046        1.15523195953976       -1.70915084806425
C           -0.14844018677375        1.11174798270377       -1.06421936534315
N            0.49042685570483        0.00833838922742       -0.68689381724911
C            1.88428303799992        0.05671594060481       -0.31429028334489
C            2.79260000689994       -0.46303019573428       -1.44648772627510
C            4.23872727889204       -0.27461264660872       -1.08051797085141
C            4.92384582035068        0.86808278796637       -1.50018135815501
C            6.23201598726333        1.03616796335441       -1.14216939040611
C            6.90154159709179        0.11003065342839       -0.36783831647990
O            8.18407834276164        0.25759932349776        0.04818030304681
C            8.89886452713667        1.27498710649113       -0.33280348664159
C            6.22360795310067       -1.06653058486641        0.06364604179943
O            6.95552796288334       -1.92205810335569        0.80101600418180
C            6.35322994236690       -3.09460803279076        1.29959644664934
C            4.89502607159639       -1.22660719062558       -0.30525306904682
C           -0.14236278058698       -1.28878892751506       -0.71274373655869
C           -4.20342650200199        2.84466585492349        0.56558751200572
C           -4.83814488806314        2.51191394455275        1.91390386265510
C           -3.87132308231993        4.33293348221435        0.50567013045915
H           -4.70193535663924        0.65407852013624       -1.37922347167809
H           -6.81493840735027       -0.19371222229410       -1.96973081409805
H           -6.98506522972404       -1.67957940271023       -2.93476055092590
H           -5.53390201352000       -0.66745959754385       -3.12488242205848
H           -4.82361374222571       -3.94370659991640        2.44168970416165
H           -5.07747021061354       -5.23876451614755        1.24630713527260
H           -3.45043695522386       -4.55211273925623        1.47228937843198
H           -3.10641148652870       -2.32105231556810        2.20380189142238
H           -2.33617730023958       -0.02135031741823        2.10854214966536
H           -3.24695837111545        2.36242984903793       -1.83104418606794
H           -1.87542732868672        3.18799341638078       -1.10274570296824
H           -1.97787105730148        0.18801423040558       -1.67126417159436
H           -1.31838684867118        1.40688296278883       -2.76566968785869
H           -0.91671976489366        1.62551862461689        0.87552482143169
H            0.42045494800715        2.02958356038548       -1.03743023904098
H            2.03842649488149       -0.54737337094718        0.58408997057757
H            2.16162972001534        1.08772325842808       -0.08536367181915
H            2.56677594680803        0.09310870883078       -2.35785782294090
H            2.58694294009724       -1.51942159306559       -1.62648859003400
H            4.42374799217625        1.60666101062719       -2.10828753410980
H            7.34232442543106        3.07031642649257        1.29786562212354
H            7.93437118870222        2.71765405289395        0.90130534425192
H            8.55876917552310        1.92174104281246       -1.12937415215270
H            9.89480934074899        1.32127426322049        0.06873193886226
H            7.13087668734456       -3.60247832407458        1.86620204593423
H            5.51577551915847       -2.85935224793265        1.96274514487959
H            6.01129081318196       -3.74470301750186        0.48978684214476
H            4.35731714223521       -2.11095931513712        0.00032709412262
H           -0.30359313179860       -1.63173075318005       -1.73712979605118
H           -1.10549503627266       -1.25256826876880       -0.19830373382325
H            0.49430329596887       -2.00773703441202       -0.20331039811875
H           -4.94259890907255        2.63132648151127       -0.21513138635673
H           -4.14126499216765        2.72915604060328        2.71681993677978
H           -5.12326254961985        1.46402122447084        1.96671287498231
H           -5.73000080910218        3.11663213202185        2.05551593692807
H           -3.11433857792668        4.58088984429977        1.24317787943373
H           -3.52523507949941        4.63302711709882       -0.47987511769511
H           -4.76632846091348        4.90638029923000        0.73244159047053
H           -1.03762308802011        2.94472292688324        2.80354547260787

          :  Hamiltonian                  GFN2-xTB          :
         :: total energy             -99.251205392858 Eh    ::
         :: gradient norm              0.003343079807 Eh/a0 ::
         :: HOMO-LUMO gap              0.615180991071 eV    ::
         :: SCC energy              -100.640198659068 Eh    ::
         :: -> dispersion             -0.075244323991 Eh    ::
         :: repulsion energy           1.387701887370 Eh    ::

    * Orbital Energies and Occupations

         #    Occupation            Energy/Eh            Energy/eV
      -------------------------------------------------------------
         1        2.0000           -0.8408904             -22.8818
       ...           ...                  ...                  ...
        78        1.9989           -0.5324488             -14.4887
        79        1.9984           -0.5261636             -14.3176
        80        1.9983           -0.5256578             -14.3039
        81        1.9977           -0.5201032             -14.1527
        82        1.9962           -0.5124210             -13.9437
        83        1.9955           -0.5097774             -13.8718
        84        1.9947           -0.5070499             -13.7975
        85        1.9879           -0.4940868             -13.4448
        86        1.9823           -0.4879623             -13.2781
        87        1.9588           -0.4743998             -12.9091
        88        1.9411           -0.4686013             -12.7513
        89        1.8815           -0.4570542             -12.4371
        90        1.2659           -0.4218966             -11.4804 (HOMO)
        91        0.5852           -0.3992891             -10.8652 (LUMO)
        92        0.3976           -0.3912004             -10.6451
        93        0.0152           -0.3361201              -9.1463
        94        0.0038           -0.3140537              -8.5458
        95        0.0031           -0.3109416              -8.4612
        96        0.0030           -0.3102407              -8.4421
        97        0.0020           -0.3039770              -8.2716
        98        0.0000           -0.1882583              -5.1228
        99        0.0000           -0.1825515              -4.9675
       100                         -0.1343768              -3.6566
       101                         -0.0662340              -1.8023
       ...                                ...                  ...
       171                          0.5751214              15.6499
      -------------------------------------------------------------
                  HL-Gap            0.0226075 Eh            0.6152 eV

     #   Z          covCN         q      C6AA      α(0)
     1   7 N        1.774    -0.270    27.819     7.810
     2   6 C        2.827     0.101    25.747     8.315
     3   6 C        3.907     0.006    20.413     6.422
     4   6 C        2.974     0.002    27.980     8.677
     5   6 C        2.920    -0.080    30.008     8.983
     6   6 C        2.862     0.129    25.174     8.224
     7   8 O        1.706    -0.232    17.838     5.702
     8   6 C        3.644     0.028    20.440     6.498
     9   6 C        2.864     0.128    25.197     8.228
    10   8 O        1.706    -0.230    17.819     5.699
    11   6 C        3.645     0.027    20.446     6.499
    12   6 C        2.914    -0.075    29.873     8.962
    13   6 C        2.921    -0.054    29.333     8.882
    14   6 C        3.812    -0.064    21.726     6.634
    15   6 C        3.802    -0.069    21.814     6.650
    16   6 C        2.842     0.005    27.898     8.656
    17   7 N        2.729     0.007    21.130     6.827
    18   6 C        3.755    -0.015    20.891     6.517
    19   6 C        3.807    -0.069    21.816     6.649
    20   6 C        2.973     0.006    27.884     8.662
    21   6 C        2.920    -0.040    28.987     8.829
    22   6 C        1.993    -0.124    34.513     9.487
    23   6 C        2.893     0.109    25.595     8.295
    24   8 O        1.710    -0.099    15.821     5.370
    25   6 C        2.754     0.049    26.885     8.491
    26   6 C        2.861     0.137    25.016     8.198
    27   8 O        1.706    -0.232    17.853     5.705
    28   6 C        3.645     0.028    20.437     6.497
    29   6 C        2.918    -0.084    30.115     8.999
    30   6 C        3.699    -0.069    21.999     6.708
    31   6 C        3.853    -0.007    20.671     6.466
    32   6 C        3.756    -0.119    22.825     6.812
    33   6 C        3.755    -0.118    22.822     6.812
    34   1 H        0.926     0.051     2.302     2.372
    35   1 H        0.924     0.053     2.280     2.361
    36   1 H        0.925     0.080     1.974     2.197
    37   1 H        0.924     0.047     2.364     2.404
    38   1 H        0.924     0.054     2.266     2.354
    39   1 H        0.925     0.080     1.975     2.198
    40   1 H        0.924     0.047     2.358     2.401
    41   1 H        0.926     0.051     2.307     2.375
    42   1 H        0.926     0.038     2.472     2.459
    43   1 H        0.925     0.060     2.203     2.321
    44   1 H        0.924     0.053     2.280     2.361
    45   1 H        0.925     0.065     2.136     2.286
    46   1 H        0.923     0.079     1.994     2.208
    47   1 H        0.922     0.005     2.969     2.695
    48   1 H        0.926     0.068     2.108     2.271
    49   1 H        0.924     0.065     2.139     2.287
    50   1 H        0.924     0.068     2.113     2.273
    51   1 H        0.924     0.057     2.236     2.338
    52   1 H        0.924     0.056     2.245     2.343
    53   1 H        0.926     0.052     2.300     2.372
    54   1 H        0.751     0.015     2.907     2.691
    55   1 H        0.751     0.002     3.129     2.791
    56   1 H        0.926     0.087     1.912     2.162
    57   1 H        0.926     0.097     1.809     2.103
    58   1 H        0.925     0.081     1.967     2.193
    59   1 H        0.924     0.049     2.336     2.390
    60   1 H        0.924     0.053     2.286     2.365
    61   1 H        0.926     0.046     2.365     2.405
    62   1 H        0.924     0.075     2.032     2.229
    63   1 H        0.924     0.080     1.983     2.202
    64   1 H        0.925     0.078     2.003     2.213
    65   1 H        0.924     0.037     2.495     2.470
    66   1 H        0.925     0.069     2.100     2.266
    67   1 H        0.925     0.035     2.515     2.480
    68   1 H        0.925     0.050     2.314     2.379
    69   1 H        0.925     0.060     2.196     2.317
    70   1 H        0.925     0.034     2.527     2.486
    71   1 H        0.925     0.054     2.272     2.357
    72   1 H        0.860     0.156     1.362     1.828

Wiberg/Mayer (AO) data.
largest (>0.10) Wiberg bond orders for each atom

     #   Z sym  total        # sym  WBO       # sym  WBO       # sym  WBO
 ---------------------------------------------------------------------------
     1   7 N    3.039 --     2 C    1.956    72 H    0.942
     2   6 C    3.928 --     1 N    1.956     3 C    0.995    47 H    0.900
     3   6 C    3.976 --     2 C    0.995     4 C    0.970    14 C    0.957
                            31 C    0.942
     4   6 C    3.951 --    13 C    1.416     5 C    1.367     3 C    0.970
     5   6 C    3.963 --     6 C    1.403     4 C    1.367    34 H    0.958
     6   6 C    3.908 --     5 C    1.403     9 C    1.224     7 O    1.097
     7   8 O    2.254 --     6 C    1.097     8 C    0.978
     8   6 C    3.933 --     7 O    0.978    36 H    0.977    35 H    0.974
                            37 H    0.974
     9   6 C    3.904 --    12 C    1.394     6 C    1.224    10 O    1.099
    10   8 O    2.252 --     9 C    1.099    11 C    0.978
    11   6 C    3.932 --    10 O    0.978    39 H    0.977    40 H    0.974
                            38 H    0.974
    12   6 C    3.964 --    13 C    1.401     9 C    1.394    41 H    0.964
    13   6 C    3.956 --     4 C    1.416    12 C    1.401    42 H    0.963
    14   6 C    3.972 --    15 C    0.981    44 H    0.972    43 H    0.969
                             3 C    0.957
    15   6 C    3.986 --    16 C    1.059    14 C    0.981    45 H    0.962
                            46 H    0.928
    16   6 C    3.579 --    17 N    1.391    15 C    1.059    48 H    0.958
    17   7 N    3.469 --    16 C    1.391    30 C    0.998    18 C    0.990
    18   6 C    3.956 --    17 N    0.990    50 H    0.968    19 C    0.966
                            49 H    0.964
    19   6 C    3.968 --    20 C    1.005    51 H    0.972    52 H    0.969
                            18 C    0.966
    20   6 C    3.873 --    29 C    1.393    21 C    1.351    19 C    1.005
    21   6 C    3.935 --    22 C    1.462    20 C    1.351    53 H    0.957
    22   6 C    2.988 --    21 C    1.462    23 C    1.355
    23   6 C    3.848 --    22 C    1.355    26 C    1.202    24 O    1.042
    24   8 O    2.426 --    25 C    1.290    23 C    1.042
    25   6 C    3.411 --    24 O    1.290    57 H    0.965    56 H    0.958
    26   6 C    3.848 --    29 C    1.386    23 C    1.202    27 O    1.105
    27   8 O    2.258 --    26 C    1.105    28 C    0.973
    28   6 C    3.928 --    58 H    0.977    59 H    0.975    60 H    0.974
                            27 O    0.973
    29   6 C    3.959 --    20 C    1.393    26 C    1.386    61 H    0.960
    30   6 C    3.958 --    17 N    0.998    64 H    0.978    62 H    0.966
                            63 H    0.961
    31   6 C    3.973 --    33 C    1.009    32 C    1.008    65 H    0.960
                             3 C    0.942
    32   6 C    3.980 --    31 C    1.008    67 H    0.982    68 H    0.982
                            66 H    0.974
    33   6 C    3.984 --    31 C    1.009    70 H    0.983    71 H    0.980
                            69 H    0.977
    34   1 H    0.996 --     5 C    0.958
    35   1 H    0.994 --     8 C    0.974
    36   1 H    0.993 --     8 C    0.977
    37   1 H    0.994 --     8 C    0.974
    38   1 H    0.993 --    11 C    0.974
    39   1 H    0.993 --    11 C    0.977
    40   1 H    0.994 --    11 C    0.974
    41   1 H    0.996 --    12 C    0.964
    42   1 H    0.998 --    13 C    0.963
    43   1 H    0.995 --    14 C    0.969
    44   1 H    0.996 --    14 C    0.972
    45   1 H    0.995 --    15 C    0.962
    46   1 H    0.970 --    15 C    0.928
    47   1 H    0.987 --     2 C    0.900
    48   1 H    0.995 --    16 C    0.958
    49   1 H    0.991 --    18 C    0.964
    50   1 H    0.994 --    18 C    0.968
    51   1 H    0.995 --    19 C    0.972
    52   1 H    0.993 --    19 C    0.969
    53   1 H    0.984 --    21 C    0.957
    54   1 H    0.966 --    55 H    0.940
    55   1 H    0.999 --    54 H    0.940
    56   1 H    0.991 --    25 C    0.958
    57   1 H    0.989 --    25 C    0.965
    58   1 H    0.992 --    28 C    0.977
    59   1 H    0.995 --    28 C    0.975
    60   1 H    0.994 --    28 C    0.974
    61   1 H    0.991 --    29 C    0.960
    62   1 H    0.985 --    30 C    0.966
    63   1 H    0.987 --    30 C    0.961
    64   1 H    0.994 --    30 C    0.978
    65   1 H    0.993 --    31 C    0.960
    66   1 H    0.991 --    32 C    0.974
    67   1 H    0.997 --    32 C    0.982
    68   1 H    0.994 --    32 C    0.982
    69   1 H    0.993 --    33 C    0.977
    70   1 H    0.997 --    33 C    0.983
    71   1 H    0.994 --    33 C    0.980
    72   1 H    0.971 --     1 N    0.942
 ---------------------------------------------------------------------------

molecular dipole:
                 x           y           z       tot (Debye)
 q only:        1.560      -0.171      -0.667
   full:        1.770      -0.525      -0.724       5.041

           -------------------------------------------------
          | TOTAL ENERGY              -99.251205392858 Eh   |
          | GRADIENT NORM               0.003343079807 Eh/α |
          | HOMO-LUMO GAP               0.615180991071 eV   |
           -------------------------------------------------

 * finished run on 2024/04/06 at 11:14:00.459
