   * xtb version 6.6.1 (8d0f1dd) compiled by 'conda@1efc2f54142f' on 2023-08-01
          program call               : xtb struc.xyz --opt loose --input .xc1 --gfn2

   ID    Z sym.   atoms
    1    7 N      1, 17
    2    6 C      2-6, 8, 9, 11-16, 18-23, 25, 26, 28-33
    3    8 O      7, 10, 24, 27
    4    1 H      34-72
constraining bond 5 9 to    5.0000000 Å, actual value:    2.4208428 Å

          :  Hamiltonian                  GFN2-xTB          :
 * total energy  :   -98.2163857 Eh     change       -0.4035485E-08 Eh
 * total energy  :   -98.4684390 Eh     change       -0.2520533E+00 Eh
 * total energy  :   -98.6308806 Eh     change       -0.1624416E+00 Eh
 * total energy  :   -98.7254021 Eh     change       -0.9452151E-01 Eh
 * total energy  :   -98.7905028 Eh     change       -0.6510068E-01 Eh
 * total energy  :   -98.8392315 Eh     change       -0.4872870E-01 Eh
 * total energy  :   -98.8727903 Eh     change       -0.3355880E-01 Eh
 * total energy  :   -98.8938870 Eh     change       -0.2109678E-01 Eh
 * total energy  :   -98.9166491 Eh     change       -0.2276202E-01 Eh
 * total energy  :   -98.9385715 Eh     change       -0.2192246E-01 Eh
 * total energy  :   -99.1949897 Eh     change       -0.3682144E-03 Eh
 * total energy  :   -99.1952923 Eh     change       -0.3025207E-03 Eh
 * total energy  :   -99.1954918 Eh     change       -0.1995844E-03 Eh
 * total energy  :   -99.1956415 Eh     change       -0.1496345E-03 Eh
 * total energy  :   -99.1957578 Eh     change       -0.1163296E-03 Eh
 * total energy  :   -99.1958790 Eh     change       -0.1212081E-03 Eh
 * total energy  :   -99.1959394 Eh     change       -0.6042060E-04 Eh
 * total energy  :   -99.1960100 Eh     change       -0.7054049E-04 Eh
 * total energy  :   -99.1960519 Eh     change       -0.4192764E-04 Eh
   *** GEOMETRY OPTIMIZATION CONVERGED AFTER 84 ITERATIONS ***

 final structure:
================
72
 xtb: 6.6.1 (8d0f1dd)
N           -2.45888060964981        2.03374156500334        2.54200467669258
C           -2.27180522673672        1.52652312658075        1.41412522645225
C           -3.21137081286794        1.67655754402193        0.24494449231640
C           -3.64112617919705        0.29963790207983       -0.29063810170487
C           -4.14513141906656        0.36237913965181       -1.65923428462050
C           -4.35459954551350       -0.73154543271364       -2.40744998042625
O           -4.96948806844051       -1.01839645547297       -3.49831117715211
C           -6.03244573172524       -0.18282994227754       -3.98753717426707
C           -3.67507053655322       -2.92925523381430        1.84952094953413
O           -3.54033333200587       -2.58293499094475        3.10096866517152
C           -3.11002861930674       -3.57002326433873        4.03191402243077
C           -3.86682087144548       -2.13243428878066        0.74660780217626
C           -3.57252315026575       -0.72229040304314        0.65582244965064
C           -2.36391268922073        2.45943563203022       -0.79630076452436
C           -1.31767308602255        1.61838431954479       -1.55163302924275
C           -0.12649045675197        1.26348129952442       -0.75009505558332
N            0.41779920981178        0.05437514072189       -0.66834384792128
C            1.77584874663376       -0.10098014798677       -0.20250206208395
C            2.75123063958253       -0.26238638214491       -1.38698264782225
C            4.17550290863521       -0.12602432775654       -0.92727798328503
C            4.84065847630483        1.08294536362812       -1.04557731314084
C            6.15430648746590        1.21602968768627       -0.62256618487585
C            6.82752533920180        0.14083940820589       -0.06195567747931
O            8.10165365535499        0.15316922570743        0.37434738679098
C            8.86225161129918        1.33131726696211        0.23642224493174
C            6.14864884814434       -1.10104753491599        0.07706104683987
O            6.87509854142529       -2.09083454781601        0.63592162909918
C            6.29662659986721       -3.36379675028004        0.79493209861683
C            4.83761839955114       -1.21167868724707       -0.35742145542783
C           -0.23480640856352       -1.11907817551959       -1.19790857482797
C           -4.49856969489716        2.48817565452707        0.58619825840924
C           -5.34196141756064        1.79189551494320        1.65166961123727
C           -4.21407961407431        3.92307681430573        1.02520634135498
H           -4.26719326300967        1.35293463033019       -2.08837088049319
H           -6.64638933260594        0.17887250052316       -3.16113636103298
H           -6.62594989313750       -0.79394580827494       -4.66377543510222
H           -5.60454611180075        0.66345699965677       -4.52961798335848
H           -2.87800319518885       -3.03979709818251        4.95316574346642
H           -3.91313573337192       -4.28835915726458        4.21483922140295
H           -2.22783348495921       -4.09912480157588        3.66673555729520
H           -4.20643330496585       -2.62870572292913       -0.15473526728626
H           -3.20946142960289       -0.36852126668623        1.61640892121882
H           -3.02524182447286        2.91817144117409       -1.53131609176821
H           -1.85301871842895        3.27184373808188       -0.27713818695431
H           -1.78870626057384        0.73624257804747       -1.98104751109013
H           -0.96177015357601        2.24451989314776       -2.38113644276398
H           -1.34763639887878        0.98982246736473        1.12946862739795
H            0.43439965065978        2.07257384813963       -0.30617176098150
H            1.83980358411868       -0.97376709402548        0.45201433317637
H            2.06172935329504        0.78209210503021        0.37252073251075
H            2.53196298409772        0.51422280171194       -2.12202996923231
H            2.59845708536994       -1.23502796801306       -1.85640783644731
H            4.34244571507636        1.93333779359928       -1.48601590677772
H            6.64868304147088        2.16624079893740       -0.74044671741961
H            8.43130661288623        2.15686070017495        0.81112975921532
H            8.95640074184749        1.62621320026136       -0.81307343870420
H            9.84667899670046        1.09130482574335        0.63341642872514
H            7.06847803419228       -3.98021952524364        1.25169656931560
H            5.42444631803063       -3.32864617081193        1.45585811013933
H            6.01004779187581       -3.79792771672686       -0.16805137452804
H            4.31907995083243       -2.15370866227902       -0.27135293567070
H           -0.19370609701238       -1.14313901963548       -2.28936630085560
H           -1.28045387834783       -1.14627825937134       -0.88598918308890
H            0.26319777081749       -2.00645112652191       -0.81450739405594
H           -5.09182098520898        2.52814881359581       -0.33617903418751
H           -4.79846452209832        1.75347406208974        2.59044793403364
H           -5.60474801176147        0.78008668801624        1.35258568320612
H           -6.26132968325423        2.35022817117858        1.80877950053560
H           -3.58441503180141        3.92479884324138        1.90927846851116
H           -3.73669592994067        4.50531796371725        0.24199863110418
H           -5.15321129344781        4.41005255325721        1.27523026073920
H           -1.72808949007131        1.92051346301770        3.23762478499457

          :  Hamiltonian                  GFN2-xTB          :
         :: total energy             -99.196051914180 Eh    ::
         :: gradient norm              0.001618549881 Eh/a0 ::
         :: HOMO-LUMO gap              0.289766539608 eV    ::
         :: SCC energy              -100.549157535538 Eh    ::
         :: -> dispersion             -0.072333307538 Eh    ::
         :: repulsion energy           1.346902450716 Eh    ::

    * Orbital Energies and Occupations

         #    Occupation            Energy/Eh            Energy/eV
      -------------------------------------------------------------
         1        2.0000           -0.8204137             -22.3246
       ...           ...                  ...                  ...
        78        1.9985           -0.5250240             -14.2866
        79        1.9984           -0.5243453             -14.2682
        80        1.9980           -0.5208497             -14.1730
        81        1.9973           -0.5158384             -14.0367
        82        1.9961           -0.5099027             -13.8752
        83        1.9959           -0.5090995             -13.8533
        84        1.9954           -0.5072559             -13.8031
        85        1.9862           -0.4897458             -13.3267
        86        1.9802           -0.4840634             -13.1720
        87        1.9400           -0.4661473             -12.6845
        88        1.8587           -0.4519152             -12.2972
        89        1.7823           -0.4444061             -12.0929
        90        1.1726           -0.4166380             -11.3373 (HOMO)
        91        0.8395           -0.4059893             -11.0475 (LUMO)
        92        0.4224           -0.3902526             -10.6193
        93        0.0269           -0.3430973              -9.3362
        94        0.0135           -0.3321408              -9.0380
        95        0.0030           -0.3081602              -8.3855
        96        0.0025           -0.3054178              -8.3108
        97        0.0003           -0.2716418              -7.3917
        98        0.0000           -0.2231114              -6.0712
        99        0.0000           -0.1828645              -4.9760
       100                         -0.1292109              -3.5160
       101                         -0.0758574              -2.0642
       ...                                ...                  ...
       171                          0.5886197              16.0172
      -------------------------------------------------------------
                  HL-Gap            0.0106487 Eh            0.2898 eV

     #   Z          covCN         q      C6AA      α(0)
     1   7 N        1.773    -0.279    28.063     7.845
     2   6 C        2.831     0.102    25.736     8.313
     3   6 C        3.911     0.003    20.467     6.430
     4   6 C        2.949    -0.000    28.030     8.684
     5   6 C        2.889    -0.073    29.827     8.954
     6   6 C        1.867     0.052    29.805     8.818
     7   8 O        1.702    -0.170    16.867     5.545
     8   6 C        3.645     0.013    20.689     6.537
     9   6 C        1.872     0.043    30.037     8.852
    10   8 O        1.704    -0.168    16.843     5.541
    11   6 C        3.655     0.019    20.549     6.508
    12   6 C        2.886    -0.059    29.456     8.898
    13   6 C        2.896    -0.041    29.022     8.833
    14   6 C        3.817    -0.061    21.667     6.625
    15   6 C        3.802    -0.071    21.850     6.655
    16   6 C        2.843     0.004    27.917     8.659
    17   7 N        2.729     0.010    21.086     6.820
    18   6 C        3.756    -0.016    20.916     6.521
    19   6 C        3.808    -0.070    21.837     6.652
    20   6 C        2.968    -0.001    28.048     8.687
    21   6 C        2.922    -0.049    29.219     8.864
    22   6 C        2.914    -0.068    29.692     8.935
    23   6 C        2.865     0.133    25.095     8.211
    24   8 O        1.706    -0.224    17.720     5.683
    25   6 C        3.645     0.026    20.476     6.503
    26   6 C        2.863     0.132    25.104     8.213
    27   8 O        1.706    -0.227    17.765     5.691
    28   6 C        3.645     0.028    20.440     6.498
    29   6 C        2.919    -0.080    29.996     8.981
    30   6 C        3.700    -0.071    22.034     6.713
    31   6 C        3.851    -0.005    20.639     6.462
    32   6 C        3.756    -0.117    22.791     6.807
    33   6 C        3.755    -0.120    22.850     6.816
    34   1 H        0.925     0.062     2.178     2.308
    35   1 H        0.924     0.062     2.172     2.305
    36   1 H        0.925     0.084     1.943     2.180
    37   1 H        0.924     0.065     2.140     2.288
    38   1 H        0.925     0.079     1.989     2.206
    39   1 H        0.924     0.075     2.032     2.229
    40   1 H        0.924     0.063     2.166     2.301
    41   1 H        0.925     0.059     2.214     2.327
    42   1 H        0.925     0.049     2.336     2.390
    43   1 H        0.925     0.057     2.235     2.338
    44   1 H        0.924     0.053     2.278     2.360
    45   1 H        0.925     0.070     2.084     2.257
    46   1 H        0.923     0.077     2.014     2.220
    47   1 H        0.922     0.002     3.027     2.721
    48   1 H        0.926     0.066     2.135     2.285
    49   1 H        0.924     0.066     2.135     2.285
    50   1 H        0.924     0.067     2.117     2.275
    51   1 H        0.924     0.053     2.283     2.363
    52   1 H        0.924     0.056     2.242     2.342
    53   1 H        0.926     0.044     2.392     2.418
    54   1 H        0.926     0.057     2.229     2.335
    55   1 H        0.924     0.053     2.279     2.361
    56   1 H        0.924     0.055     2.262     2.352
    57   1 H        0.925     0.081     1.966     2.193
    58   1 H        0.925     0.081     1.972     2.196
    59   1 H        0.924     0.047     2.354     2.399
    60   1 H        0.924     0.051     2.301     2.372
    61   1 H        0.926     0.046     2.370     2.407
    62   1 H        0.924     0.077     2.015     2.220
    63   1 H        0.924     0.084     1.936     2.176
    64   1 H        0.925     0.078     1.997     2.210
    65   1 H        0.924     0.033     2.543     2.494
    66   1 H        0.925     0.064     2.149     2.293
    67   1 H        0.925     0.037     2.495     2.470
    68   1 H        0.925     0.049     2.333     2.389
    69   1 H        0.925     0.065     2.144     2.290
    70   1 H        0.925     0.033     2.538     2.491
    71   1 H        0.925     0.052     2.289     2.366
    72   1 H        0.860     0.153     1.380     1.840

Wiberg/Mayer (AO) data.
largest (>0.10) Wiberg bond orders for each atom

     #   Z sym  total        # sym  WBO       # sym  WBO       # sym  WBO
 ---------------------------------------------------------------------------
     1   7 N    3.026 --     2 C    1.938    72 H    0.943
     2   6 C    3.931 --     1 N    1.938     3 C    0.989    47 H    0.912
     3   6 C    3.969 --     2 C    0.989     4 C    0.970    14 C    0.955
                            31 C    0.943
     4   6 C    3.850 --    13 C    1.508     5 C    1.183     3 C    0.970
     5   6 C    3.841 --     6 C    1.608     4 C    1.183    34 H    0.897
     6   6 C    3.062 --     5 C    1.608     7 O    1.303
     7   8 O    2.335 --     6 C    1.303     8 C    0.913
     8   6 C    3.876 --    35 H    0.980    36 H    0.979    37 H    0.970
                             7 O    0.913
     9   6 C    2.936 --    12 C    1.551    10 O    1.246
    10   8 O    2.300 --     9 C    1.246    11 C    0.943
    11   6 C    3.900 --    38 H    0.979    40 H    0.978    39 H    0.970
                            10 O    0.943
    12   6 C    3.837 --     9 C    1.551    13 C    1.214    41 H    0.947
    13   6 C    3.829 --     4 C    1.508    12 C    1.214    42 H    0.942
    14   6 C    3.967 --    15 C    0.980    44 H    0.970    43 H    0.964
                             3 C    0.955
    15   6 C    3.984 --    16 C    1.060    14 C    0.980    45 H    0.958
                            46 H    0.928
    16   6 C    3.571 --    17 N    1.398    15 C    1.060    48 H    0.958
    17   7 N    3.468 --    16 C    1.398    30 C    0.998    18 C    0.988
    18   6 C    3.955 --    17 N    0.988    50 H    0.968    49 H    0.965
                            19 C    0.965
    19   6 C    3.975 --    20 C    1.008    51 H    0.973    52 H    0.971
                            18 C    0.965
    20   6 C    3.947 --    21 C    1.413    29 C    1.377    19 C    1.008
    21   6 C    3.952 --    22 C    1.414    20 C    1.413    53 H    0.968
    22   6 C    3.961 --    21 C    1.414    23 C    1.386    54 H    0.963
    23   6 C    3.898 --    22 C    1.386    26 C    1.221    24 O    1.107
    24   8 O    2.254 --    23 C    1.107    25 C    0.977
    25   6 C    3.930 --    57 H    0.977    24 O    0.977    56 H    0.973
                            55 H    0.973
    26   6 C    3.902 --    29 C    1.399    23 C    1.221    27 O    1.100
    27   8 O    2.254 --    26 C    1.100    28 C    0.979
    28   6 C    3.933 --    27 O    0.979    58 H    0.977    59 H    0.974
                            60 H    0.973
    29   6 C    3.960 --    26 C    1.399    20 C    1.377    61 H    0.963
    30   6 C    3.957 --    17 N    0.998    64 H    0.977    63 H    0.965
                            62 H    0.964
    31   6 C    3.967 --    32 C    1.009    33 C    1.007    65 H    0.959
                             3 C    0.943
    32   6 C    3.981 --    31 C    1.009    68 H    0.982    67 H    0.981
                            66 H    0.976
    33   6 C    3.981 --    31 C    1.007    70 H    0.983    71 H    0.980
                            69 H    0.974
    34   1 H    0.937 --     5 C    0.897
    35   1 H    0.994 --     8 C    0.980
    36   1 H    0.992 --     8 C    0.979
    37   1 H    0.986 --     8 C    0.970
    38   1 H    0.993 --    11 C    0.979
    39   1 H    0.984 --    11 C    0.970
    40   1 H    0.992 --    11 C    0.978
    41   1 H    0.980 --    12 C    0.947
    42   1 H    0.995 --    13 C    0.942
    43   1 H    0.995 --    14 C    0.964
    44   1 H    0.995 --    14 C    0.970
    45   1 H    0.995 --    15 C    0.958
    46   1 H    0.970 --    15 C    0.928
    47   1 H    0.987 --     2 C    0.912
    48   1 H    0.995 --    16 C    0.958
    49   1 H    0.991 --    18 C    0.965
    50   1 H    0.995 --    18 C    0.968
    51   1 H    0.996 --    19 C    0.973
    52   1 H    0.995 --    19 C    0.971
    53   1 H    0.997 --    21 C    0.968
    54   1 H    0.995 --    22 C    0.963
    55   1 H    0.992 --    25 C    0.973
    56   1 H    0.992 --    25 C    0.973
    57   1 H    0.993 --    25 C    0.977
    58   1 H    0.993 --    28 C    0.977
    59   1 H    0.994 --    28 C    0.974
    60   1 H    0.993 --    28 C    0.973
    61   1 H    0.997 --    29 C    0.963
    62   1 H    0.983 --    30 C    0.964
    63   1 H    0.988 --    30 C    0.965
    64   1 H    0.993 --    30 C    0.977
    65   1 H    0.993 --    31 C    0.959
    66   1 H    0.992 --    32 C    0.976
    67   1 H    0.997 --    32 C    0.981
    68   1 H    0.995 --    32 C    0.982
    69   1 H    0.992 --    33 C    0.974
    70   1 H    0.997 --    33 C    0.983
    71   1 H    0.994 --    33 C    0.980
    72   1 H    0.971 --     1 N    0.943
 ---------------------------------------------------------------------------

molecular dipole:
                 x           y           z       tot (Debye)
 q only:        0.053      -0.294      -0.693
   full:        0.161      -0.103      -0.865       2.253

           -------------------------------------------------
          | TOTAL ENERGY              -99.196051914180 Eh   |
          | GRADIENT NORM               0.001618549881 Eh/α |
          | HOMO-LUMO GAP               0.289766539608 eV   |
           -------------------------------------------------

 * finished run on 2024/04/06 at 11:12:33.212
