   * xtb version 6.6.1 (8d0f1dd) compiled by 'conda@1efc2f54142f' on 2023-08-01
          program call               : xtb xtbopt.xyz --opt crude --input .xc2 --gfn2

   ID    Z sym.   atoms
    1    7 N      1, 17
    2    6 C      2-6, 8, 9, 11-16, 18-23, 25, 26, 28-33
    3    8 O      7, 10, 24, 27
    4    1 H      34-72
########################################################################
[WARNING] Please study the warnings concerning your input carefully
-1- readin_getIntValue: could not parse ''
########################################################################

          :  Hamiltonian                  GFN2-xTB          :
 * total energy  :   -99.2009744 Eh     change       -0.6983782E-09 Eh
 * total energy  :   -99.2075204 Eh     change       -0.6545993E-02 Eh
 * total energy  :   -99.2112203 Eh     change       -0.3699882E-02 Eh
 * total energy  :   -99.2128560 Eh     change       -0.1635656E-02 Eh
 * total energy  :   -99.2143038 Eh     change       -0.1447874E-02 Eh
 * total energy  :   -99.2154752 Eh     change       -0.1171385E-02 Eh
 * total energy  :   -99.2163000 Eh     change       -0.8248013E-03 Eh
 * total energy  :   -99.2168105 Eh     change       -0.5104586E-03 Eh
 * total energy  :   -99.2172897 Eh     change       -0.4792025E-03 Eh
 * total energy  :   -99.2179119 Eh     change       -0.6222197E-03 Eh
 * total energy  :   -99.2979145 Eh     change       -0.1193575E-02 Eh
 * total energy  :   -99.2990462 Eh     change       -0.1131745E-02 Eh
 * total energy  :   -99.2997351 Eh     change       -0.6888175E-03 Eh
 * total energy  :   -99.3001969 Eh     change       -0.4618874E-03 Eh
 * total energy  :   -99.3006190 Eh     change       -0.4220903E-03 Eh
 * total energy  :   -99.3010007 Eh     change       -0.3816973E-03 Eh
 * total energy  :   -99.3014860 Eh     change       -0.4852215E-03 Eh
 * total energy  :   -99.3019749 Eh     change       -0.4888976E-03 Eh
 * total energy  :   -99.3024100 Eh     change       -0.4351414E-03 Eh
   *** GEOMETRY OPTIMIZATION CONVERGED AFTER 38 ITERATIONS ***

 final structure:
================
72
 xtb: 6.6.1 (8d0f1dd)
N           -2.17646209237373        2.94223273078764        2.29213163225539
C           -2.03339552806859        2.23845401518318        1.26870503705481
C           -3.11066589511951        1.99032403952989        0.24566816436991
C           -3.48520779605921        0.51317883297823        0.23135798202187
C           -4.23911005145260        0.05409804496228       -0.90637790496608
C           -4.46535871165787       -1.23851933267754       -1.21907822068585
O           -5.13963135546982       -1.72872027427696       -2.26173194263180
C           -5.77649752746301       -0.84447267780774       -3.15956588625907
C           -3.88632631295304       -2.61017797341942        2.08906168661756
O           -4.35342094221689       -3.74495672530288        2.48082133404361
C           -3.44199829994055       -4.84076754368014        2.59601522142658
C           -3.54271676167463       -1.57656851598373        1.55082630229031
C           -3.13944552665417       -0.25918808107481        1.29609768982874
C           -2.48398116533546        2.42712926017857       -1.10650496574630
C           -1.50883251548654        1.40930424744408       -1.72190084285701
C           -0.21920016545747        1.30817233826385       -1.00304601652739
N            0.37676783504728        0.17212901632540       -0.65322662124443
C            1.75005601642987        0.17734605289398       -0.20874622885130
C            2.71496991058635       -0.17162162274776       -1.35927621810413
C            4.13776180736471       -0.07457299213077       -0.88697266759033
C            4.81298145894138        1.13395482585649       -0.93061375887518
C            6.11834663575445        1.23421959814091       -0.47488294998008
C            6.77355762874800        0.12477184154683        0.03916834820995
O            8.03745355533751        0.10391727188549        0.50277519563757
C            8.80678006593030        1.28336730877869        0.45105360905283
C            6.08598739833732       -1.11875468682798        0.09448229592818
O            6.79644736526920       -2.14437734554655        0.60654479038669
C            6.21131101091749       -3.42268903614315        0.67043438375726
C            4.78106082963657       -1.19436310826451       -0.36532250017159
C           -0.25872675494149       -1.11259252912744       -0.83091295690040
C           -4.41244246680309        2.80536496105249        0.51229466528377
C           -5.09472582646443        2.37670210633096        1.80995390449608
C           -4.18299251492127        4.31509284499203        0.53458666412364
H           -4.62321257946463        0.81431381384402       -1.57223668866376
H           -6.54173629777701       -0.24754823535993       -2.65690412970065
H           -6.24684857444472       -1.48028522533117       -3.90989110286453
H           -5.05565178868397       -0.17932969179343       -3.64432143352295
H           -3.15708408458649       -4.97198058261177        3.64140750025166
H           -3.97807515551884       -5.72522366395252        2.25000728464841
H           -2.54988660835200       -4.67545113988972        1.99265528066699
H           -4.07408018906306       -2.04091280180008       -0.61323165837560
H           -2.55611742265878        0.19352778809402        2.09541420329134
H           -3.28056180534299        2.61590206251964       -1.82700840740647
H           -1.95843521831758        3.37174270750893       -0.95080265803205
H           -1.99363266618569        0.43954696731886       -1.80569366510594
H           -1.28903879171302        1.76114833630204       -2.73792076763462
H           -1.07822946608673        1.76328044783842        0.97466695117306
H            0.35092765987023        2.21478780537543       -0.86569691499592
H            1.87024793074346       -0.54593150177621        0.60226326197094
H            2.00363695001728        1.16748320227487        0.17669003922456
H            2.54635953183982        0.52954476244575       -2.17891981265118
H            2.50470969545794       -1.17989946185783       -1.71838227966330
H            4.32855154519730        2.00947257695777       -1.33565536652951
H            6.62072857984341        2.18592812525234       -0.52934610158392
H            8.36822740047540        2.07529902287676        1.06587897293843
H            8.92347235958912        1.64003215257964       -0.57671604197703
H            9.78163478197801        1.01354867876378        0.85242410051974
H            6.97573447947150       -4.07294850799732        1.09123465041958
H            5.33221767470771       -3.42991500401932        1.32307834424408
H            5.93336518410752       -3.78734688604436       -0.32341067373693
H            4.25324036609457       -2.13479561904443       -0.33638084186362
H           -0.37571933400646       -1.35519811076156       -1.89029938699438
H           -1.24317575790853       -1.11855786452571       -0.35613239750336
H            0.35367553485864       -1.88091835356765       -0.36539925082684
H           -5.09499679873958        2.58082631561403       -0.31612427018466
H           -4.43735531821238        2.55849644336065        2.65406640052889
H           -5.36336192624040        1.32267394065917        1.78972785293197
H           -6.00247983576721        2.95728987554256        1.94999780380834
H           -3.54272500362135        4.58378826140134        1.36905916633910
H           -3.73714347388697        4.67738687811038       -0.38904923593378
H           -5.13913266506647        4.81612288790677        0.66086695806623
H           -1.37387662323779        3.07082222824890        2.89752993185977

          :  Hamiltonian                  GFN2-xTB          :
         :: total energy             -99.302409995115 Eh    ::
         :: gradient norm              0.009613820164 Eh/a0 ::
         :: HOMO-LUMO gap              1.595567925791 eV    ::
         :: SCC energy              -100.730330445451 Eh    ::
         :: -> dispersion             -0.073333573934 Eh    ::
         :: repulsion energy           1.426715307266 Eh    ::

    * Orbital Energies and Occupations

         #    Occupation            Energy/Eh            Energy/eV
      -------------------------------------------------------------
         1        2.0000           -0.8155660             -22.1927
       ...           ...                  ...                  ...
        78        1.9986           -0.5289966             -14.3947
        79        1.9984           -0.5267413             -14.3334
        80        1.9983           -0.5258864             -14.3101
        81        1.9973           -0.5181369             -14.0992
        82        1.9970           -0.5164539             -14.0534
        83        1.9956           -0.5105856             -13.8937
        84        1.9953           -0.5093606             -13.8604
        85        1.9920           -0.5009590             -13.6318
        86        1.9801           -0.4864390             -13.2367
        87        1.9470           -0.4706343             -12.8066
        88        1.9375           -0.4679383             -12.7333
        89        1.8549           -0.4539134             -12.3516
        90        1.8311           -0.4513040             -12.2806 (HOMO)
        91        0.4218           -0.3926679             -10.6850 (LUMO)
        92        0.0407           -0.3522113              -9.5842
        93        0.0156           -0.3367918              -9.1646
        94        0.0029           -0.3102246              -8.4416
        95        0.0025           -0.3079133              -8.3787
        96        0.0001           -0.2626545              -7.1472
        97        0.0000           -0.2357749              -6.4158
        98        0.0000           -0.1957826              -5.3275
        99        0.0000           -0.1852391              -5.0406
       100                         -0.1336037              -3.6355
       101                         -0.0844457              -2.2979
       ...                                ...                  ...
       171                          1.2936194              35.2012
      -------------------------------------------------------------
                  HL-Gap            0.0586360 Eh            1.5956 eV

     #   Z          covCN         q      C6AA      α(0)
     1   7 N        1.774    -0.273    27.906     7.823
     2   6 C        2.828     0.101    25.761     8.317
     3   6 C        3.910     0.005    20.433     6.425
     4   6 C        2.959     0.012    27.740     8.639
     5   6 C        2.894    -0.085    30.122     8.999
     6   6 C        2.789     0.097    25.827     8.325
     7   8 O        1.704    -0.222    17.680     5.677
     8   6 C        3.645     0.023    20.515     6.509
     9   6 C        1.876     0.111    28.371     8.603
    10   8 O        1.703    -0.187    17.126     5.587
    11   6 C        3.660     0.024    20.438     6.487
    12   6 C        1.967    -0.093    33.628     9.365
    13   6 C        2.897    -0.030    28.752     8.792
    14   6 C        3.813    -0.062    21.686     6.628
    15   6 C        3.802    -0.069    21.816     6.650
    16   6 C        2.843     0.004    27.931     8.661
    17   7 N        2.729     0.009    21.109     6.824
    18   6 C        3.756    -0.016    20.913     6.520
    19   6 C        3.808    -0.070    21.834     6.652
    20   6 C        2.969    -0.001    28.047     8.687
    21   6 C        2.922    -0.049    29.222     8.865
    22   6 C        2.914    -0.068    29.687     8.935
    23   6 C        2.865     0.133    25.090     8.211
    24   8 O        1.706    -0.223    17.707     5.681
    25   6 C        3.645     0.025    20.481     6.504
    26   6 C        2.863     0.132    25.099     8.212
    27   8 O        1.706    -0.226    17.752     5.689
    28   6 C        3.645     0.028    20.442     6.498
    29   6 C        2.919    -0.080    29.993     8.981
    30   6 C        3.699    -0.070    22.006     6.709
    31   6 C        3.853    -0.006    20.646     6.463
    32   6 C        3.756    -0.118    22.817     6.811
    33   6 C        3.755    -0.119    22.834     6.813
    34   1 H        0.926     0.050     2.322     2.383
    35   1 H        0.924     0.060     2.205     2.322
    36   1 H        0.925     0.080     1.975     2.198
    37   1 H        0.924     0.050     2.316     2.380
    38   1 H        0.924     0.068     2.112     2.273
    39   1 H        0.924     0.079     1.989     2.205
    40   1 H        0.925     0.050     2.322     2.383
    41   1 H        0.926     0.068     2.112     2.273
    42   1 H        0.925     0.046     2.370     2.408
    43   1 H        0.924     0.058     2.217     2.329
    44   1 H        0.924     0.052     2.300     2.372
    45   1 H        0.925     0.066     2.134     2.284
    46   1 H        0.924     0.076     2.016     2.221
    47   1 H        0.922     0.003     3.003     2.710
    48   1 H        0.926     0.067     2.117     2.275
    49   1 H        0.924     0.066     2.129     2.282
    50   1 H        0.924     0.067     2.116     2.275
    51   1 H        0.924     0.054     2.269     2.356
    52   1 H        0.924     0.054     2.267     2.355
    53   1 H        0.926     0.044     2.394     2.419
    54   1 H        0.926     0.058     2.224     2.332
    55   1 H        0.924     0.054     2.274     2.358
    56   1 H        0.924     0.055     2.257     2.349
    57   1 H        0.925     0.082     1.961     2.190
    58   1 H        0.925     0.081     1.968     2.194
    59   1 H        0.924     0.048     2.351     2.398
    60   1 H        0.924     0.052     2.301     2.372
    61   1 H        0.926     0.046     2.369     2.407
    62   1 H        0.924     0.074     2.039     2.233
    63   1 H        0.924     0.080     1.975     2.198
    64   1 H        0.925     0.077     2.005     2.214
    65   1 H        0.924     0.036     2.506     2.475
    66   1 H        0.925     0.066     2.130     2.282
    67   1 H        0.925     0.036     2.500     2.473
    68   1 H        0.925     0.051     2.304     2.374
    69   1 H        0.925     0.064     2.153     2.295
    70   1 H        0.925     0.034     2.535     2.490
    71   1 H        0.925     0.053     2.287     2.365
    72   1 H        0.860     0.156     1.362     1.828

Wiberg/Mayer (AO) data.
largest (>0.10) Wiberg bond orders for each atom

     #   Z sym  total        # sym  WBO       # sym  WBO       # sym  WBO
 ---------------------------------------------------------------------------
     1   7 N    3.032 --     2 C    1.949    72 H    0.943
     2   6 C    3.930 --     1 N    1.949     3 C    0.992    47 H    0.907
     3   6 C    3.976 --     2 C    0.992     4 C    0.972    14 C    0.957
                            31 C    0.940
     4   6 C    3.923 --    13 C    1.603     5 C    1.159     3 C    0.972
     5   6 C    3.930 --     6 C    1.640     4 C    1.159    34 H    0.952
                             7 O    0.106
     6   6 C    3.868 --     5 C    1.640     7 O    1.143    41 H    0.940
     7   8 O    2.292 --     6 C    1.143     8 C    0.972     5 C    0.106
     8   6 C    3.932 --    36 H    0.978    35 H    0.974    37 H    0.973
                             7 O    0.972
     9   6 C    3.837 --    12 C    2.472    10 O    1.189
    10   8 O    2.319 --     9 C    1.189    11 C    0.933    12 C    0.148
    11   6 C    3.912 --    40 H    0.984    39 H    0.977    38 H    0.976
                            10 O    0.933
    12   6 C    3.889 --     9 C    2.472    13 C    1.182    10 O    0.148
    13   6 C    3.904 --     4 C    1.603    12 C    1.182    42 H    0.932
    14   6 C    3.969 --    15 C    0.980    44 H    0.972    43 H    0.968
                             3 C    0.957
    15   6 C    3.986 --    16 C    1.059    14 C    0.980    45 H    0.959
                            46 H    0.929
    16   6 C    3.572 --    17 N    1.394    15 C    1.059    48 H    0.958
    17   7 N    3.467 --    16 C    1.394    30 C    0.999    18 C    0.989
    18   6 C    3.956 --    17 N    0.989    50 H    0.968    19 C    0.965
                            49 H    0.965
    19   6 C    3.976 --    20 C    1.008    52 H    0.972    51 H    0.972
                            18 C    0.965
    20   6 C    3.946 --    21 C    1.411    29 C    1.379    19 C    1.008
    21   6 C    3.952 --    22 C    1.416    20 C    1.411    53 H    0.968
    22   6 C    3.961 --    21 C    1.416    23 C    1.385    54 H    0.963
    23   6 C    3.897 --    22 C    1.385    26 C    1.222    24 O    1.108
    24   8 O    2.255 --    23 C    1.108    25 C    0.976
    25   6 C    3.929 --    57 H    0.977    24 O    0.976    56 H    0.973
                            55 H    0.973
    26   6 C    3.901 --    29 C    1.397    23 C    1.222    27 O    1.101
    27   8 O    2.254 --    26 C    1.101    28 C    0.979
    28   6 C    3.933 --    27 O    0.979    58 H    0.977    59 H    0.974
                            60 H    0.973
    29   6 C    3.960 --    26 C    1.397    20 C    1.379    61 H    0.963
    30   6 C    3.958 --    17 N    0.999    64 H    0.978    62 H    0.966
                            63 H    0.962
    31   6 C    3.970 --    32 C    1.009    33 C    1.008    65 H    0.960
                             3 C    0.940
    32   6 C    3.980 --    31 C    1.009    67 H    0.982    68 H    0.981
                            66 H    0.975
    33   6 C    3.982 --    31 C    1.008    70 H    0.983    71 H    0.980
                            69 H    0.976
    34   1 H    0.996 --     5 C    0.952
    35   1 H    0.993 --     8 C    0.974
    36   1 H    0.993 --     8 C    0.978
    37   1 H    0.993 --     8 C    0.973
    38   1 H    0.991 --    11 C    0.976
    39   1 H    0.991 --    11 C    0.977
    40   1 H    0.997 --    11 C    0.984
    41   1 H    0.995 --     6 C    0.940
    42   1 H    0.991 --    13 C    0.932
    43   1 H    0.995 --    14 C    0.968
    44   1 H    0.996 --    14 C    0.972
    45   1 H    0.995 --    15 C    0.959
    46   1 H    0.970 --    15 C    0.929
    47   1 H    0.987 --     2 C    0.907
    48   1 H    0.995 --    16 C    0.958
    49   1 H    0.991 --    18 C    0.965
    50   1 H    0.994 --    18 C    0.968
    51   1 H    0.996 --    19 C    0.972
    52   1 H    0.996 --    19 C    0.972
    53   1 H    0.997 --    21 C    0.968
    54   1 H    0.995 --    22 C    0.963
    55   1 H    0.992 --    25 C    0.973
    56   1 H    0.992 --    25 C    0.973
    57   1 H    0.993 --    25 C    0.977
    58   1 H    0.993 --    28 C    0.977
    59   1 H    0.994 --    28 C    0.974
    60   1 H    0.993 --    28 C    0.973
    61   1 H    0.997 --    29 C    0.963
    62   1 H    0.985 --    30 C    0.966
    63   1 H    0.987 --    30 C    0.962
    64   1 H    0.994 --    30 C    0.978
    65   1 H    0.993 --    31 C    0.960
    66   1 H    0.992 --    32 C    0.975
    67   1 H    0.997 --    32 C    0.982
    68   1 H    0.994 --    32 C    0.981
    69   1 H    0.993 --    33 C    0.976
    70   1 H    0.997 --    33 C    0.983
    71   1 H    0.994 --    33 C    0.980
    72   1 H    0.971 --     1 N    0.943
 ---------------------------------------------------------------------------

molecular dipole:
                 x           y           z       tot (Debye)
 q only:        0.431      -0.381      -1.013
   full:        0.771      -0.425      -1.178       3.738

           -------------------------------------------------
          | TOTAL ENERGY              -99.302409995115 Eh   |
          | GRADIENT NORM               0.009613820164 Eh/α |
          | HOMO-LUMO GAP               1.595567925791 eV   |
           -------------------------------------------------

 * finished run on 2024/04/06 at 11:12:39.919
