   * xtb version 6.6.1 (8d0f1dd) compiled by 'conda@1efc2f54142f' on 2023-08-01
          program call               : xtb struc.xyz --opt loose --input .xc1 --gfn2

   ID    Z sym.   atoms
    1    6 C      1, 3, 5-7, 10, 11, 14
    2    7 N      2, 4, 9, 13
    3    8 O      8, 12
    4    1 H      15-25
constraining bond 6 19 to    4.7133300 Å, actual value:    3.8841935 Å

          :  Hamiltonian                  GFN2-xTB          :
 * total energy  :   -43.4753536 Eh     change       -0.6650680E-10 Eh
 * total energy  :   -46.4365393 Eh     change       -0.2961186E+01 Eh
 * total energy  :   -50.8119891 Eh     change       -0.4375450E+01 Eh
 * total energy  :   -56.4841946 Eh     change       -0.5672205E+01 Eh
 * total energy  :   -62.0970651 Eh     change       -0.5612870E+01 Eh
 * total energy  :   -69.6888638 Eh     change       -0.7591799E+01 Eh
 * total energy  :   -49.5948321 Eh     change        0.2009403E+02 Eh
 * total energy  :   -71.5908116 Eh     change       -0.2199598E+02 Eh
 * total energy  :   -71.9584323 Eh     change       -0.3676207E+00 Eh
 * total energy  :   -72.7931007 Eh     change       -0.8346684E+00 Eh
 * total energy  :   -73.3443693 Eh     change       -0.2223328E-04 Eh
 * total energy  :   -73.3443899 Eh     change       -0.2056705E-04 Eh
 * total energy  :   -73.3444082 Eh     change       -0.1836307E-04 Eh
 * total energy  :   -73.3444321 Eh     change       -0.2390484E-04 Eh
 * total energy  :   -73.3443088 Eh     change        0.1233359E-03 Eh
 * total energy  :   -73.3444525 Eh     change       -0.1437428E-03 Eh
 * total energy  :   -73.3444549 Eh     change       -0.2316310E-05 Eh
 * total energy  :   -73.3444687 Eh     change       -0.1387206E-04 Eh
 * total energy  :   -73.3444781 Eh     change       -0.9360692E-05 Eh
   *** GEOMETRY OPTIMIZATION CONVERGED AFTER 89 ITERATIONS ***

 final structure:
================
25
 xtb: 6.6.1 (8d0f1dd)
C            3.97836117823868        0.77683681162902        0.30686831220169
N            2.68674138957907        0.20196662406778        0.22203724690841
C            2.47147557660420       -1.03008564286796        0.06546138248998
N            1.19831145196886       -1.52818571184277       -0.01570568341903
C            0.07878143835021       -0.75222250048907        0.05563993866979
C            0.02487159834368        0.63729183743945        0.26809018275286
C           -1.92404579055103        2.87712396857276       -0.87332806167572
O           -1.65637831904943        3.22749628799035       -1.93704686541385
N           -1.39335061008006        0.86237817208946        0.24289492567743
C           -2.05762731216441        2.14384679354282        0.34706020381340
C           -2.11706763024938       -0.29550426732388        0.01521152096075
O           -3.31462960849485       -0.38160830022143       -0.06234314669204
N           -1.17048330688777       -1.29429317681194       -0.08339955891830
C           -1.51626173870837       -2.67530660694818       -0.30892692291199
H            4.06292122668497        1.29189365639861        1.26515119249472
H            4.78880665041336        0.04536612420545        0.21326115732464
H            4.07282538270673        1.52680564751632       -0.47991210415023
H            3.25088345318183       -1.79393502592344       -0.02062137580821
H            0.29152177746759        0.90568436112111        0.32956286774630
H           -3.12749479383032        1.92847433760439        0.52907610448711
H           -1.66881769316888        2.72756968193135        1.19448765270144
H           -1.17827409286398       -3.30108430605649        0.51831639136366
H           -1.09439477178726       -3.03446237142701       -1.24878406088657
H           -2.60327226259142       -2.72504557797047       -0.36733936578562
H            1.07702832098557       -2.52276227463177       -0.14454031602677

          :  Hamiltonian                  GFN2-xTB          :
         :: total energy             -73.344478087466 Eh    ::
         :: gradient norm              0.003133391336 Eh/a0 ::
         :: HOMO-LUMO gap              1.421714968343 eV    ::
         :: SCC energy               -42.699273382102 Eh    ::
         :: -> dispersion             -0.020568952189 Eh    ::
         :: repulsion energy           2.832001218737 Eh    ::

    * Orbital Energies and Occupations

         #    Occupation            Energy/Eh            Energy/eV
      -------------------------------------------------------------
         1        2.0000           -0.9457457             -25.7351
       ...           ...                  ...                  ...
        25        2.0000           -0.6561792             -17.8555
        26        2.0000           -0.6554862             -17.8367
        27        1.9999           -0.6499834             -17.6869
        28        1.9999           -0.6398019             -17.4099
        29        1.9999           -0.6389391             -17.3864
        30        1.9995           -0.6171974             -16.7948
        31        1.9995           -0.6154966             -16.7485
        32        1.9991           -0.6072363             -16.5237
        33        1.9971           -0.5885845             -16.0162
        34        1.9902           -0.5694834             -15.4964
        35        1.9684           -0.5508212             -14.9886
        36        1.8284           -0.5228481             -14.2274
        37        1.7111           -0.5135458             -13.9743 (HOMO)
        38        0.3586           -0.4612987             -12.5526 (LUMO)
        39        0.1448           -0.4450004             -12.1091
        40        0.0035           -0.3848260             -10.4716
        41        0.0002           -0.3409044              -9.2765
        42        0.0001           -0.3221836              -8.7671
        43                         -0.1959249              -5.3314
        44                         -0.1601032              -4.3566
        45                         -0.1028583              -2.7989
        46                         -0.0820606              -2.2330
        47                         -0.0714761              -1.9450
        48                         -0.0514998              -1.4014
       ...                                ...                  ...
        67                         14.6524910             398.7146
      -------------------------------------------------------------
                  HL-Gap            0.0522471 Eh            1.4217 eV

     #   Z          covCN         q      C6AA      α(0)
     1   6 C        3.707    -0.044    21.507     6.629
     2   7 N        1.831    -0.183    25.766     7.522
     3   6 C        2.785     0.119    25.377     8.251
     4   7 N        2.697    -0.102    23.240     7.160
     5   6 C        3.017     0.111    25.536     8.289
     6   6 C        2.878    -0.105    30.642     9.075
     7   6 C        1.846     0.253    25.299     8.125
     8   8 O        0.856    -0.049    15.785     5.327
     9   7 N        2.871    -0.085    22.886     7.105
    10   6 C        3.741    -0.011    20.854     6.515
    11   6 C        2.815     0.304    21.854     7.659
    12   8 O        0.857    -0.396    21.600     6.231
    13   7 N        2.802    -0.063    22.450     7.037
    14   6 C        3.690    -0.066    21.967     6.708
    15   1 H        0.924     0.091     1.867     2.137
    16   1 H        0.924     0.061     2.184     2.311
    17   1 H        0.924     0.091     1.871     2.139
    18   1 H        0.924     0.060     2.203     2.321
    19   1 H        0.959     0.181     1.196     1.709
    20   1 H        0.922     0.183     1.191     1.707
    21   1 H        0.923     0.157     1.346     1.815
    22   1 H        0.924     0.082     1.959     2.189
    23   1 H        0.924     0.081     1.965     2.192
    24   1 H        0.925     0.117     1.640     2.003
    25   1 H        0.860     0.213     1.042     1.599

Wiberg/Mayer (AO) data.
largest (>0.10) Wiberg bond orders for each atom

     #   Z sym  total        # sym  WBO       # sym  WBO       # sym  WBO
 ---------------------------------------------------------------------------
     1   6 C    3.937 --     2 N    1.050    16 H    0.953    17 H    0.948
                            15 H    0.947
     2   7 N    2.986 --     3 C    1.754     1 C    1.050
     3   6 C    3.938 --     2 N    1.754     4 N    1.158    18 H    0.923
     4   7 N    3.463 --     5 C    1.162     3 C    1.158    25 H    0.922
     5   6 C    3.905 --     6 C    1.439    13 N    1.168     4 N    1.162
     6   6 C    3.718 --     5 C    1.439     9 N    1.088    19 H    0.952
     7   6 C    3.387 --     8 O    2.187    10 C    1.106
     8   8 O    2.328 --     7 C    2.187
     9   7 N    3.439 --    11 C    1.096     6 C    1.088    10 C    0.968
                            12 O    0.131
    10   6 C    3.945 --     7 C    1.106     9 N    0.968    21 H    0.901
                            20 H    0.882
    11   6 C    3.943 --    12 O    1.644    13 N    1.107     9 N    1.096
    12   8 O    1.968 --    11 C    1.644     9 N    0.131    13 N    0.130
    13   7 N    3.543 --     5 C    1.168    11 C    1.107    14 C    0.985
                            12 O    0.130
    14   6 C    3.933 --    13 N    0.985    23 H    0.969    22 H    0.969
                            24 H    0.968
    15   1 H    0.978 --     1 C    0.947
    16   1 H    0.964 --     1 C    0.953
    17   1 H    0.979 --     1 C    0.948
    18   1 H    0.969 --     3 C    0.923
    19   1 H    0.967 --     6 C    0.952
    20   1 H    0.952 --    10 C    0.882
    21   1 H    0.960 --    10 C    0.901
    22   1 H    0.989 --    14 C    0.969
    23   1 H    0.989 --    14 C    0.969
    24   1 H    0.986 --    14 C    0.968
    25   1 H    0.954 --     4 N    0.922
 ---------------------------------------------------------------------------

molecular dipole:
                 x           y           z       tot (Debye)
 q only:        0.527       0.621       0.251
   full:        0.826       0.206       0.259       2.262

           -------------------------------------------------
          | TOTAL ENERGY              -73.344478087466 Eh   |
          | GRADIENT NORM               0.003133391336 Eh/α |
          | HOMO-LUMO GAP               1.421714968343 eV   |
           -------------------------------------------------

 * finished run on 2024/06/05 at 19:59:14.524
