   * xtb version 6.6.1 (8d0f1dd) compiled by 'conda@1efc2f54142f' on 2023-08-01
          program call               : xtb xtbopt.xyz --opt crude --input .xc2 --gfn2

   ID    Z sym.   atoms
    1    6 C      1, 3, 5-7, 10, 11, 14
    2    7 N      2, 4, 9, 13
    3    8 O      8, 12
    4    1 H      15-25
########################################################################
[WARNING] Please study the warnings concerning your input carefully
-1- readin_getIntValue: could not parse ''
########################################################################

          :  Hamiltonian                  GFN2-xTB          :
 * total energy  :   -39.8671891 Eh     change       -0.2685852E-11 Eh
 * total energy  :   -42.0863171 Eh     change       -0.2219128E+01 Eh
 * total energy  :   -42.1322184 Eh     change       -0.4590121E-01 Eh
 * total energy  :   -42.1375911 Eh     change       -0.5372760E-02 Eh
 * total energy  :   -42.1387025 Eh     change       -0.1111407E-02 Eh
 * total energy  :   -42.1391326 Eh     change       -0.4300612E-03 Eh
 * total energy  :   -42.1397092 Eh     change       -0.5766306E-03 Eh
 * total energy  :   -42.1401797 Eh     change       -0.4705098E-03 Eh
 * total energy  :   -42.1405186 Eh     change       -0.3389189E-03 Eh
 * total energy  :   -42.1406184 Eh     change       -0.9979001E-04 Eh
   *** GEOMETRY OPTIMIZATION CONVERGED AFTER 10 ITERATIONS ***

 final structure:
================
25
 xtb: 6.6.1 (8d0f1dd)
C            4.04786851664431        0.71685685326281        0.30847130804938
N            2.72843682639777        0.20377663071200        0.22241103657946
C            2.46947347134963       -1.02070392153730        0.06556542311661
N            1.19123873660384       -1.49670115931078       -0.02062063124738
C            0.05916150772373       -0.73624067515324        0.05079415869736
C           -0.09332141603781        0.60897908383214        0.25780273475936
C           -2.01708774610739        2.86261423845436       -0.87926849629864
O           -1.73321588867711        3.16947607096633       -1.95441628723454
N           -1.44844527018031        0.86433937758970        0.25388644624698
C           -2.13920514211891        2.13259205792182        0.34572478582265
C           -2.14834001011974       -0.31478411251656        0.01745461650633
O           -3.34625851710639       -0.41477038012995       -0.05810040488767
N           -1.18867943768701       -1.29748574643746       -0.09065285555949
C           -1.51172278164454       -2.68237344264480       -0.32115650390894
H            4.15672406424421        1.23255731570605        1.26390274695195
H            4.82100692872488       -0.05485730339688        0.22201845765990
H            4.18317539679294        1.45510292465471       -0.48360269783593
H            3.23117049581257       -1.80369333815080       -0.01747318561122
H            0.65202352593501        1.35537710716997        0.42599095454865
H           -3.20393701590963        1.88892122021888        0.51917818279518
H           -1.77465990254135        2.72928312692648        1.19319540152659
H           -1.16809675939828       -3.30510625549284        0.50644567380994
H           -1.07863926770961       -3.03306220566418       -1.25935337535125
H           -2.59716694114845       -2.75072691499853       -0.38595964945789
H            1.06892814025531       -2.49113201038710       -0.15106622177393

          :  Hamiltonian                  GFN2-xTB          :
         :: total energy             -42.140618432802 Eh    ::
         :: gradient norm              0.004237710205 Eh/a0 ::
         :: HOMO-LUMO gap              1.315182915634 eV    ::
         :: SCC energy               -42.685775013111 Eh    ::
         :: -> dispersion             -0.020439420367 Eh    ::
         :: repulsion energy           0.545076494863 Eh    ::

    * Orbital Energies and Occupations

         #    Occupation            Energy/Eh            Energy/eV
      -------------------------------------------------------------
         1        2.0000           -0.9419813             -25.6326
       ...           ...                  ...                  ...
        25        2.0000           -0.6558003             -17.8452
        26        2.0000           -0.6550763             -17.8255
        27        1.9999           -0.6498273             -17.6827
        28        1.9999           -0.6399252             -17.4133
        29        1.9999           -0.6390287             -17.3889
        30        1.9996           -0.6177229             -16.8091
        31        1.9996           -0.6166559             -16.7801
        32        1.9991           -0.6056135             -16.4796
        33        1.9973           -0.5879081             -15.9978
        34        1.9914           -0.5697628             -15.5040
        35        1.9696           -0.5495286             -14.9534
        36        1.8369           -0.5218150             -14.1993
        37        1.6734           -0.5093421             -13.8599 (HOMO)
        38        0.3897           -0.4610100             -12.5447 (LUMO)
        39        0.1410           -0.4426369             -12.0448
        40        0.0026           -0.3779680             -10.2850
        41        0.0002           -0.3371704              -9.1749
        42        0.0001           -0.3163067              -8.6071
        43                         -0.1823834              -4.9629
        44                         -0.1623197              -4.4169
        45                         -0.1071277              -2.9151
        46                         -0.0756966              -2.0598
        47                         -0.0617985              -1.6816
        48                         -0.0445216              -1.2115
       ...                                ...                  ...
        67                          0.7550156              20.5450
      -------------------------------------------------------------
                  HL-Gap            0.0483321 Eh            1.3152 eV

     #   Z          covCN         q      C6AA      α(0)
     1   6 C        3.709    -0.042    21.471     6.623
     2   7 N        1.829    -0.190    25.944     7.548
     3   6 C        2.783     0.119    25.375     8.251
     4   7 N        2.694    -0.101    23.219     7.157
     5   6 C        2.977     0.113    25.499     8.283
     6   6 C        2.956    -0.039    28.963     8.827
     7   6 C        1.845     0.247    25.430     8.146
     8   8 O        0.856    -0.057    15.902     5.346
     9   7 N        2.848    -0.053    22.258     7.007
    10   6 C        3.741    -0.014    20.898     6.522
    11   6 C        2.857     0.302    21.881     7.667
    12   8 O        0.857    -0.396    21.600     6.231
    13   7 N        2.828    -0.059    22.386     7.027
    14   6 C        3.689    -0.066    21.962     6.707
    15   1 H        0.924     0.089     1.888     2.149
    16   1 H        0.924     0.059     2.209     2.324
    17   1 H        0.924     0.089     1.888     2.149
    18   1 H        0.924     0.058     2.218     2.329
    19   1 H        0.927     0.110     1.695     2.036
    20   1 H        0.922     0.183     1.187     1.704
    21   1 H        0.923     0.155     1.360     1.824
    22   1 H        0.924     0.081     1.967     2.193
    23   1 H        0.924     0.081     1.972     2.196
    24   1 H        0.925     0.116     1.647     2.007
    25   1 H        0.860     0.215     1.034     1.593

Wiberg/Mayer (AO) data.
largest (>0.10) Wiberg bond orders for each atom

     #   Z sym  total        # sym  WBO       # sym  WBO       # sym  WBO
 ---------------------------------------------------------------------------
     1   6 C    3.939 --     2 N    1.049    16 H    0.954    17 H    0.949
                            15 H    0.949
     2   7 N    2.976 --     3 C    1.748     1 C    1.049
     3   6 C    3.939 --     2 N    1.748     4 N    1.164    18 H    0.923
     4   7 N    3.452 --     3 C    1.164     5 C    1.151    25 H    0.922
     5   6 C    3.893 --     6 C    1.460     4 N    1.151    13 N    1.146
     6   6 C    3.769 --     5 C    1.460     9 N    1.148    19 H    0.956
     7   6 C    3.366 --     8 O    2.172    10 C    1.100
     8   8 O    2.309 --     7 C    2.172
     9   7 N    3.466 --     6 C    1.148    11 C    1.074    10 C    0.966
                            12 O    0.124
    10   6 C    3.942 --     7 C    1.100     9 N    0.966    21 H    0.904
                            20 H    0.884
    11   6 C    3.938 --    12 O    1.641    13 N    1.122     9 N    1.074
    12   8 O    1.959 --    11 C    1.641    13 N    0.134     9 N    0.124
    13   7 N    3.535 --     5 C    1.146    11 C    1.122    14 C    0.987
                            12 O    0.134
    14   6 C    3.934 --    13 N    0.987    23 H    0.969    22 H    0.969
                            24 H    0.968
    15   1 H    0.979 --     1 C    0.949
    16   1 H    0.967 --     1 C    0.954
    17   1 H    0.979 --     1 C    0.949
    18   1 H    0.970 --     3 C    0.923
    19   1 H    0.987 --     6 C    0.956
    20   1 H    0.952 --    10 C    0.884
    21   1 H    0.961 --    10 C    0.904
    22   1 H    0.989 --    14 C    0.969
    23   1 H    0.989 --    14 C    0.969
    24   1 H    0.986 --    14 C    0.968
    25   1 H    0.953 --     4 N    0.922
 ---------------------------------------------------------------------------

molecular dipole:
                 x           y           z       tot (Debye)
 q only:        0.415       0.584       0.289
   full:        0.791       0.243       0.320       2.254

           -------------------------------------------------
          | TOTAL ENERGY              -42.140618432802 Eh   |
          | GRADIENT NORM               0.004237710205 Eh/α |
          | HOMO-LUMO GAP               1.315182915634 eV   |
           -------------------------------------------------

 * finished run on 2024/06/05 at 19:59:14.908
