   * xtb version 6.6.1 (8d0f1dd) compiled by 'conda@1efc2f54142f' on 2023-08-01
          program call               : xtb struc.xyz --opt loose --input .xc1 --gfn2

   ID    Z sym.   atoms
    1    6 C      1, 3, 5-7, 10, 11, 14
    2    7 N      2, 4, 9, 13
    3    8 O      8, 12
    4    1 H      15-25
constraining bond 11 14 to    5.0000000 Å, actual value:    2.4709087 Å

          :  Hamiltonian                  GFN2-xTB          :
 * total energy  :   -30.8392460 Eh     change       -0.2401990E-09 Eh
 * total energy  :   -35.0441846 Eh     change       -0.4204939E+01 Eh
 * total energy  :   -38.3443895 Eh     change       -0.3300205E+01 Eh
 * total energy  :   -40.4643033 Eh     change       -0.2119914E+01 Eh
 * total energy  :   -41.4815495 Eh     change       -0.1017246E+01 Eh
 * total energy  :   -41.7017966 Eh     change       -0.2202472E+00 Eh
 * total energy  :   -41.7399803 Eh     change       -0.3818371E-01 Eh
 * total energy  :   -41.7623162 Eh     change       -0.2233582E-01 Eh
 * total energy  :   -41.7784709 Eh     change       -0.1615473E-01 Eh
 * total energy  :   -41.8092449 Eh     change       -0.3077398E-01 Eh
 * total energy  :   -42.1579661 Eh     change       -0.3785871E-02 Eh
 * total energy  :   -42.1591956 Eh     change       -0.1229466E-02 Eh
 * total energy  :   -42.1607958 Eh     change       -0.1600189E-02 Eh
 * total energy  :   -42.1572917 Eh     change        0.3504046E-02 Eh
 * total energy  :   -42.1617494 Eh     change       -0.4457690E-02 Eh
 * total energy  :   -42.1619092 Eh     change       -0.1598279E-03 Eh
 * total energy  :   -42.1618799 Eh     change        0.2930825E-04 Eh
 * total energy  :   -42.1620871 Eh     change       -0.2072004E-03 Eh
 * total energy  :   -42.1621193 Eh     change       -0.3213512E-04 Eh
   *** GEOMETRY OPTIMIZATION CONVERGED AFTER 38 ITERATIONS ***

 final structure:
================
25
 xtb: 6.6.1 (8d0f1dd)
C            3.25245961124537        1.19012134976402        0.01633885436144
N            2.18343792367045        0.22924383722483        0.00031336666567
C            2.30195362574420       -1.09839889754376       -0.00403215826911
N            1.08251948708552       -1.67449741067946        0.00039223372055
C            0.13808639131143       -0.68204036874632        0.00883172352689
C            0.84730019682480        0.52928177066594        0.00871017176530
C            0.12982614565741        1.78114130054085       -0.00438547123913
O            0.64114863096768        2.88702717986135       -0.02486233611112
N           -1.24220704060383        1.58208495872867        0.00477340923495
C           -2.09904221357095        2.74621824259904       -0.00407654657238
C           -1.91581669625910        0.32486396029135        0.01770100563054
O           -3.12195828375723        0.32079135233750        0.02933726423281
N           -1.16518225460105       -0.80496752215027        0.01507202875898
C           -1.39196362012883       -4.64764031442282       -0.01695899480435
H            3.75946654592972        1.17849940448421        0.98321872603772
H            3.97952505155999        0.96285203674741       -0.76312359657568
H            2.83363067651109        2.18321677982343       -0.14837813265819
H            3.23103958391559       -1.63396361770846       -0.01110661086911
H           -1.47234880023485        3.63767213238828        0.00104773139444
H           -2.73524122434625        2.73481101535772       -0.89223574771197
H           -2.75252846813954        2.73432518698441        0.87138459756437
H           -0.89500211005594       -4.84714443250341        0.91107772524443
H           -0.90219292693472       -4.84797392284106       -0.95033997052734
H           -2.40636761472783       -4.30343754746107       -0.01374793737625
H            0.87988889703668       -2.66384793214262       -0.00377971752348

          :  Hamiltonian                  GFN2-xTB          :
         :: total energy             -42.162119268573 Eh    ::
         :: gradient norm              0.003298372380 Eh/a0 ::
         :: HOMO-LUMO gap              1.414293005499 eV    ::
         :: SCC energy               -42.687409333888 Eh    ::
         :: -> dispersion             -0.020617744953 Eh    ::
         :: repulsion energy           0.525244747061 Eh    ::

    * Orbital Energies and Occupations

         #    Occupation            Energy/Eh            Energy/eV
      -------------------------------------------------------------
         1        2.0000           -0.9075319             -24.6952
       ...           ...                  ...                  ...
        25        1.9973           -0.6610750             -17.9888
        26        1.9944           -0.6435214             -17.5111
        27        1.9935           -0.6401130             -17.4184
        28        1.9874           -0.6241892             -16.9851
        29        1.9872           -0.6237807             -16.9739
        30        1.9848           -0.6197129             -16.8632
        31        1.9839           -0.6183668             -16.8266
        32        1.9773           -0.6100695             -16.6008
        33        1.9278           -0.5820109             -15.8373
        34        1.8653           -0.5664031             -15.4126
        35        1.8502           -0.5636979             -15.3390
        36        1.8029           -0.5565572             -15.1447
        37        1.7171           -0.5468157             -14.8796 (HOMO)
        38        0.8098           -0.4948414             -13.4653 (LUMO)
        39        0.1016           -0.4344469             -11.8219
        40        0.0211           -0.3960964             -10.7783
        41        0.0052           -0.3626907              -9.8693
        42        0.0001           -0.2769457              -7.5361
        43        0.0000           -0.1921667              -5.2291
        44        0.0000           -0.1744754              -4.7477
        45        0.0000           -0.1318920              -3.5890
        46                         -0.0800030              -2.1770
        47                         -0.0382556              -1.0410
        48                         -0.0319862              -0.8704
       ...                                ...                  ...
        67                          0.5333466              14.5131
      -------------------------------------------------------------
                  HL-Gap            0.0519743 Eh            1.4143 eV

     #   Z          covCN         q      C6AA      α(0)
     1   6 C        3.691    -0.091    22.431     6.777
     2   7 N        2.821     0.082    19.810     6.610
     3   6 C        3.052     0.058    26.660     8.468
     4   7 N        2.789    -0.057    22.333     7.019
     5   6 C        3.057     0.147    24.760     8.160
     6   6 C        3.121    -0.017    28.257     8.706
     7   6 C        2.766     0.273    22.381     7.748
     8   8 O        0.858    -0.352    20.749     6.107
     9   7 N        2.746    -0.077    22.727     7.080
    10   6 C        3.703    -0.057    21.750     6.668
    11   6 C        2.751     0.338    21.252     7.549
    12   8 O        0.860    -0.304    19.844     5.973
    13   7 N        1.832    -0.239    27.097     7.714
    14   6 C        2.779    -0.107    30.690     9.074
    15   1 H        0.924     0.113     1.672     2.022
    16   1 H        0.925     0.109     1.703     2.041
    17   1 H        0.924     0.137     1.483     1.904
    18   1 H        0.926     0.125     1.572     1.961
    19   1 H        0.925     0.123     1.588     1.970
    20   1 H        0.924     0.118     1.633     1.999
    21   1 H        0.924     0.118     1.628     1.995
    22   1 H        0.926     0.103     1.758     2.073
    23   1 H        0.926     0.103     1.758     2.073
    24   1 H        0.926     0.120     1.609     1.984
    25   1 H        0.860     0.232     0.958     1.533

Wiberg/Mayer (AO) data.
largest (>0.10) Wiberg bond orders for each atom

     #   Z sym  total        # sym  WBO       # sym  WBO       # sym  WBO
 ---------------------------------------------------------------------------
     1   6 C    3.898 --     2 N    0.988    16 H    0.958    17 H    0.956
                            15 H    0.950
     2   7 N    3.658 --     3 C    1.361     6 C    1.172     1 C    0.988
     3   6 C    3.796 --     2 N    1.361     4 N    1.292    18 H    0.952
     4   7 N    3.562 --     3 C    1.292     5 C    1.157    25 H    0.917
     5   6 C    3.924 --    13 N    1.368     6 C    1.249     4 N    1.157
     6   6 C    3.775 --     5 C    1.249     2 N    1.172     7 C    1.086
     7   6 C    3.926 --     8 O    1.618     9 N    1.130     6 C    1.086
     8   8 O    1.891 --     7 C    1.618     9 N    0.125
     9   7 N    3.424 --     7 C    1.130    11 C    1.017    10 C    0.993
                             8 O    0.125
    10   6 C    3.850 --     9 N    0.993    19 H    0.949    21 H    0.935
                            20 H    0.934
    11   6 C    3.932 --    12 O    1.659    13 N    1.176     9 N    1.017
    12   8 O    1.903 --    11 C    1.659
    13   7 N    2.805 --     5 C    1.368    11 C    1.176
    14   6 C    2.935 --    22 H    0.979    23 H    0.979    24 H    0.974
    15   1 H    0.977 --     1 C    0.950
    16   1 H    0.980 --     1 C    0.958
    17   1 H    0.976 --     1 C    0.956
    18   1 H    0.983 --     3 C    0.952
    19   1 H    0.967 --    10 C    0.949
    20   1 H    0.952 --    10 C    0.934
    21   1 H    0.952 --    10 C    0.935
    22   1 H    0.981 --    14 C    0.979
    23   1 H    0.981 --    14 C    0.979
    24   1 H    0.976 --    14 C    0.974
    25   1 H    0.945 --     4 N    0.917
 ---------------------------------------------------------------------------

molecular dipole:
                 x           y           z       tot (Debye)
 q only:        2.389      -1.849      -0.001
   full:        2.708      -2.118       0.002       8.737

           -------------------------------------------------
          | TOTAL ENERGY              -42.162119268573 Eh   |
          | GRADIENT NORM               0.003298372380 Eh/α |
          | HOMO-LUMO GAP               1.414293005499 eV   |
           -------------------------------------------------

 * finished run on 2024/06/05 at 19:58:53.493
