   * xtb version 6.6.1 (8d0f1dd) compiled by 'conda@1efc2f54142f' on 2023-08-01
          program call               : xtb xtbopt.xyz --opt crude --input .xc2 --gfn2

   ID    Z sym.   atoms
    1    6 C      1, 3, 5-7, 10, 11, 14
    2    7 N      2, 4, 9, 13
    3    8 O      8, 12
    4    1 H      15-25
########################################################################
[WARNING] Please study the warnings concerning your input carefully
-1- readin_getIntValue: could not parse ''
########################################################################

          :  Hamiltonian                  GFN2-xTB          :
 * total energy  :   -40.1125590 Eh     change       -0.2273737E-12 Eh
 * total energy  :   -41.9308790 Eh     change       -0.1818320E+01 Eh
 * total energy  :   -42.1129752 Eh     change       -0.1820962E+00 Eh
 * total energy  :   -42.1250238 Eh     change       -0.1204859E-01 Eh
 * total energy  :   -42.1308533 Eh     change       -0.5829519E-02 Eh
 * total energy  :   -42.1313916 Eh     change       -0.5382530E-03 Eh
 * total energy  :   -42.1318360 Eh     change       -0.4443846E-03 Eh
 * total energy  :   -42.1321484 Eh     change       -0.3123878E-03 Eh
 * total energy  :   -42.1324448 Eh     change       -0.2964325E-03 Eh
 * total energy  :   -42.1327217 Eh     change       -0.2768645E-03 Eh
 * total energy  :   -42.1354642 Eh     change       -0.1454456E-02 Eh
 * total energy  :   -42.1397302 Eh     change       -0.4265993E-02 Eh
 * total energy  :   -42.1422341 Eh     change       -0.2503928E-02 Eh
 * total energy  :   -42.1457297 Eh     change       -0.3495620E-02 Eh
 * total energy  :   -42.1438602 Eh     change        0.1869550E-02 Eh
 * total energy  :   -42.1484581 Eh     change       -0.4597909E-02 Eh
 * total energy  :   -42.1495124 Eh     change       -0.1054314E-02 Eh
 * total energy  :   -42.1504595 Eh     change       -0.9470743E-03 Eh
 * total energy  :   -42.1508422 Eh     change       -0.3827535E-03 Eh
   *** GEOMETRY OPTIMIZATION CONVERGED AFTER 23 ITERATIONS ***

 final structure:
================
25
 xtb: 6.6.1 (8d0f1dd)
C            2.78522739475351        1.29619512552524        0.46463372888040
N            2.21403108390587        0.21707280698648       -0.00830732198026
C            3.02734411321370       -0.77671924395482       -0.60346985760757
N            4.27124668299147       -0.66330918835908       -0.52109660624599
C            0.22012688431140       -1.18393728270640        0.12449977177438
C            0.81792418730943        0.03943045470795        0.01548110258592
C           -0.02360960460184        1.24390673502587       -0.08989454648999
O            0.42169241800403        2.36012511109418       -0.24103834577802
N           -1.38052752911950        1.00031130363664       -0.01109967101914
C           -2.28647952175034        2.13923129032536       -0.02212074616256
C           -1.98503471218930       -0.23489452838478        0.11700335856653
O           -3.17481667480862       -0.36730126645377        0.20029676629206
N           -1.11229110178515       -1.33373922907952        0.14664834573951
C           -1.70052856881798       -2.65377861219250        0.25531424724676
H            3.84823691831521        1.39879002280986        0.31166336583488
H            4.86175902133201       -1.36566287555175       -0.96377020357012
H            2.21745063232244        2.06647213401100        0.95597208203118
H            2.46648314190160       -1.56932455446807       -1.11199858896903
H           -1.70990251559425        3.03614537528528       -0.23679285338782
H           -3.05832269289842        1.98883552760759       -0.77710024157914
H           -2.77329782684255        2.22892452865362        0.95098019723033
H           -1.32243182371797       -3.16746020998861        1.13907649335442
H           -1.47261266113758       -3.24417204970537       -0.63302383971603
H           -2.78084687306828       -2.53854105874863        0.33957005118087
H            0.78961114206580       -2.09836177447016        0.22974492968783

          :  Hamiltonian                  GFN2-xTB          :
         :: total energy             -42.150842209891 Eh    ::
         :: gradient norm              0.009238378213 Eh/a0 ::
         :: HOMO-LUMO gap              2.109731910675 eV    ::
         :: SCC energy               -42.686437859116 Eh    ::
         :: -> dispersion             -0.021896130276 Eh    ::
         :: repulsion energy           0.535524646668 Eh    ::

    * Orbital Energies and Occupations

         #    Occupation            Energy/Eh            Energy/eV
      -------------------------------------------------------------
         1        2.0000           -0.8870824             -24.1387
       ...           ...                  ...                  ...
        25        1.9999           -0.6783196             -18.4580
        26        1.9998           -0.6652700             -18.1029
        27        1.9995           -0.6485489             -17.6479
        28        1.9993           -0.6439302             -17.5222
        29        1.9991           -0.6381539             -17.3651
        30        1.9982           -0.6281619             -17.0932
        31        1.9981           -0.6267724             -17.0553
        32        1.9946           -0.6104428             -16.6110
        33        1.9763           -0.5869636             -15.9721
        34        1.9553           -0.5767698             -15.6947
        35        1.9457           -0.5736121             -15.6088
        36        1.9212           -0.5675060             -15.4426
        37        1.9140           -0.5660762             -15.4037 (HOMO)
        38        0.2853           -0.4885450             -13.2940 (LUMO)
        39        0.0122           -0.4363198             -11.8729
        40        0.0015           -0.4024910             -10.9523
        41        0.0003           -0.3763495             -10.2410
        42        0.0000           -0.3026540              -8.2356
        43                         -0.2124559              -5.7812
        44                         -0.1640175              -4.4631
        45                         -0.1363323              -3.7098
        46                         -0.0898682              -2.4454
        47                         -0.0810532              -2.2056
        48                         -0.0568419              -1.5467
       ...                                ...                  ...
        67                          0.5383476              14.6492
      -------------------------------------------------------------
                  HL-Gap            0.0775312 Eh            2.1097 eV

     #   Z          covCN         q      C6AA      α(0)
     1   6 C        2.818    -0.008    28.215     8.703
     2   7 N        2.745     0.106    19.413     6.544
     3   6 C        2.787     0.119    25.362     8.249
     4   7 N        1.782    -0.232    26.902     7.682
     5   6 C        2.856     0.024    27.471     8.591
     6   6 C        2.917    -0.014    28.359     8.733
     7   6 C        2.771     0.270    22.448     7.760
     8   8 O        0.858    -0.362    20.941     6.135
     9   7 N        2.741    -0.066    22.510     7.046
    10   6 C        3.708    -0.064    21.866     6.683
    11   6 C        2.724     0.317    21.617     7.611
    12   8 O        0.859    -0.344    20.592     6.084
    13   7 N        2.742    -0.011    21.465     6.881
    14   6 C        3.703    -0.079    22.165     6.731
    15   1 H        0.926     0.156     1.353     1.819
    16   1 H        0.860     0.213     1.041     1.599
    17   1 H        0.926     0.153     1.371     1.831
    18   1 H        0.924     0.065     2.137     2.286
    19   1 H        0.925     0.117     1.638     2.001
    20   1 H        0.925     0.109     1.703     2.041
    21   1 H        0.924     0.105     1.741     2.063
    22   1 H        0.925     0.097     1.808     2.103
    23   1 H        0.924     0.098     1.801     2.099
    24   1 H        0.925     0.128     1.553     1.949
    25   1 H        0.925     0.101     1.774     2.083

Wiberg/Mayer (AO) data.
largest (>0.10) Wiberg bond orders for each atom

     #   Z sym  total        # sym  WBO       # sym  WBO       # sym  WBO
 ---------------------------------------------------------------------------
     1   6 C    3.607 --     2 N    1.510    17 H    0.950    15 H    0.947
     2   7 N    3.690 --     1 C    1.510     6 C    1.050     3 C    1.029
     3   6 C    3.906 --     4 N    1.901     2 N    1.029    18 H    0.926
     4   7 N    2.957 --     3 C    1.901    16 H    0.921
     5   6 C    3.925 --     6 C    1.514    13 N    1.289    25 H    0.947
     6   6 C    3.884 --     5 C    1.514     2 N    1.050     7 C    1.042
     7   6 C    3.953 --     8 O    1.673     9 N    1.132     6 C    1.042
     8   8 O    2.020 --     7 C    1.673     9 N    0.139
     9   7 N    3.554 --     7 C    1.132    11 C    1.114    10 C    0.971
                             8 O    0.139    12 O    0.131
    10   6 C    3.895 --     9 N    0.971    19 H    0.965    20 H    0.957
                            21 H    0.953
    11   6 C    3.957 --    12 O    1.703     9 N    1.114    13 N    1.049
    12   8 O    2.032 --    11 C    1.703     9 N    0.131    13 N    0.108
    13   7 N    3.592 --     5 C    1.289    11 C    1.049    14 C    0.978
                            12 O    0.108
    14   6 C    3.910 --    13 N    0.978    22 H    0.963    24 H    0.963
                            23 H    0.961
    15   1 H    0.974 --     1 C    0.947
    16   1 H    0.949 --     4 N    0.921
    17   1 H    0.976 --     1 C    0.950
    18   1 H    0.979 --     3 C    0.926
    19   1 H    0.982 --    10 C    0.965
    20   1 H    0.977 --    10 C    0.957
    21   1 H    0.976 --    10 C    0.953
    22   1 H    0.981 --    14 C    0.963
    23   1 H    0.980 --    14 C    0.961
    24   1 H    0.982 --    14 C    0.963
    25   1 H    0.988 --     5 C    0.947
 ---------------------------------------------------------------------------

molecular dipole:
                 x           y           z       tot (Debye)
 q only:        1.936      -1.168       0.147
   full:        1.981      -1.639      -0.028       6.536

           -------------------------------------------------
          | TOTAL ENERGY              -42.150842209891 Eh   |
          | GRADIENT NORM               0.009238378213 Eh/α |
          | HOMO-LUMO GAP               2.109731910675 eV   |
           -------------------------------------------------

 * finished run on 2024/06/05 at 20:00:26.068
