   * xtb version 6.6.1 (8d0f1dd) compiled by 'conda@1efc2f54142f' on 2023-08-01
          program call               : xtb struc.xyz --opt loose --input .xc1 --gfn2

   ID    Z sym.   atoms
    1    6 C      1, 3, 5-7, 10, 11, 14
    2    7 N      2, 4, 9, 13
    3    8 O      8, 12
    4    1 H      15-25
constraining bond 1 5 to    6.0000000 Å, actual value:    3.6144824 Å

          :  Hamiltonian                  GFN2-xTB          :
 * total energy  :    -1.6041907 Eh     change       -0.6650680E-10 Eh
 * total energy  :   -21.1790474 Eh     change       -0.1957486E+02 Eh
 * total energy  :   -32.4790566 Eh     change       -0.1130001E+02 Eh
 * total energy  :   -38.8783607 Eh     change       -0.6399304E+01 Eh
 * total energy  :   -41.2593110 Eh     change       -0.2380950E+01 Eh
 * total energy  :   -41.5432643 Eh     change       -0.2839533E+00 Eh
 * total energy  :   -41.5699612 Eh     change       -0.2669688E-01 Eh
 * total energy  :   -41.6070681 Eh     change       -0.3710686E-01 Eh
 * total energy  :   -41.6359112 Eh     change       -0.2884312E-01 Eh
 * total energy  :   -41.6646145 Eh     change       -0.2870337E-01 Eh
 * total energy  :   -42.1354929 Eh     change       -0.1393029E-03 Eh
 * total energy  :   -42.1357355 Eh     change       -0.2426680E-03 Eh
 * total energy  :   -42.1356962 Eh     change        0.3928964E-04 Eh
 * total energy  :   -42.1359484 Eh     change       -0.2521264E-03 Eh
 * total energy  :   -42.1357930 Eh     change        0.1554134E-03 Eh
 * total energy  :   -42.1360475 Eh     change       -0.2545727E-03 Eh
 * total energy  :   -42.1359857 Eh     change        0.6179658E-04 Eh
 * total energy  :   -42.1361222 Eh     change       -0.1364369E-03 Eh
 * total energy  :   -42.1361346 Eh     change       -0.1238770E-04 Eh
   *** GEOMETRY OPTIMIZATION CONVERGED AFTER 62 ITERATIONS ***

 final structure:
================
25
 xtb: 6.6.1 (8d0f1dd)
C            3.90054301654080        3.08049334053308        0.06076998952587
N            2.20858584479632       -0.80097365939058       -0.01475627086272
C            2.21319309322268       -2.09951578674627       -0.02216522912207
N            0.94596534198486       -2.62137581325268       -0.02348963284631
C            0.09955431525194       -1.56137757592819       -0.01733293845380
C            0.90936103568848       -0.41730764498035       -0.01148834298912
C            0.32081396232315        0.90176056239859       -0.00159392620297
O            0.91910343968719        1.95454990605453        0.00505378272547
N           -1.07469930785463        0.84995924931398        0.00034071721045
C           -1.79710209409150        2.11213767768131        0.00896803891181
C           -1.88199624078110       -0.27455817662520       -0.00736381969311
O           -3.08169093375631       -0.19667903625970       -0.00836179239454
N           -1.24325914950945       -1.52607539444860       -0.01344179135728
C           -2.05072448835009       -2.72745076764089       -0.01941275972455
H            4.38009128613846        3.32543134379362        0.99008570663786
H            4.47745249710739        3.07063924892806       -0.84506079634327
H            2.84801964286701        2.84969962381418        0.03585838216365
H            3.09791570760478       -2.70402298173354       -0.02634940344747
H           -1.07025413820475        2.92089771246295        0.00387257135178
H           -2.44255796798038        2.17617832738869       -0.86771296683093
H           -2.42639336313976        2.17382279864984        0.89753493441130
H           -1.85745495357598       -3.31961454496851        0.87616301489998
H           -1.84031125127618       -3.32252524733891       -0.90903190851453
H           -3.09740256540000       -2.42486391594945       -0.02945077231319
H            0.70367878485475       -3.60099070416752       -0.03046316880906

          :  Hamiltonian                  GFN2-xTB          :
         :: total energy             -42.136134554941 Eh    ::
         :: gradient norm              0.001434618829 Eh/a0 ::
         :: HOMO-LUMO gap              1.100126164038 eV    ::
         :: SCC energy               -42.661331970854 Eh    ::
         :: -> dispersion             -0.020842781931 Eh    ::
         :: repulsion energy           0.525125841252 Eh    ::

    * Orbital Energies and Occupations

         #    Occupation            Energy/Eh            Energy/eV
      -------------------------------------------------------------
         1        2.0000           -0.8855679             -24.0975
       ...           ...                  ...                  ...
        25        1.9996           -0.6542593             -17.8033
        26        1.9988           -0.6366370             -17.3238
        27        1.9981           -0.6287028             -17.1079
        28        1.9978           -0.6263686             -17.0444
        29        1.9973           -0.6233082             -16.9611
        30        1.9968           -0.6208935             -16.8954
        31        1.9930           -0.6082274             -16.5507
        32        1.9926           -0.6073863             -16.5278
        33        1.9738           -0.5872228             -15.9791
        34        1.9222           -0.5695467             -15.4982
        35        1.9144           -0.5679655             -15.4551
        36        1.8719           -0.5612418             -15.2722
        37        1.7109           -0.5469226             -14.8825 (HOMO)
        38        0.6306           -0.5064937             -13.7824 (LUMO)
        39        0.0021           -0.4101146             -11.1598
        40        0.0006           -0.3908318             -10.6351
        41        0.0001           -0.3613042              -9.8316
        42        0.0000           -0.2802945              -7.6272
        43                         -0.1988206              -5.4102
        44                         -0.1565448              -4.2598
        45                         -0.1317369              -3.5847
        46                         -0.0679117              -1.8480
        47                         -0.0455394              -1.2392
        48                         -0.0304361              -0.8282
       ...                                ...                  ...
        67                          0.5503088              14.9747
      -------------------------------------------------------------
                  HL-Gap            0.0404289 Eh            1.1001 eV

     #   Z          covCN         q      C6AA      α(0)
     1   6 C        2.778    -0.068    29.682     8.923
     2   7 N        1.905    -0.158    25.203     7.443
     3   6 C        3.155     0.105    25.397     8.241
     4   7 N        2.789    -0.080    22.790     7.090
     5   6 C        3.056     0.115    25.415     8.268
     6   6 C        3.203     0.024    26.901     8.450
     7   6 C        2.764     0.276    22.338     7.740
     8   8 O        0.858    -0.343    20.572     6.081
     9   7 N        2.745    -0.075    22.700     7.076
    10   6 C        3.710    -0.061    21.817     6.675
    11   6 C        2.732     0.319    21.580     7.605
    12   8 O        0.860    -0.345    20.603     6.086
    13   7 N        2.737    -0.042    22.062     6.976
    14   6 C        3.697    -0.070    22.021     6.712
    15   1 H        0.926     0.137     1.482     1.903
    16   1 H        0.926     0.137     1.485     1.906
    17   1 H        0.926     0.162     1.311     1.791
    18   1 H        0.926     0.110     1.696     2.037
    19   1 H        0.925     0.116     1.650     2.009
    20   1 H        0.924     0.108     1.715     2.048
    21   1 H        0.924     0.108     1.718     2.050
    22   1 H        0.924     0.092     1.862     2.134
    23   1 H        0.924     0.091     1.867     2.137
    24   1 H        0.925     0.128     1.553     1.949
    25   1 H        0.860     0.216     1.029     1.589

Wiberg/Mayer (AO) data.
largest (>0.10) Wiberg bond orders for each atom

     #   Z sym  total        # sym  WBO       # sym  WBO       # sym  WBO
 ---------------------------------------------------------------------------
     1   6 C    2.921 --    16 H    0.978    15 H    0.978    17 H    0.958
     2   7 N    3.001 --     3 C    1.559     6 C    1.270
     3   6 C    3.848 --     2 N    1.559     4 N    1.212    18 H    0.955
     4   7 N    3.576 --     5 C    1.224     3 C    1.212    25 H    0.924
     5   6 C    3.895 --     6 C    1.275     4 N    1.224    13 N    1.212
     6   6 C    3.834 --     5 C    1.275     2 N    1.270     7 C    1.071
     7   6 C    3.945 --     8 O    1.672     9 N    1.100     6 C    1.071
     8   8 O    1.972 --     7 C    1.672     9 N    0.126
     9   7 N    3.514 --    11 C    1.120     7 C    1.100    10 C    0.975
                             8 O    0.126    12 O    0.123
    10   6 C    3.886 --     9 N    0.975    19 H    0.963    20 H    0.952
                            21 H    0.952
    11   6 C    3.954 --    12 O    1.687     9 N    1.120    13 N    1.053
    12   8 O    1.995 --    11 C    1.687     9 N    0.123    13 N    0.108
    13   7 N    3.496 --     5 C    1.212    11 C    1.053    14 C    0.977
                            12 O    0.108
    14   6 C    3.910 --    13 N    0.977    23 H    0.962    24 H    0.962
                            22 H    0.962
    15   1 H    0.980 --     1 C    0.978
    16   1 H    0.980 --     1 C    0.978
    17   1 H    0.971 --     1 C    0.958
    18   1 H    0.986 --     3 C    0.955
    19   1 H    0.982 --    10 C    0.963
    20   1 H    0.970 --    10 C    0.952
    21   1 H    0.969 --    10 C    0.952
    22   1 H    0.979 --    14 C    0.962
    23   1 H    0.979 --    14 C    0.962
    24   1 H    0.982 --    14 C    0.962
    25   1 H    0.952 --     4 N    0.924
 ---------------------------------------------------------------------------

molecular dipole:
                 x           y           z       tot (Debye)
 q only:        1.860      -0.965       0.017
   full:        1.734      -1.650       0.012       6.084

           -------------------------------------------------
          | TOTAL ENERGY              -42.136134554941 Eh   |
          | GRADIENT NORM               0.001434618829 Eh/α |
          | HOMO-LUMO GAP               1.100126164038 eV   |
           -------------------------------------------------

 * finished run on 2024/06/05 at 20:00:06.956
