   * xtb version 6.6.1 (8d0f1dd) compiled by 'conda@1efc2f54142f' on 2023-08-01
          program call               : xtb struc.xyz --opt loose --input .xc1 --gfn2

   ID    Z sym.   atoms
    1    7 N      1, 17
    2    6 C      2-6, 8, 9, 11-16, 18-23, 25, 26, 28-33
    3    8 O      7, 10, 24, 27
    4    1 H      34-72
constraining bond 3 14 to    4.0000000 Å, actual value:    1.5490437 Å

          :  Hamiltonian                  GFN2-xTB          :
 * total energy  :   -98.3315285 Eh     change       -0.4035485E-08 Eh
 * total energy  :   -98.5662797 Eh     change       -0.2347512E+00 Eh
 * total energy  :   -98.8045114 Eh     change       -0.2382317E+00 Eh
 * total energy  :   -99.0337552 Eh     change       -0.2292438E+00 Eh
 * total energy  :   -99.1404276 Eh     change       -0.1066724E+00 Eh
 * total energy  :   -99.1874541 Eh     change       -0.4702651E-01 Eh
 * total energy  :   -99.2260032 Eh     change       -0.3854905E-01 Eh
 * total energy  :   -99.2531628 Eh     change       -0.2715958E-01 Eh
 * total energy  :   -99.2712204 Eh     change       -0.1805760E-01 Eh
 * total energy  :   -99.2832400 Eh     change       -0.1201968E-01 Eh
 * total energy  :   -99.3191417 Eh     change       -0.1419595E-03 Eh
 * total energy  :   -99.3192339 Eh     change       -0.9222563E-04 Eh
 * total energy  :   -99.3193224 Eh     change       -0.8844887E-04 Eh
 * total energy  :   -99.3194059 Eh     change       -0.8346897E-04 Eh
 * total energy  :   -99.3194713 Eh     change       -0.6545113E-04 Eh
 * total energy  :   -99.3195336 Eh     change       -0.6227815E-04 Eh
 * total energy  :   -99.3196034 Eh     change       -0.6984831E-04 Eh
 * total energy  :   -99.3196646 Eh     change       -0.6118664E-04 Eh
 * total energy  :   -99.3197117 Eh     change       -0.4713167E-04 Eh
   *** GEOMETRY OPTIMIZATION CONVERGED AFTER 62 ITERATIONS ***

 final structure:
================
72
 xtb: 6.6.1 (8d0f1dd)
N           -1.23519742302975        2.82858013350306        2.14593869657906
C           -1.75723389227941        1.67169430377469        1.94525223851277
C           -3.00083594525312        1.48185884277285        1.30355985817794
C           -3.46460588622053        0.15396217111996        1.02902184729111
C           -4.34159822306590       -0.10924366734937       -0.04978601625668
C           -4.74981163499898       -1.38789552851540       -0.36882201236838
O           -5.55669863248260       -1.71422411822643       -1.40215290255794
C           -6.12437531539237       -0.69052426534430       -2.18404952394157
C           -4.30113800657899       -2.49110813054030        0.41185467240793
O           -4.74671847942962       -3.69859952546272        0.02256601363758
C           -4.41246758518429       -4.83654727156296        0.78320364148100
C           -3.46219242100984       -2.23905686266211        1.49197358090973
C           -3.05002355044046       -0.95547559993463        1.79036719064228
C           -2.34901404432904        2.24693709302007       -2.56240829325585
C           -1.72958136384751        0.99263353596779       -2.06912103367057
C           -0.47054302750945        1.19920502945550       -1.32594204239375
N            0.18073012860094        0.23065964844591       -0.70490564831515
C            1.52948605590694        0.43115338298956       -0.22959438742343
C            2.54908674782140       -0.05751724473924       -1.27844678158160
C            3.96062390063733        0.11849849572299       -0.79488828126625
C            4.62869289246239        1.31771120887900       -0.98342378814983
C            5.93824542745137        1.47459967393454       -0.55747295022107
C            6.60719737674909        0.43302759919500        0.07016413911147
O            7.87993294529794        0.46553730182296        0.50439400190070
C            8.65688033855957        1.61824615925699        0.27324662971312
C            5.92381091732467       -0.79639416439718        0.28379909651102
O            6.64512327372108       -1.75368966226689        0.89949266099074
C            6.06861955376471       -3.01911519716163        1.11802710751319
C            4.61378386832534       -0.92855497321598       -0.14895521624533
C           -0.34201057551533       -1.11250616523605       -0.67592561650899
C           -3.81103539067951        2.68760212207031        0.90792971562629
C           -4.18266550709977        3.48920244293491        2.16476346421460
C           -3.06753716169397        3.59355192820314       -0.06939858600750
H           -4.68900836453188        0.71229598593295       -0.65373016308123
H           -6.71860973538453       -0.00230031362634       -1.57619631754932
H           -6.77456078253066       -1.19465136027710       -2.89623364810642
H           -5.35823983823944       -0.12978372891611       -2.73010579193419
H           -4.75901594012094       -4.74419827715842        1.81652816546988
H           -4.92497516567354       -5.66813872793310        0.30379295982134
H           -3.33376398839328       -5.02218590118175        0.77447809141578
H           -3.13401909688622       -3.05131774058050        2.12068351838146
H           -2.43930030540045       -0.81002404339346        2.66663614143921
H           -3.31402516822298        2.17606261428215       -3.03069085104683
H           -1.70882524362655        3.03882482424476       -2.90820147420732
H           -2.44954943783327        0.42906489357766       -1.45937136284107
H           -1.51206582925226        0.32891527528226       -2.92805032839517
H           -1.21904056191012        0.75882427876287        2.22965474700168
H           -0.03055037440989        2.18316666548896       -1.30661419720499
H            1.66902150096355       -0.11840625282199        0.70434357884214
H            1.69065516453189        1.49243838355311       -0.03303055383227
H            2.39960861896195        0.51391693683478       -2.19658065415962
H            2.36429580119078       -1.11089153956901       -1.49495532809468
H            4.13602815462658        2.13802418883375       -1.48265623835156
H            6.43577391847923        2.41505490562706       -0.72794622842555
H            8.25285659913502        2.48693671968976        0.80161250824246
H            8.73184731336180        1.84192732783275       -0.79499705587561
H            9.64564105093754        1.38649885330378        0.66401863193453
H            6.84311182829821       -3.61388587269830        1.59830407660987
H            5.19950246009075       -2.95532794251243        1.78073317214449
H            5.77838493707002       -3.49590445324376        0.17650306506523
H            4.09200714018569       -1.86182395136249       -0.00480932097014
H           -0.43037654460888       -1.52533248904079       -1.68376951388918
H           -1.33108069817943       -1.12340832910974       -0.21285538532149
H            0.31999912417134       -1.74811879771088       -0.09365872379296
H           -4.74874351835955        2.36133682897638        0.45033318951897
H           -3.28302606700658        3.88343558162915        2.62800547869367
H           -4.70110797220966        2.85305486424848        2.87870354472701
H           -4.83678663931352        4.31506117354405        1.89673890010374
H           -2.12885795427866        3.91496773236370        0.37162536821461
H           -2.84131850135785        3.05408646153782       -1.02573277886763
H           -3.67028185150401        4.46290824096262       -0.31475536460726
H           -0.34201780722177        2.84882781665416        2.62324950246084

          :  Hamiltonian                  GFN2-xTB          :
         :: total energy             -99.319711751855 Eh    ::
         :: gradient norm              0.001839175780 Eh/a0 ::
         :: HOMO-LUMO gap              0.120698915787 eV    ::
         :: SCC energy              -100.705550312023 Eh    ::
         :: -> dispersion             -0.073606964547 Eh    ::
         :: repulsion energy           1.384057918351 Eh    ::

    * Orbital Energies and Occupations

         #    Occupation            Energy/Eh            Energy/eV
      -------------------------------------------------------------
         1        2.0000           -0.8139467             -22.1486
       ...           ...                  ...                  ...
        78        1.9984           -0.5317837             -14.4706
        79        1.9982           -0.5300125             -14.4224
        80        1.9980           -0.5278048             -14.3623
        81        1.9971           -0.5222364             -14.2108
        82        1.9969           -0.5210362             -14.1781
        83        1.9950           -0.5136950             -13.9784
        84        1.9940           -0.5107281             -13.8976
        85        1.9863           -0.4975637             -13.5394
        86        1.9777           -0.4897995             -13.3281
        87        1.9275           -0.4707345             -12.8093
        88        1.8487           -0.4584300             -12.4745
        89        1.8375           -0.4571987             -12.4410
        90        1.1263           -0.4228186             -11.5055 (HOMO)
        91        0.9869           -0.4183830             -11.3848 (LUMO)
        92        0.3276           -0.3929821             -10.6936
        93        0.0048           -0.3231659              -8.7938
        94        0.0032           -0.3166597              -8.6167
        95        0.0026           -0.3137005              -8.5362
        96        0.0023           -0.3113650              -8.4727
        97        0.0001           -0.2607896              -7.0964
        98        0.0000           -0.1887880              -5.1372
        99        0.0000           -0.1844986              -5.0205
       100                         -0.1347918              -3.6679
       101                         -0.0683323              -1.8594
       ...                                ...                  ...
       171                          0.5777411              15.7211
      -------------------------------------------------------------
                  HL-Gap            0.0044356 Eh            0.1207 eV

     #   Z          covCN         q      C6AA      α(0)
     1   7 N        1.779    -0.308    28.792     7.946
     2   6 C        2.824     0.075    26.323     8.407
     3   6 C        2.963    -0.013    28.342     8.732
     4   6 C        2.967    -0.001    28.056     8.688
     5   6 C        2.919    -0.087    30.172     9.008
     6   6 C        2.858     0.128    25.188     8.226
     7   8 O        1.706    -0.235    17.901     5.713
     8   6 C        3.644     0.028    20.433     6.498
     9   6 C        2.863     0.130    25.156     8.221
    10   8 O        1.706    -0.222    17.686     5.678
    11   6 C        3.645     0.026    20.480     6.504
    12   6 C        2.910    -0.072    29.783     8.949
    13   6 C        2.921    -0.051    29.276     8.873
    14   6 C        2.838    -0.115    30.905     9.110
    15   6 C        3.804    -0.057    21.589     6.615
    16   6 C        2.850     0.006    27.879     8.654
    17   7 N        2.730     0.021    20.883     6.787
    18   6 C        3.755    -0.019    20.964     6.529
    19   6 C        3.808    -0.071    21.846     6.653
    20   6 C        2.968     0.000    28.022     8.683
    21   6 C        2.922    -0.048    29.190     8.860
    22   6 C        2.914    -0.067    29.663     8.931
    23   6 C        2.865     0.134    25.067     8.207
    24   8 O        1.706    -0.220    17.658     5.674
    25   6 C        3.645     0.024    20.499     6.507
    26   6 C        2.863     0.133    25.081     8.209
    27   8 O        1.706    -0.224    17.711     5.682
    28   6 C        3.645     0.027    20.457     6.501
    29   6 C        2.919    -0.079    29.983     8.979
    30   6 C        3.703    -0.073    22.060     6.715
    31   6 C        3.854    -0.005    20.627     6.459
    32   6 C        3.758    -0.110    22.658     6.786
    33   6 C        3.751    -0.121    22.879     6.821
    34   1 H        0.926     0.054     2.274     2.358
    35   1 H        0.924     0.054     2.269     2.356
    36   1 H        0.925     0.081     1.971     2.195
    37   1 H        0.924     0.044     2.396     2.421
    38   1 H        0.924     0.058     2.224     2.332
    39   1 H        0.925     0.083     1.953     2.186
    40   1 H        0.924     0.050     2.316     2.380
    41   1 H        0.926     0.053     2.281     2.362
    42   1 H        0.926     0.048     2.349     2.397
    43   1 H        0.926     0.052     2.300     2.372
    44   1 H        0.926     0.054     2.273     2.358
    45   1 H        0.923     0.086     1.914     2.164
    46   1 H        0.922     0.092     1.865     2.136
    47   1 H        0.924     0.000     3.053     2.732
    48   1 H        0.926     0.083     1.946     2.182
    49   1 H        0.924     0.070     2.090     2.261
    50   1 H        0.924     0.074     2.044     2.236
    51   1 H        0.924     0.056     2.249     2.345
    52   1 H        0.924     0.055     2.261     2.351
    53   1 H        0.926     0.047     2.355     2.400
    54   1 H        0.926     0.060     2.200     2.319
    55   1 H        0.924     0.056     2.249     2.345
    56   1 H        0.924     0.056     2.244     2.343
    57   1 H        0.925     0.083     1.948     2.183
    58   1 H        0.925     0.082     1.955     2.186
    59   1 H        0.924     0.049     2.332     2.388
    60   1 H        0.924     0.052     2.292     2.368
    61   1 H        0.926     0.047     2.361     2.403
    62   1 H        0.924     0.077     2.011     2.218
    63   1 H        0.924     0.081     1.971     2.196
    64   1 H        0.925     0.082     1.961     2.190
    65   1 H        0.924     0.042     2.422     2.434
    66   1 H        0.925     0.070     2.082     2.256
    67   1 H        0.925     0.043     2.409     2.427
    68   1 H        0.925     0.051     2.307     2.375
    69   1 H        0.925     0.075     2.033     2.230
    70   1 H        0.922     0.071     2.078     2.254
    71   1 H        0.925     0.056     2.243     2.342
    72   1 H        0.860     0.140     1.473     1.901

Wiberg/Mayer (AO) data.
largest (>0.10) Wiberg bond orders for each atom

     #   Z sym  total        # sym  WBO       # sym  WBO       # sym  WBO
 ---------------------------------------------------------------------------
     1   7 N    2.717 --     2 C    1.666    72 H    0.950
     2   6 C    3.928 --     1 N    1.666     3 C    1.269    47 H    0.927
     3   6 C    3.610 --     2 C    1.269     4 C    1.212    31 C    1.010
     4   6 C    3.965 --    13 C    1.303     5 C    1.278     3 C    1.212
     5   6 C    3.908 --     6 C    1.434     4 C    1.278    34 H    0.953
     6   6 C    3.907 --     5 C    1.434     9 C    1.205     7 O    1.093
     7   8 O    2.250 --     6 C    1.093     8 C    0.979
     8   6 C    3.933 --     7 O    0.979    36 H    0.977    35 H    0.974
                            37 H    0.974
     9   6 C    3.836 --    12 C    1.356     6 C    1.205    10 O    1.113
    10   8 O    2.247 --     9 C    1.113    11 C    0.976
    11   6 C    3.929 --    39 H    0.977    10 O    0.976    40 H    0.973
                            38 H    0.973
    12   6 C    3.962 --    13 C    1.458     9 C    1.356    41 H    0.963
    13   6 C    3.874 --    12 C    1.458     4 C    1.303    42 H    0.963
    14   6 C    3.235 --    15 C    1.068    43 H    0.981    44 H    0.979
                            70 H    0.138
    15   6 C    3.982 --    14 C    1.068    16 C    1.064    45 H    0.913
                            46 H    0.884
    16   6 C    3.594 --    17 N    1.430    15 C    1.064    48 H    0.957
    17   7 N    3.493 --    16 C    1.430    30 C    1.001    18 C    0.986
    18   6 C    3.952 --    17 N    0.986    50 H    0.967    49 H    0.965
                            19 C    0.965
    19   6 C    3.976 --    20 C    1.008    52 H    0.971    51 H    0.971
                            18 C    0.965
    20   6 C    3.942 --    21 C    1.407    29 C    1.380    19 C    1.008
    21   6 C    3.948 --    22 C    1.419    20 C    1.407    53 H    0.968
    22   6 C    3.958 --    21 C    1.419    23 C    1.382    54 H    0.963
    23   6 C    3.894 --    22 C    1.382    26 C    1.218    24 O    1.112
    24   8 O    2.255 --    23 C    1.112    25 C    0.975
    25   6 C    3.927 --    57 H    0.977    24 O    0.975    56 H    0.973
                            55 H    0.972
    26   6 C    3.897 --    29 C    1.394    23 C    1.218    27 O    1.105
    27   8 O    2.254 --    26 C    1.105    28 C    0.978
    28   6 C    3.932 --    27 O    0.978    58 H    0.977    59 H    0.973
                            60 H    0.973
    29   6 C    3.958 --    26 C    1.394    20 C    1.380    61 H    0.962
    30   6 C    3.957 --    17 N    1.001    64 H    0.978    62 H    0.963
                            63 H    0.959
    31   6 C    3.972 --     3 C    1.010    33 C    0.991    32 C    0.969
                            65 H    0.955
    32   6 C    3.945 --    67 H    0.983    68 H    0.980    66 H    0.974
                            31 C    0.969
    33   6 C    3.836 --    31 C    0.991    71 H    0.977    69 H    0.967
                            70 H    0.839
    34   1 H    0.996 --     5 C    0.953
    35   1 H    0.994 --     8 C    0.974
    36   1 H    0.993 --     8 C    0.977
    37   1 H    0.995 --     8 C    0.974
    38   1 H    0.991 --    11 C    0.973
    39   1 H    0.993 --    11 C    0.977
    40   1 H    0.992 --    11 C    0.973
    41   1 H    0.995 --    12 C    0.963
    42   1 H    0.997 --    13 C    0.963
    43   1 H    0.995 --    14 C    0.981
    44   1 H    0.994 --    14 C    0.979
    45   1 H    0.972 --    15 C    0.913
    46   1 H    0.940 --    15 C    0.884
    47   1 H    0.969 --     2 C    0.927
    48   1 H    0.993 --    16 C    0.957
    49   1 H    0.992 --    18 C    0.965
    50   1 H    0.993 --    18 C    0.967
    51   1 H    0.995 --    19 C    0.971
    52   1 H    0.996 --    19 C    0.971
    53   1 H    0.997 --    21 C    0.968
    54   1 H    0.995 --    22 C    0.963
    55   1 H    0.991 --    25 C    0.972
    56   1 H    0.991 --    25 C    0.973
    57   1 H    0.992 --    25 C    0.977
    58   1 H    0.993 --    28 C    0.977
    59   1 H    0.993 --    28 C    0.973
    60   1 H    0.993 --    28 C    0.973
    61   1 H    0.997 --    29 C    0.962
    62   1 H    0.985 --    30 C    0.963
    63   1 H    0.987 --    30 C    0.959
    64   1 H    0.993 --    30 C    0.978
    65   1 H    0.990 --    31 C    0.955
    66   1 H    0.991 --    32 C    0.974
    67   1 H    0.993 --    32 C    0.983
    68   1 H    0.992 --    32 C    0.980
    69   1 H    0.989 --    33 C    0.967
    70   1 H    0.989 --    33 C    0.839    14 C    0.138
    71   1 H    0.991 --    33 C    0.977
    72   1 H    0.970 --     1 N    0.950
 ---------------------------------------------------------------------------

molecular dipole:
                 x           y           z       tot (Debye)
 q only:        0.483      -0.308      -1.072
   full:        0.529      -0.623      -0.954       3.193

           -------------------------------------------------
          | TOTAL ENERGY              -99.319711751855 Eh   |
          | GRADIENT NORM               0.001839175780 Eh/α |
          | HOMO-LUMO GAP               0.120698915787 eV   |
           -------------------------------------------------

 * finished run on 2024/04/06 at 11:11:56.349
