   * xtb version 6.6.1 (8d0f1dd) compiled by 'conda@1efc2f54142f' on 2023-08-01
          program call               : xtb xtbopt.xyz --opt crude --input .xc2 --gfn2

   ID    Z sym.   atoms
    1    6 C      1, 3, 5-7, 10, 11, 14
    2    7 N      2, 4, 9, 13
    3    8 O      8, 12
    4    1 H      15-25

          :  Hamiltonian                  GFN2-xTB          :
 * total energy  :   -42.0798413 Eh     change       -0.8050449E-11 Eh
   *** GEOMETRY OPTIMIZATION CONVERGED AFTER 1 ITERATIONS ***

 final structure:
================
25
 xtb: 6.6.1 (8d0f1dd)
C            3.22406883766289        1.12145580838115        0.05736676399789
N            2.29457183729740        0.02353626584271        0.01994151270496
C            2.58986503998272       -1.26816496698851        0.04720511246622
N            1.45767926249747       -2.00023461333970        0.01238714809247
C            0.40011639194824       -1.14160180396301       -0.03865538139918
C            0.92308743825122        0.14572028923758       -0.03503256101193
C            0.09614680129235        1.31556711870038       -0.09212050557618
O            0.45490467944436        2.47210507127053       -0.10699043473511
N           -1.29457944130383        0.96835370376655       -0.13931231938275
C           -2.17312716633360        1.97991480827561       -0.20116501986445
C           -1.83072836453221       -0.35453962942558       -0.13702352405349
O           -3.01377351594811       -0.54348647448596       -0.17504183695950
N           -0.91937338522042       -1.40687466050713       -0.08600540586264
C           -1.42176729858490       -2.76851346813337       -0.09095354389678
H            3.71704555723408        1.16608606093843        1.02914383701400
H            3.98141470983297        1.00290994566134       -0.71638962038579
H            2.67543891024497        2.04897145277452       -0.10349244793298
H            3.57995958041101       -1.67792315763895        0.09094592267913
H           -1.78299711813494        2.97892364941808       -0.23137163017665
H           -3.22237902781818        1.75547607222586       -0.22646778322388
H           -3.29724050269599        4.32087383442875        1.41401125511659
H           -1.08836205003181       -3.29816732725139        0.80123742584854
H           -1.09284181683631       -3.29246780334565       -0.98865703714147
H           -2.51005348371807       -2.71989149240107       -0.08928208830708
H            1.41335563915818       -3.00979014184215        0.01689377989093

          :  Hamiltonian                  GFN2-xTB          :
         :: total energy             -42.079841309855 Eh    ::
         :: gradient norm              0.003600201534 Eh/a0 ::
         :: HOMO-LUMO gap              0.197899768959 eV    ::
         :: SCC energy               -42.602578464529 Eh    ::
         :: -> dispersion             -0.022682558268 Eh    ::
         :: repulsion energy           0.522651703333 Eh    ::

    * Orbital Energies and Occupations

         #    Occupation            Energy/Eh            Energy/eV
      -------------------------------------------------------------
         1        2.0000           -0.9165440             -24.9404
       ...           ...                  ...                  ...
        25        2.0000           -0.6703761             -18.2419
        26        2.0000           -0.6680571             -18.1788
        27        2.0000           -0.6620862             -18.0163
        28        2.0000           -0.6348272             -17.2745
        29        2.0000           -0.6306024             -17.1596
        30        2.0000           -0.6285385             -17.1034
        31        2.0000           -0.6213719             -16.9084
        32        2.0000           -0.6149661             -16.7341
        33        2.0000           -0.6093347             -16.5808
        34        2.0000           -0.5846690             -15.9097
        35        2.0000           -0.5647901             -15.3687
        36        2.0000           -0.5601192             -15.2416
        37        1.2147           -0.4722326             -12.8501 (HOMO)
        38        0.7633           -0.4649599             -12.6522 (LUMO)
        39        0.0217           -0.4330359             -11.7835
        40        0.0003           -0.4000274             -10.8853
        41        0.0000           -0.3721388             -10.1264
        42                         -0.2874956              -7.8232
        43                         -0.2084039              -5.6710
        44                         -0.1997197              -5.4346
        45                         -0.1522131              -4.1419
        46                         -0.1447424              -3.9386
        47                         -0.0818778              -2.2280
        48                         -0.0565213              -1.5380
       ...                                ...                  ...
        67                          0.5495453              14.9539
      -------------------------------------------------------------
                  HL-Gap            0.0072727 Eh            0.1979 eV

     #   Z          covCN         q      C6AA      α(0)
     1   6 C        3.691    -0.096    22.525     6.791
     2   7 N        2.834     0.084    19.787     6.607
     3   6 C        3.057     0.053    26.753     8.482
     4   7 N        2.796    -0.053    22.272     7.009
     5   6 C        3.047     0.105    25.636     8.304
     6   6 C        3.114    -0.024    28.445     8.737
     7   6 C        2.776     0.253    22.744     7.811
     8   8 O        0.857    -0.368    21.048     6.151
     9   7 N        2.741    -0.031    21.851     6.943
    10   6 C        2.815    -0.026    28.637     8.768
    11   6 C        2.736     0.309    21.744     7.635
    12   8 O        0.859    -0.349    20.684     6.098
    13   7 N        2.737    -0.049    22.188     6.996
    14   6 C        3.699    -0.074    22.085     6.721
    15   1 H        0.924     0.109     1.704     2.041
    16   1 H        0.925     0.106     1.728     2.056
    17   1 H        0.925     0.138     1.479     1.902
    18   1 H        0.926     0.127     1.560     1.953
    19   1 H        0.926     0.133     1.510     1.922
    20   1 H        0.926     0.128     1.550     1.947
    21   1 H        0.000    -0.002     7.691     5.071
    22   1 H        0.925     0.083     1.950     2.184
    23   1 H        0.924     0.084     1.937     2.176
    24   1 H        0.925     0.128     1.551     1.948
    25   1 H        0.860     0.231     0.960     1.535

Wiberg/Mayer (AO) data.
largest (>0.10) Wiberg bond orders for each atom

     #   Z sym  total        # sym  WBO       # sym  WBO       # sym  WBO
 ---------------------------------------------------------------------------
     1   6 C    3.914 --     2 N    0.984    16 H    0.962    17 H    0.961
                            15 H    0.956
     2   7 N    3.688 --     3 C    1.403     6 C    1.149     1 C    0.984
     3   6 C    3.886 --     2 N    1.403     4 N    1.287    18 H    0.952
     4   7 N    3.608 --     3 C    1.287     5 C    1.193    25 H    0.918
     5   6 C    3.907 --     6 C    1.325    13 N    1.195     4 N    1.193
     6   6 C    3.917 --     5 C    1.325     2 N    1.149     7 C    1.112
     7   6 C    3.881 --     8 O    1.670     6 C    1.112     9 N    0.997
     8   8 O    1.966 --     7 C    1.670     9 N    0.113
     9   7 N    3.631 --    10 C    1.340    11 C    1.014     7 C    0.997
                             8 O    0.113
    10   6 C    3.400 --     9 N    1.340    20 H    0.961    19 H    0.957
    11   6 C    3.916 --    12 O    1.714    13 N    1.086     9 N    1.014
    12   8 O    2.034 --    11 C    1.714    13 N    0.136
    13   7 N    3.575 --     5 C    1.195    11 C    1.086    14 C    0.970
                            12 O    0.136
    14   6 C    3.924 --    22 H    0.972    23 H    0.972    13 N    0.970
                            24 H    0.965
    15   1 H    0.985 --     1 C    0.956
    16   1 H    0.986 --     1 C    0.962
    17   1 H    0.981 --     1 C    0.961
    18   1 H    0.983 --     3 C    0.952
    19   1 H    0.982 --    10 C    0.957
    20   1 H    0.983 --    10 C    0.961
    21   1 H    0.053
    22   1 H    0.992 --    14 C    0.972
    23   1 H    0.991 --    14 C    0.972
    24   1 H    0.983 --    14 C    0.965
    25   1 H    0.946 --     4 N    0.918
 ---------------------------------------------------------------------------

molecular dipole:
                 x           y           z       tot (Debye)
 q only:        2.610      -2.211      -0.006
   full:        2.864      -2.676       0.021       9.962

           -------------------------------------------------
          | TOTAL ENERGY              -42.079841309855 Eh   |
          | GRADIENT NORM               0.003600201534 Eh/α |
          | HOMO-LUMO GAP               0.197899768959 eV   |
           -------------------------------------------------

 * finished run on 2024/06/05 at 19:58:05.614
