   * xtb version 6.6.1 (8d0f1dd) compiled by 'conda@1efc2f54142f' on 2023-08-01
          program call               : xtb struc.xyz --opt loose --input .xc1 --gfn2

   ID    Z sym.   atoms
    1    7 N      1, 17
    2    6 C      2-6, 8, 9, 11-16, 18-23, 25, 26, 28-33
    3    8 O      7, 10, 24, 27
    4    1 H      34-72
constraining bond 13 34 to    5.1400000 Å, actual value:    3.3658249 Å

          :  Hamiltonian                  GFN2-xTB          :
 * total energy  :   -98.8420995 Eh     change       -0.4035485E-08 Eh
 * total energy  :   -99.0261630 Eh     change       -0.1840635E+00 Eh
 * total energy  :   -99.1224056 Eh     change       -0.9624260E-01 Eh
 * total energy  :   -99.1587321 Eh     change       -0.3632645E-01 Eh
 * total energy  :   -99.1710988 Eh     change       -0.1236674E-01 Eh
 * total energy  :   -99.1818632 Eh     change       -0.1076436E-01 Eh
 * total energy  :   -99.1998432 Eh     change       -0.1798007E-01 Eh
 * total energy  :   -99.2179339 Eh     change       -0.1809068E-01 Eh
 * total energy  :   -99.2291529 Eh     change       -0.1121901E-01 Eh
 * total energy  :   -99.2360965 Eh     change       -0.6943566E-02 Eh
 * total energy  :   -99.2482886 Eh     change       -0.5572351E-03 Eh
 * total energy  :   -99.2488683 Eh     change       -0.5796229E-03 Eh
 * total energy  :   -99.2491282 Eh     change       -0.2599046E-03 Eh
 * total energy  :   -99.2494688 Eh     change       -0.3405872E-03 Eh
 * total energy  :   -99.2497105 Eh     change       -0.2417842E-03 Eh
 * total energy  :   -99.2498733 Eh     change       -0.1627766E-03 Eh
 * total energy  :   -99.2499563 Eh     change       -0.8297185E-04 Eh
 * total energy  :   -99.2500215 Eh     change       -0.6519255E-04 Eh
 * total energy  :   -99.2500636 Eh     change       -0.4211788E-04 Eh
   *** GEOMETRY OPTIMIZATION CONVERGED AFTER 30 ITERATIONS ***

 final structure:
================
72
 xtb: 6.6.1 (8d0f1dd)
N           -1.86220422427029        2.87353569491449        2.22845366060704
C           -1.81456005039418        2.15613913508988        1.20797974732562
C           -2.97648681062023        1.89033538189979        0.29955274615622
C           -3.43220117707805        0.44824094015923        0.42687367976719
C           -4.34560272797297       -0.04158305895809       -0.46877521592707
C           -4.84653203960784       -1.31297280943381       -0.49784511510184
O           -5.73635070560036       -1.77588360156670       -1.38807131740064
C           -6.38259435913352       -0.81059870628998       -2.18321485137109
C           -4.36008176572878       -2.21897680439395        0.50142748539301
O           -4.86483350224785       -3.46495659332268        0.44289604798338
C           -4.53838576432200       -4.39427922754690        1.45115545294027
C           -3.44694020634510       -1.74724100524829        1.43702128450480
C           -2.98923536497149       -0.43657578051629        1.41510112551757
C           -2.49630706948747        2.11347654076574       -1.15588597462978
C           -1.53484309670705        1.03740720411367       -1.69044201894229
C           -0.18822029342883        1.07039849174159       -1.08717587537775
N            0.49712232302631        0.01263518018458       -0.68638873080889
C            1.87803071817016        0.13638058468172       -0.27989761784485
C            2.84457553306876       -0.33478361570071       -1.38321504328439
C            4.26474357876442       -0.13473698577258       -0.93253446098978
C            4.90596128377817        1.07659434055657       -1.14007289011061
C            6.20519005805774        1.27662399453589       -0.70158911059763
C            6.89115560218714        0.26728258148299       -0.03984602505311
O            8.14950168851980        0.34796726535199        0.42502171856164
C            8.88402000250024        1.53457859495257        0.22669991358344
C            6.23961785580374       -0.97901024960380        0.18182510064059
O            6.97605920832599       -1.90263494240581        0.82733965717999
C            6.43235983163872       -3.17959981901624        1.06407133680851
C            4.93860543747495       -1.15407444957427       -0.26475753615364
C           -0.06928711599446       -1.31578570829454       -0.69902499846280
C           -4.21817396787116        2.78750595597043        0.58231727272962
C           -4.82011720970140        2.49562059196398        1.95447860114475
C           -3.92109879662223        4.27795997820829        0.45530952977923
H           -4.61097167900799        1.14086536413088       -3.18151722545018
H           -7.08366247908937       -0.21946828774087       -1.58458466929785
H           -6.91311347642123       -1.34906711840283       -2.96426815039694
H           -5.65089630358105       -0.10342949738749       -2.63897479054031
H           -4.84113234089323       -4.03549088397758        2.43918219435955
H           -5.09648359119774       -5.29630490025942        1.20754922109456
H           -3.46772810874109       -4.62176313913189        1.45595990247697
H           -3.08876870779662       -2.40833613331107        2.21019837100429
H           -2.29701773543376       -0.09705289893350        2.17071591099436
H           -3.37961264028645        2.08703375308061       -1.80506400381166
H           -2.02953240578811        3.09554504838276       -1.23930392063634
H           -2.00250004435145        0.05936282144318       -1.59581331004564
H           -1.41688491124388        1.24167495193278       -2.76255269864944
H           -0.89216542098241        1.65898025278587        0.84752604100597
H            0.33800550803158        2.01476924242554       -1.08954232457211
H            2.03993783523416       -0.45913968688856        0.62280206573449
H            2.09441926711225        1.18028599342456       -0.04381872835396
H            2.65557107356707        0.24538065712402       -2.28788600390890
H            2.66533497603112       -1.38751161574188       -1.60398818258237
H            4.39829950564897        1.87430815993527       -1.66058950142055
H            6.68006904188754        2.22631941761466       -0.88496056989692
H            8.41264454106719        2.38561249649596        0.72744475599873
H            9.00483361773435        1.75682271560052       -0.83761509145411
H            9.86057849718059        1.35077698851483        0.67032616719848
H            7.21560110552072       -3.74159803543692        1.56891579832195
H            5.55152164540369       -3.12660257724397        1.71194658391648
H            6.17082468117657       -3.68384319702822        0.12876305315580
H            4.43960368317060       -2.09775592056954       -0.10888569782385
H           -0.24581919344776       -1.65863948292156       -1.72039545501699
H           -1.01761588145501       -1.33190125382494       -0.15648131605387
H            0.61879221510925       -2.00393190307310       -0.21501608744762
H           -4.95783543751878        2.51164879879185       -0.17980303455333
H           -4.10655110583444        2.74412276068190        2.73480322953584
H           -5.09722106667036        1.44835414098384        2.04828500026821
H           -5.71274739072329        3.09929120477525        2.09682373684050
H           -3.15754848760860        4.57353398226883        1.16970402007324
H           -3.59886240109549        4.54327013837929       -0.54787530547993
H           -4.82468721601949        4.84138020996030        0.67322162893344
H           -1.01305044489922        3.00764785671340        2.76724565051243

          :  Hamiltonian                  GFN2-xTB          :
         :: total energy             -99.250063605505 Eh    ::
         :: gradient norm              0.002420659651 Eh/a0 ::
         :: HOMO-LUMO gap              0.241773124967 eV    ::
         :: SCC energy              -100.616066227792 Eh    ::
         :: -> dispersion             -0.076366008354 Eh    ::
         :: repulsion energy           1.364594595159 Eh    ::

    * Orbital Energies and Occupations

         #    Occupation            Energy/Eh            Energy/eV
      -------------------------------------------------------------
         1        2.0000           -0.8148721             -22.1738
       ...           ...                  ...                  ...
        78        1.9979           -0.5346957             -14.5498
        79        1.9973           -0.5311581             -14.4535
        80        1.9971           -0.5298265             -14.4173
        81        1.9964           -0.5265793             -14.3290
        82        1.9937           -0.5176751             -14.0867
        83        1.9917           -0.5131265             -13.9629
        84        1.9911           -0.5121499             -13.9363
        85        1.9748           -0.4954880             -13.4829
        86        1.9658           -0.4905601             -13.3488
        87        1.9181           -0.4763310             -12.9616
        88        1.8306           -0.4640894             -12.6285
        89        1.8156           -0.4626177             -12.5885
        90        1.2364           -0.4340339             -11.8107 (HOMO)
        91        0.9604           -0.4251489             -11.5689 (LUMO)
        92        0.3265           -0.4005268             -10.8989
        93        0.0116           -0.3449544              -9.3867
        94        0.0025           -0.3206575              -8.7255
        95        0.0023           -0.3194662              -8.6931
        96        0.0020           -0.3172744              -8.6335
        97        0.0015           -0.3120140              -8.4903
        98        0.0000           -0.1948474              -5.3021
        99        0.0000           -0.1909025              -5.1947
       100                         -0.1429249              -3.8892
       101                         -0.0726004              -1.9756
       ...                                ...                  ...
       171                          0.5686745              15.4744
      -------------------------------------------------------------
                  HL-Gap            0.0088850 Eh            0.2418 eV

     #   Z          covCN         q      C6AA      α(0)
     1   7 N        1.774    -0.262    27.631     7.784
     2   6 C        2.823     0.102    25.735     8.312
     3   6 C        3.910     0.013    20.302     6.404
     4   6 C        2.976     0.017    27.634     8.623
     5   6 C        2.016    -0.099    33.753     9.383
     6   6 C        2.873     0.142    24.904     8.181
     7   8 O        1.705    -0.209    17.470     5.643
     8   6 C        3.657     0.024    20.467     6.494
     9   6 C        2.868     0.130    25.162     8.222
    10   8 O        1.705    -0.222    17.687     5.678
    11   6 C        3.644     0.026    20.473     6.504
    12   6 C        2.911    -0.079    29.967     8.977
    13   6 C        2.928    -0.051    29.255     8.870
    14   6 C        3.811    -0.067    21.774     6.642
    15   6 C        3.802    -0.070    21.838     6.653
    16   6 C        2.844     0.017    27.631     8.615
    17   7 N        2.729     0.018    20.942     6.797
    18   6 C        3.756    -0.018    20.940     6.525
    19   6 C        3.808    -0.071    21.853     6.655
    20   6 C        2.969     0.001    27.995     8.679
    21   6 C        2.922    -0.048    29.181     8.859
    22   6 C        2.913    -0.066    29.654     8.930
    23   6 C        2.864     0.135    25.047     8.204
    24   8 O        1.706    -0.217    17.607     5.665
    25   6 C        3.645     0.023    20.515     6.510
    26   6 C        2.862     0.134    25.058     8.205
    27   8 O        1.706    -0.220    17.659     5.674
    28   6 C        3.645     0.026    20.476     6.504
    29   6 C        2.919    -0.079    29.972     8.978
    30   6 C        3.700    -0.072    22.046     6.714
    31   6 C        3.855    -0.007    20.668     6.466
    32   6 C        3.756    -0.118    22.819     6.811
    33   6 C        3.755    -0.118    22.819     6.811
    34   1 H        0.000    -0.200    27.024     9.505
    35   1 H        0.924     0.062     2.175     2.307
    36   1 H        0.925     0.080     1.974     2.197
    37   1 H        0.921     0.090     1.882     2.145
    38   1 H        0.924     0.057     2.229     2.335
    39   1 H        0.925     0.084     1.934     2.175
    40   1 H        0.924     0.050     2.316     2.380
    41   1 H        0.926     0.056     2.244     2.343
    42   1 H        0.926     0.045     2.382     2.413
    43   1 H        0.924     0.088     1.896     2.153
    44   1 H        0.924     0.054     2.274     2.358
    45   1 H        0.925     0.072     2.059     2.244
    46   1 H        0.924     0.093     1.851     2.128
    47   1 H        0.922     0.006     2.961     2.691
    48   1 H        0.926     0.075     2.032     2.229
    49   1 H        0.924     0.069     2.096     2.264
    50   1 H        0.924     0.069     2.100     2.266
    51   1 H        0.924     0.058     2.224     2.332
    52   1 H        0.924     0.058     2.227     2.334
    53   1 H        0.926     0.048     2.346     2.395
    54   1 H        0.926     0.061     2.186     2.312
    55   1 H        0.924     0.056     2.241     2.341
    56   1 H        0.924     0.058     2.219     2.329
    57   1 H        0.925     0.085     1.932     2.174
    58   1 H        0.925     0.084     1.938     2.177
    59   1 H        0.924     0.050     2.317     2.380
    60   1 H        0.924     0.055     2.264     2.353
    61   1 H        0.926     0.049     2.334     2.389
    62   1 H        0.924     0.082     1.961     2.190
    63   1 H        0.924     0.081     1.973     2.197
    64   1 H        0.925     0.082     1.961     2.190
    65   1 H        0.924     0.052     2.295     2.369
    66   1 H        0.925     0.070     2.090     2.261
    67   1 H        0.925     0.037     2.489     2.467
    68   1 H        0.925     0.054     2.267     2.354
    69   1 H        0.925     0.060     2.204     2.322
    70   1 H        0.925     0.040     2.454     2.450
    71   1 H        0.925     0.058     2.227     2.334
    72   1 H        0.860     0.159     1.341     1.814

Wiberg/Mayer (AO) data.
largest (>0.10) Wiberg bond orders for each atom

     #   Z sym  total        # sym  WBO       # sym  WBO       # sym  WBO
 ---------------------------------------------------------------------------
     1   7 N    3.038 --     2 C    1.955    72 H    0.940
     2   6 C    3.930 --     1 N    1.955     3 C    0.999    47 H    0.897
     3   6 C    3.957 --     2 C    0.999     4 C    0.957    14 C    0.955
                            31 C    0.935
     4   6 C    3.913 --     5 C    1.415    13 C    1.343     3 C    0.957
     5   6 C    3.085 --     4 C    1.415     6 C    1.403
     6   6 C    3.866 --     5 C    1.403     9 C    1.170     7 O    1.111
     7   8 O    2.249 --     6 C    1.111     8 C    0.976
     8   6 C    3.834 --     7 O    0.976    36 H    0.976    35 H    0.966
                            37 H    0.885
     9   6 C    3.834 --    12 C    1.383     6 C    1.170    10 O    1.107
    10   8 O    2.245 --     9 C    1.107    11 C    0.972
    11   6 C    3.923 --    39 H    0.976    38 H    0.973    40 H    0.973
                            10 O    0.972
    12   6 C    3.953 --    13 C    1.419     9 C    1.383    41 H    0.958
    13   6 C    3.883 --    12 C    1.419     4 C    1.343    42 H    0.956
    14   6 C    3.946 --    15 C    0.977    44 H    0.972     3 C    0.955
                            43 H    0.941
    15   6 C    3.983 --    16 C    1.067    14 C    0.977    45 H    0.959
                            46 H    0.918
    16   6 C    3.642 --    17 N    1.428    15 C    1.067    48 H    0.955
    17   7 N    3.510 --    16 C    1.428    30 C    0.996    18 C    0.986
    18   6 C    3.954 --    17 N    0.986    50 H    0.968    19 C    0.967
                            49 H    0.963
    19   6 C    3.977 --    20 C    1.008    52 H    0.971    51 H    0.971
                            18 C    0.967
    20   6 C    3.938 --    21 C    1.404    29 C    1.382    19 C    1.008
    21   6 C    3.944 --    22 C    1.420    20 C    1.404    53 H    0.968
    22   6 C    3.956 --    21 C    1.420    23 C    1.379    54 H    0.963
    23   6 C    3.889 --    22 C    1.379    26 C    1.215    24 O    1.116
    24   8 O    2.256 --    23 C    1.116    25 C    0.975
    25   6 C    3.925 --    57 H    0.976    24 O    0.975    55 H    0.972
                            56 H    0.972
    26   6 C    3.893 --    29 C    1.391    23 C    1.215    27 O    1.109
    27   8 O    2.255 --    26 C    1.109    28 C    0.977
    28   6 C    3.930 --    27 O    0.977    58 H    0.976    59 H    0.973
                            60 H    0.973
    29   6 C    3.956 --    26 C    1.391    20 C    1.382    61 H    0.962
    30   6 C    3.955 --    17 N    0.996    64 H    0.977    62 H    0.966
                            63 H    0.961
    31   6 C    3.960 --    33 C    1.009    32 C    1.008    65 H    0.954
                             3 C    0.935
    32   6 C    3.971 --    31 C    1.008    67 H    0.980    68 H    0.979
                            66 H    0.971
    33   6 C    3.977 --    31 C    1.009    70 H    0.981    71 H    0.978
                            69 H    0.975
    34   1 H    0.149
    35   1 H    0.984 --     8 C    0.966
    36   1 H    0.991 --     8 C    0.976
    37   1 H    0.984 --     8 C    0.885
    38   1 H    0.991 --    11 C    0.973
    39   1 H    0.992 --    11 C    0.976
    40   1 H    0.992 --    11 C    0.973
    41   1 H    0.989 --    12 C    0.958
    42   1 H    0.986 --    13 C    0.956
    43   1 H    0.990 --    14 C    0.941
    44   1 H    0.995 --    14 C    0.972
    45   1 H    0.994 --    15 C    0.959
    46   1 H    0.969 --    15 C    0.918
    47   1 H    0.983 --     2 C    0.897
    48   1 H    0.994 --    16 C    0.955
    49   1 H    0.990 --    18 C    0.963
    50   1 H    0.994 --    18 C    0.968
    51   1 H    0.995 --    19 C    0.971
    52   1 H    0.995 --    19 C    0.971
    53   1 H    0.997 --    21 C    0.968
    54   1 H    0.994 --    22 C    0.963
    55   1 H    0.990 --    25 C    0.972
    56   1 H    0.990 --    25 C    0.972
    57   1 H    0.992 --    25 C    0.976
    58   1 H    0.992 --    28 C    0.976
    59   1 H    0.992 --    28 C    0.973
    60   1 H    0.992 --    28 C    0.973
    61   1 H    0.996 --    29 C    0.962
    62   1 H    0.985 --    30 C    0.966
    63   1 H    0.988 --    30 C    0.961
    64   1 H    0.993 --    30 C    0.977
    65   1 H    0.987 --    31 C    0.954
    66   1 H    0.988 --    32 C    0.971
    67   1 H    0.995 --    32 C    0.980
    68   1 H    0.992 --    32 C    0.979
    69   1 H    0.991 --    33 C    0.975
    70   1 H    0.995 --    33 C    0.981
    71   1 H    0.992 --    33 C    0.978
    72   1 H    0.968 --     1 N    0.940
 ---------------------------------------------------------------------------

molecular dipole:
                 x           y           z       tot (Debye)
 q only:        1.804      -0.373       0.216
   full:        2.157      -0.561       0.221       5.693

           -------------------------------------------------
          | TOTAL ENERGY              -99.250063605505 Eh   |
          | GRADIENT NORM               0.002420659651 Eh/α |
          | HOMO-LUMO GAP               0.241773124967 eV   |
           -------------------------------------------------

 * finished run on 2024/04/06 at 11:13:02.903
