   * xtb version 6.6.1 (8d0f1dd) compiled by 'conda@1efc2f54142f' on 2023-08-01
          program call               : xtb xtbopt.xyz --opt crude --input .xc2 --gfn2

   ID    Z sym.   atoms
    1    6 C      1, 3, 5-7, 10, 11, 14
    2    7 N      2, 4, 9, 13
    3    8 O      8, 12
    4    1 H      15-25
########################################################################
[WARNING] Please study the warnings concerning your input carefully
-1- readin_getIntValue: could not parse ''
########################################################################

          :  Hamiltonian                  GFN2-xTB          :
 * total energy  :   -40.4325747 Eh     change       -0.1421085E-12 Eh
 * total energy  :   -42.1317013 Eh     change       -0.1699127E+01 Eh
 * total energy  :   -42.1584864 Eh     change       -0.2678512E-01 Eh
 * total energy  :   -42.1637226 Eh     change       -0.5236167E-02 Eh
 * total energy  :   -42.1671427 Eh     change       -0.3420107E-02 Eh
 * total energy  :   -42.1676278 Eh     change       -0.4851575E-03 Eh
 * total energy  :   -42.1682596 Eh     change       -0.6317720E-03 Eh
 * total energy  :   -42.1687467 Eh     change       -0.4870698E-03 Eh
 * total energy  :   -42.1691112 Eh     change       -0.3645699E-03 Eh
 * total energy  :   -42.1692627 Eh     change       -0.1514484E-03 Eh
   *** GEOMETRY OPTIMIZATION CONVERGED AFTER 10 ITERATIONS ***

 final structure:
================
25
 xtb: 6.6.1 (8d0f1dd)
C            2.83039776491115        1.18721033217800       -0.51906335406741
N            2.10735734185728       -0.00783507237653       -0.17784468709607
C            2.61987409466748       -1.22608564971750       -0.12223361093857
N            1.65844863355146       -2.09693306174192        0.21350110610128
C            0.47847409137417       -1.41177310860833        0.39282248449508
C            0.77036980600613       -0.07373702727297        0.12882464859145
C           -0.06069729397153        1.13486198268320        0.30436154629599
O            0.41601926899525        2.14300495048324        0.77711520574856
N           -1.39984159004652        1.05144525678922       -0.04535234273643
C           -2.27600252737580        2.11011159473566        0.43742072879879
C           -1.87695655063161        0.17320419703315       -0.98465260172666
O           -1.22405756632463       -0.65614353578728       -1.56228817976877
N           -0.65816437599594       -1.92284408823634        0.88692583317510
C           -1.23238553678371       -3.01143299594554        0.59870760967922
H            2.63954137275705        1.95683118111520        0.22985133328959
H            3.89447357672910        0.96875432015085       -0.56574720422083
H            2.49705074008538        1.56548744438770       -1.48648141737584
H            3.64523577315511       -1.48054595687930       -0.31019928161950
H           -1.77575933101207        2.62498368928064        1.25416680231572
H           -2.48655741651580        2.83144378874945       -0.35267171845923
H           -3.20881082592591        1.67660187489222        0.79238748531136
H           -2.09826996293073       -3.28487671058500        1.18304116959787
H           -0.93556021651684       -3.66904175847723       -0.21576170290265
H           -2.94831940569951        0.32611263706901       -1.17439539148136
H            1.78457164974449       -3.09056574231866        0.34873715689383

          :  Hamiltonian                  GFN2-xTB          :
         :: total energy             -42.169262686798 Eh    ::
         :: gradient norm              0.005488924160 Eh/a0 ::
         :: HOMO-LUMO gap              2.641433452984 eV    ::
         :: SCC energy               -42.711614495441 Eh    ::
         :: -> dispersion             -0.022930334421 Eh    ::
         :: repulsion energy           0.542140585857 Eh    ::

    * Orbital Energies and Occupations

         #    Occupation            Energy/Eh            Energy/eV
      -------------------------------------------------------------
         1        2.0000           -0.9015555             -24.5326
       ...           ...                  ...                  ...
        25        2.0000           -0.6692017             -18.2099
        26        2.0000           -0.6595240             -17.9466
        27        1.9999           -0.6489712             -17.6594
        28        1.9999           -0.6406628             -17.4333
        29        1.9998           -0.6342114             -17.2578
        30        1.9998           -0.6312971             -17.1785
        31        1.9991           -0.6098736             -16.5955
        32        1.9989           -0.6069555             -16.5161
        33        1.9976           -0.5948964             -16.1880
        34        1.9881           -0.5697010             -15.5024
        35        1.9786           -0.5603307             -15.2474
        36        1.9610           -0.5507059             -14.9855
        37        1.9270           -0.5404867             -14.7074 (HOMO)
        38        0.1086           -0.4434158             -12.0660 (LUMO)
        39        0.0354           -0.4250705             -11.5668
        40        0.0061           -0.3970446             -10.8041
        41        0.0005           -0.3570412              -9.7156
        42        0.0000           -0.3172735              -8.6335
        43                         -0.1790004              -4.8708
        44                         -0.1660973              -4.5197
        45                         -0.1199942              -3.2652
        46                         -0.0567771              -1.5450
        47                         -0.0445936              -1.2135
        48                         -0.0344439              -0.9373
       ...                                ...                  ...
        67                          0.4917823              13.3821
      -------------------------------------------------------------
                  HL-Gap            0.0970709 Eh            2.6414 eV

     #   Z          covCN         q      C6AA      α(0)
     1   6 C        3.693    -0.092    22.445     6.778
     2   7 N        2.846     0.090    19.681     6.589
     3   6 C        3.034     0.060    26.632     8.465
     4   7 N        2.807    -0.055    22.311     7.015
     5   6 C        3.020     0.142    24.893     8.184
     6   6 C        3.096     0.004    27.812     8.643
     7   6 C        2.769     0.284    22.182     7.713
     8   8 O        0.859    -0.353    20.761     6.109
     9   7 N        2.732    -0.062    22.432     7.034
    10   6 C        3.703    -0.070    22.008     6.707
    11   6 C        2.711     0.248    22.830     7.821
    12   8 O        0.857    -0.360    20.891     6.128
    13   7 N        1.825    -0.131    24.604     7.350
    14   6 C        2.791     0.041    27.070     8.523
    15   1 H        0.924     0.135     1.498     1.914
    16   1 H        0.925     0.101     1.773     2.082
    17   1 H        0.924     0.111     1.691     2.034
    18   1 H        0.926     0.124     1.578     1.965
    19   1 H        0.925     0.112     1.680     2.027
    20   1 H        0.924     0.091     1.865     2.136
    21   1 H        0.925     0.088     1.898     2.154
    22   1 H        0.926     0.116     1.650     2.009
    23   1 H        0.925     0.081     1.973     2.197
    24   1 H        0.923     0.068     2.113     2.273
    25   1 H        0.860     0.227     0.978     1.549

Wiberg/Mayer (AO) data.
largest (>0.10) Wiberg bond orders for each atom

     #   Z sym  total        # sym  WBO       # sym  WBO       # sym  WBO
 ---------------------------------------------------------------------------
     1   6 C    3.919 --     2 N    0.987    16 H    0.974    17 H    0.956
                            15 H    0.951
     2   7 N    3.714 --     3 C    1.394     6 C    1.185     1 C    0.987
     3   6 C    3.905 --     2 N    1.394     4 N    1.310    18 H    0.950
     4   7 N    3.604 --     3 C    1.310     5 C    1.160    25 H    0.920
     5   6 C    3.929 --     6 C    1.366    13 N    1.223     4 N    1.160
     6   6 C    3.894 --     5 C    1.366     2 N    1.185     7 C    1.016
     7   6 C    3.935 --     8 O    1.714     9 N    1.113     6 C    1.016
     8   8 O    2.034 --     7 C    1.714     9 N    0.127
     9   7 N    3.569 --    11 C    1.169     7 C    1.113    10 C    0.974
                            12 O    0.147     8 O    0.127
    10   6 C    3.925 --     9 N    0.974    21 H    0.971    19 H    0.970
                            20 H    0.967
    11   6 C    3.920 --    12 O    1.779     9 N    1.169    24 H    0.916
    12   8 O    2.039 --    11 C    1.779     9 N    0.147
    13   7 N    3.204 --    14 C    1.822     5 C    1.223
    14   6 C    3.837 --    13 N    1.822    22 H    0.956    23 H    0.947
    15   1 H    0.980 --     1 C    0.951
    16   1 H    0.989 --     1 C    0.974
    17   1 H    0.986 --     1 C    0.956
    18   1 H    0.984 --     3 C    0.950
    19   1 H    0.986 --    10 C    0.970
    20   1 H    0.986 --    10 C    0.967
    21   1 H    0.989 --    10 C    0.971
    22   1 H    0.981 --    14 C    0.956
    23   1 H    0.981 --    14 C    0.947
    24   1 H    0.982 --    11 C    0.916
    25   1 H    0.948 --     4 N    0.920
 ---------------------------------------------------------------------------

molecular dipole:
                 x           y           z       tot (Debye)
 q only:        1.544      -1.530       0.277
   full:        1.565      -2.008       0.066       6.474

           -------------------------------------------------
          | TOTAL ENERGY              -42.169262686798 Eh   |
          | GRADIENT NORM               0.005488924160 Eh/α |
          | HOMO-LUMO GAP               2.641433452984 eV   |
           -------------------------------------------------

 * finished run on 2024/06/05 at 20:00:18.275
