   * xtb version 6.6.1 (8d0f1dd) compiled by 'conda@1efc2f54142f' on 2023-08-01
          program call               : xtb struc.xyz --opt loose --input .xc1 --gfn2

   ID    Z sym.   atoms
    1    6 C      1, 3, 5-7, 10, 11, 14
    2    7 N      2, 4, 9, 13
    3    8 O      8, 12
    4    1 H      15-25
constraining bond 2 18 to    4.0600000 Å, actual value:    2.1303834 Å

          :  Hamiltonian                  GFN2-xTB          :
 * total energy  :   -35.5995726 Eh     change       -0.6650680E-10 Eh
 * total energy  :   -38.4948166 Eh     change       -0.2895244E+01 Eh
 * total energy  :   -40.6030012 Eh     change       -0.2108185E+01 Eh
 * total energy  :   -41.6092477 Eh     change       -0.1006246E+01 Eh
 * total energy  :   -41.8674306 Eh     change       -0.2581830E+00 Eh
 * total energy  :   -41.8884364 Eh     change       -0.2100574E-01 Eh
 * total energy  :   -41.9047551 Eh     change       -0.1631867E-01 Eh
 * total energy  :   -41.9377727 Eh     change       -0.3301768E-01 Eh
 * total energy  :   -41.9644142 Eh     change       -0.2664146E-01 Eh
 * total energy  :   -41.9763898 Eh     change       -0.1197555E-01 Eh
 * total energy  :   -42.0856992 Eh     change       -0.1234246E-01 Eh
 * total energy  :   -42.0886829 Eh     change       -0.2983631E-02 Eh
 * total energy  :   -42.0893298 Eh     change       -0.6469747E-03 Eh
 * total energy  :   -42.0897524 Eh     change       -0.4225366E-03 Eh
 * total energy  :   -42.0899092 Eh     change       -0.1568031E-03 Eh
 * total energy  :   -42.0899912 Eh     change       -0.8199515E-04 Eh
 * total energy  :   -42.0900440 Eh     change       -0.5279262E-04 Eh
 * total energy  :   -42.0900841 Eh     change       -0.4015671E-04 Eh
 * total energy  :   -42.0901171 Eh     change       -0.3299058E-04 Eh
   *** GEOMETRY OPTIMIZATION CONVERGED AFTER 30 ITERATIONS ***

 final structure:
================
25
 xtb: 6.6.1 (8d0f1dd)
C            3.16448066932311        1.25384854099801        0.01633578726956
N            2.23282491806002        0.16229078599009       -0.00039031113155
C            2.55089425775079       -1.14039679818899       -0.00771447486122
N            1.39659058345149       -1.84594658706510       -0.00706937292533
C            0.33482138186736       -0.99119551585308        0.00063045795917
C            0.86616197137644        0.29236431082415        0.00593169804482
C            0.01487298652737        1.46191457890339       -0.00121148470630
O            0.38883237932105        2.61142722797941       -0.01218655482550
N           -1.33623266864500        1.11158467939632        0.00188703876060
C           -2.30545738510887        2.19403281800916       -0.00053524577680
C           -1.88217271872258       -0.16160104116870        0.00312563431067
O           -3.06878260823541       -0.34698938756192        0.00488072660331
N           -0.98547463605700       -1.24597509068007        0.00081202978827
C           -1.51396655940679       -2.59340021440352       -0.00370761583656
H            3.66968304864247        1.30457802057838        0.98324478746680
H            3.92038997027804        1.11142145839275       -0.75578048515749
H            2.62891315118300        2.18765718778969       -0.15328738325864
H            4.35621521956511       -3.29615022160795       -0.01179194460855
H           -1.76432880846325        3.13830659519267        0.00789386890261
H           -2.93715738018825        2.12939223510554       -0.88852304356203
H           -2.95070357209313        2.11998308642005        0.87680795912560
H           -1.18442359880671       -3.13533717582369        0.88393473511941
H           -1.19554183432530       -3.12515496881400       -0.90160137971570
H           -2.60169323398633       -2.52388701963903        0.00320549948141
H            1.36168598079239       -2.85452896317356       -0.01371930856657

          :  Hamiltonian                  GFN2-xTB          :
         :: total energy             -42.090117108939 Eh    ::
         :: gradient norm              0.003907192530 Eh/a0 ::
         :: HOMO-LUMO gap              0.942630964419 eV    ::
         :: SCC energy               -42.594822258009 Eh    ::
         :: -> dispersion             -0.022565625205 Eh    ::
         :: repulsion energy           0.504602301125 Eh    ::

    * Orbital Energies and Occupations

         #    Occupation            Energy/Eh            Energy/eV
      -------------------------------------------------------------
         1        2.0000           -0.8990660             -24.4648
       ...           ...                  ...                  ...
        25        1.9997           -0.6682116             -18.1830
        26        1.9997           -0.6676341             -18.1672
        27        1.9987           -0.6438365             -17.5197
        28        1.9978           -0.6354129             -17.2905
        29        1.9959           -0.6255906             -17.0232
        30        1.9938           -0.6188101             -16.8387
        31        1.9911           -0.6131647             -16.6851
        32        1.9866           -0.6065661             -16.5055
        33        1.9717           -0.5946542             -16.1814
        34        1.9278           -0.5794632             -15.7680
        35        1.9092           -0.5756769             -15.6650
        36        1.7303           -0.5568765             -15.1534
        37        1.7059           -0.5552849             -15.1101 (HOMO)
        38        0.7884           -0.5206438             -14.1674 (LUMO)
        39        0.0031           -0.4250881             -11.5672
        40        0.0005           -0.3955502             -10.7635
        41        0.0001           -0.3766208             -10.2484
        42        0.0000           -0.2968292              -8.0771
        43                         -0.2119752              -5.7681
        44                         -0.1687944              -4.5931
        45                         -0.1442193              -3.9244
        46                         -0.1338526              -3.6423
        47                         -0.0691829              -1.8826
        48                         -0.0410943              -1.1182
       ...                                ...                  ...
        67                          0.5387436              14.6600
      -------------------------------------------------------------
                  HL-Gap            0.0346411 Eh            0.9426 eV

     #   Z          covCN         q      C6AA      α(0)
     1   6 C        3.692    -0.084    22.304     6.758
     2   7 N        2.846     0.080    19.856     6.618
     3   6 C        2.073    -0.050    32.282     9.178
     4   7 N        2.811    -0.060    22.402     7.030
     5   6 C        3.020     0.116    25.421     8.270
     6   6 C        3.095    -0.010    28.156     8.697
     7   6 C        2.765     0.274    22.370     7.746
     8   8 O        0.858    -0.334    20.409     6.057
     9   7 N        2.745    -0.073    22.647     7.068
    10   6 C        3.709    -0.062    21.838     6.679
    11   6 C        2.729     0.319    21.586     7.606
    12   8 O        0.860    -0.338    20.480     6.068
    13   7 N        2.738    -0.043    22.078     6.979
    14   6 C        3.697    -0.071    22.037     6.715
    15   1 H        0.924     0.111     1.686     2.031
    16   1 H        0.925     0.112     1.683     2.029
    17   1 H        0.925     0.122     1.597     1.976
    18   1 H        0.000     0.116     4.109     3.707
    19   1 H        0.925     0.121     1.604     1.980
    20   1 H        0.924     0.111     1.689     2.032
    21   1 H        0.924     0.111     1.686     2.031
    22   1 H        0.924     0.093     1.846     2.125
    23   1 H        0.924     0.094     1.845     2.124
    24   1 H        0.925     0.129     1.543     1.943
    25   1 H        0.860     0.218     1.018     1.580

Wiberg/Mayer (AO) data.
largest (>0.10) Wiberg bond orders for each atom

     #   Z sym  total        # sym  WBO       # sym  WBO       # sym  WBO
 ---------------------------------------------------------------------------
     1   6 C    3.901 --     2 N    0.998    17 H    0.959    16 H    0.955
                            15 H    0.947
     2   7 N    3.647 --     3 C    1.359     6 C    1.173     1 C    0.998
     3   6 C    2.894 --     2 N    1.359     4 N    1.291
     4   7 N    3.584 --     3 C    1.291     5 C    1.195    25 H    0.923
     5   6 C    3.906 --     6 C    1.319    13 N    1.211     4 N    1.195
     6   6 C    3.826 --     5 C    1.319     2 N    1.173     7 C    1.070
     7   6 C    3.949 --     8 O    1.683     9 N    1.097     6 C    1.070
     8   8 O    1.987 --     7 C    1.683     9 N    0.130
     9   7 N    3.513 --    11 C    1.118     7 C    1.097    10 C    0.976
                             8 O    0.130    12 O    0.123
    10   6 C    3.877 --     9 N    0.976    19 H    0.961    21 H    0.949
                            20 H    0.948
    11   6 C    3.954 --    12 O    1.694     9 N    1.118    13 N    1.049
    12   8 O    2.004 --    11 C    1.694     9 N    0.123    13 N    0.109
    13   7 N    3.497 --     5 C    1.211    11 C    1.049    14 C    0.978
                            12 O    0.109
    14   6 C    3.908 --    13 N    0.978    24 H    0.962    22 H    0.962
                            23 H    0.961
    15   1 H    0.973 --     1 C    0.947
    16   1 H    0.976 --     1 C    0.955
    17   1 H    0.979 --     1 C    0.959
    18   1 H    0.081
    19   1 H    0.979 --    10 C    0.961
    20   1 H    0.966 --    10 C    0.948
    21   1 H    0.967 --    10 C    0.949
    22   1 H    0.978 --    14 C    0.962
    23   1 H    0.978 --    14 C    0.961
    24   1 H    0.982 --    14 C    0.962
    25   1 H    0.951 --     4 N    0.923
 ---------------------------------------------------------------------------

molecular dipole:
                 x           y           z       tot (Debye)
 q only:        1.838      -1.803       0.006
   full:        1.642      -2.070       0.013       6.716

           -------------------------------------------------
          | TOTAL ENERGY              -42.090117108939 Eh   |
          | GRADIENT NORM               0.003907192530 Eh/α |
          | HOMO-LUMO GAP               0.942630964419 eV   |
           -------------------------------------------------

 * finished run on 2024/06/05 at 19:57:54.582
