   * xtb version 6.6.1 (8d0f1dd) compiled by 'conda@1efc2f54142f' on 2023-08-01
          program call               : xtb struc.xyz --opt loose --input .xc1 --gfn2

   ID    Z sym.   atoms
    1    7 N      1, 17
    2    6 C      2-6, 8, 9, 11-16, 18-23, 25, 26, 28-33
    3    8 O      7, 10, 24, 27
    4    1 H      34-72
constraining bond 29 59 to    4.7133300 Å, actual value:    2.8509454 Å

          :  Hamiltonian                  GFN2-xTB          :
 * total energy  :  -100.0234385 Eh     change       -0.4035485E-08 Eh
 * total energy  :  -100.4927809 Eh     change       -0.4693424E+00 Eh
 * total energy  :  -101.0531023 Eh     change       -0.5603214E+00 Eh
 * total energy  :  -101.6996577 Eh     change       -0.6465554E+00 Eh
 * total energy  :   -97.0275702 Eh     change        0.4672088E+01 Eh
 * total energy  :  -101.7806652 Eh     change       -0.4753095E+01 Eh
 * total energy  :  -101.8413848 Eh     change       -0.6071960E-01 Eh
 * total energy  :  -101.8986428 Eh     change       -0.5725797E-01 Eh
 * total energy  :  -101.9208334 Eh     change       -0.2219055E-01 Eh
 * total energy  :  -101.9292530 Eh     change       -0.8419647E-02 Eh
 * total energy  :  -101.9875952 Eh     change       -0.3487795E-03 Eh
 * total energy  :  -101.9877788 Eh     change       -0.1835711E-03 Eh
 * total energy  :  -101.9878801 Eh     change       -0.1012677E-03 Eh
 * total energy  :  -101.9879702 Eh     change       -0.9009138E-04 Eh
 * total energy  :  -101.9880613 Eh     change       -0.9114853E-04 Eh
 * total energy  :  -101.9881425 Eh     change       -0.8116404E-04 Eh
 * total energy  :  -101.9882088 Eh     change       -0.6637144E-04 Eh
 * total energy  :  -101.9882653 Eh     change       -0.5645216E-04 Eh
 * total energy  :  -101.9883111 Eh     change       -0.4575737E-04 Eh
   *** GEOMETRY OPTIMIZATION CONVERGED AFTER 35 ITERATIONS ***

 final structure:
================
72
 xtb: 6.6.1 (8d0f1dd)
N           -1.94149576397338        2.88644141813483        2.24788128962470
C           -1.86516515947803        2.14991504157083        1.24132949173235
C           -2.97811233196137        1.92944502957688        0.25501140379100
C           -3.46171418153644        0.49000925168723        0.34985276092639
C           -4.36902542075860        0.00170303651308       -0.59294718303378
C           -4.84848994220630       -1.29556260581246       -0.53268006554999
O           -5.73678438451287       -1.83845621200749       -1.39334315877252
C           -6.34139475496177       -1.01723299754944       -2.36426488578504
C           -4.39677600581142       -2.16124839763453        0.49854506752569
O           -4.90364427156295       -3.41212480200600        0.47097227892323
C           -4.56479338151076       -4.30903118166034        1.50213266926718
C           -3.49941691722793       -1.67056253999063        1.43257074001770
C           -3.04242393078206       -0.35989956742515        1.36057920700635
C           -2.36335433595852        2.18711842852868       -1.14628127477653
C           -1.43294439780746        1.07012243405804       -1.65188268060116
C           -0.12634328113738        1.02479460943294       -0.95891183453063
N            0.48810707351677       -0.08267223032679       -0.53970734914208
C            1.87240485823020       -0.03295426045655       -0.13991248117004
C            2.81720507463118       -0.43125007484525       -1.29852493634112
C            4.24747263582530       -0.21975500411784       -0.90424410846015
C            4.85265762503893        0.98065665456752       -1.02598628893411
C            6.17853076472173        1.22378929489048       -0.59992968307788
C            6.92076531150936        0.22041575438720       -0.00910709086402
O            8.18168202469048        0.34373147188994        0.45448854207831
C            8.83712930082155        1.58680871767310        0.32871958827410
C            6.35730213013730       -1.06866044954966        0.15136072547105
O            7.12035013064576       -1.99176918877118        0.69623006180540
C            6.82040330929675       -3.23852439679797        0.89442293673913
C            4.95876440151464       -1.42349049759405       -0.32074333500913
C           -0.13853091836250       -1.38014638969565       -0.61312692242187
C           -4.19622098649848        2.87345345150249        0.47848068090807
C           -4.89158108433695        2.58382354515794        1.80651240927453
C           -3.83205905019717        4.35354882064210        0.39934054262178
H           -4.71540394187701        0.65268711924685       -1.37828807279135
H           -6.85677717338172       -0.16780626670188       -1.90576470902506
H           -7.06899591629535       -1.64960181284693       -2.86921387201013
H           -5.61251229123740       -0.65296067742661       -3.09586143876041
H           -4.86725533122999       -3.92715203091690        2.48182192764344
H           -5.11431701884762       -5.22311669384561        1.28614331410784
H           -3.49147887434070       -4.52577538677391        1.51001437076837
H           -3.15555744722362       -2.29763580045210        2.23923139895202
H           -2.36962319452634       -0.00576697551419        2.12627921857547
H           -3.17269149939284        2.30268357471383       -1.86642745669186
H           -1.80934046213257        3.12625426791266       -1.11965770437443
H           -1.94858873841429        0.11295405865394       -1.59867012028333
H           -1.23547855516807        1.28301415524517       -2.71121672065994
H           -0.94588532503193        1.60956086955046        0.94210145907048
H            0.45004866071967        1.93653823764074       -0.91590301911161
H            2.02407095307942       -0.70390823697699        0.71019567369739
H            2.12001364745467        0.98245214614556        0.17690871092302
H            2.57265977717113        0.19049853031203       -2.16245500366637
H            2.64244479917693       -1.47556186201998       -1.56488750619077
H            4.31495036729172        1.80696129448753       -1.46636300828741
H            6.59246736469298        2.20598812535267       -0.74012155754066
H            8.31801548212698        2.37018455982960        0.88885482964716
H            8.93086281765861        1.88456922950997       -0.71964100305347
H            9.82856040287552        1.43593855840743        0.75198591442111
H            7.59338188509157       -3.82810741843481        1.34696419142423
H            4.56173250881163       -1.75349036559869        0.21537413130701
H            5.87315425659428       -3.67371746051037        0.62679296995720
H            5.10950344909924       -2.12575481345203       -1.17981252405349
H           -0.24972930049692       -1.71160343500682       -1.64830277989162
H           -1.12521851144989       -1.35231342929826       -0.14530348473126
H            0.47414710664592       -2.10395893105122       -0.08119320557197
H           -4.90754185449510        2.65814875089737       -0.32704676448884
H           -4.22487496585186        2.80966907836208        2.63224287884310
H           -5.19501625227518        1.54176411775802        1.87202259549493
H           -5.77875558140605        3.20519767393473        1.89618488072388
H           -3.11034778504162        4.60577641355707        1.16990458208322
H           -3.42756081711988        4.62103990323018       -0.57320733083611
H           -4.72610095804440        4.94948158904273        0.56297335504991
H           -1.11295022621077        2.97857270156281        2.82776860441130

          :  Hamiltonian                  GFN2-xTB          :
         :: total energy            -101.988311059879 Eh    ::
         :: gradient norm              0.003824341130 Eh/a0 ::
         :: HOMO-LUMO gap              1.127959021662 eV    ::
         :: SCC energy              -100.726759303926 Eh    ::
         :: -> dispersion             -0.075207681775 Eh    ::
         :: repulsion energy           1.550010350648 Eh    ::

    * Orbital Energies and Occupations

         #    Occupation            Energy/Eh            Energy/eV
      -------------------------------------------------------------
         1        2.0000           -0.8512981             -23.1650
       ...           ...                  ...                  ...
        78        1.9990           -0.5284847             -14.3808
        79        1.9989           -0.5258147             -14.3081
        80        1.9986           -0.5225785             -14.2201
        81        1.9986           -0.5220760             -14.2064
        82        1.9980           -0.5164254             -14.0526
        83        1.9967           -0.5087301             -13.8433
        84        1.9961           -0.5060605             -13.7706
        85        1.9953           -0.5033639             -13.6972
        86        1.9841           -0.4838770             -13.1670
        87        1.9806           -0.4806781             -13.0799
        88        1.9468           -0.4644430             -12.6381
        89        1.8947           -0.4532132             -12.3326
        90        1.6013           -0.4294609             -11.6862 (HOMO)
        91        0.4532           -0.3880091             -10.5583 (LUMO)
        92        0.1357           -0.3659575              -9.9582
        93        0.0166           -0.3317006              -9.0260
        94        0.0042           -0.3099542              -8.4343
        95        0.0034           -0.3066898              -8.3455
        96        0.0034           -0.3062649              -8.3339
        97        0.0000           -0.2221803              -6.0458
        98        0.0000           -0.1840193              -5.0074
        99                         -0.1306960              -3.5564
       100                         -0.0785859              -2.1384
       101                         -0.0622713              -1.6945
       ...                                ...                  ...
       171                          1.4018145              38.1453
      -------------------------------------------------------------
                  HL-Gap            0.0414517 Eh            1.1280 eV

     #   Z          covCN         q      C6AA      α(0)
     1   7 N        1.774    -0.273    27.892     7.821
     2   6 C        2.827     0.101    25.754     8.316
     3   6 C        3.907     0.006    20.416     6.422
     4   6 C        2.974     0.002    27.981     8.677
     5   6 C        2.921    -0.080    30.002     8.982
     6   6 C        2.863     0.128    25.190     8.227
     7   8 O        1.706    -0.234    17.878     5.709
     8   6 C        3.644     0.029    20.426     6.496
     9   6 C        2.864     0.127    25.218     8.231
    10   8 O        1.706    -0.233    17.860     5.706
    11   6 C        3.645     0.028    20.430     6.496
    12   6 C        2.914    -0.076    29.888     8.965
    13   6 C        2.921    -0.054    29.343     8.883
    14   6 C        3.812    -0.064    21.721     6.634
    15   6 C        3.802    -0.068    21.799     6.647
    16   6 C        2.843     0.001    28.007     8.673
    17   7 N        2.729     0.001    21.241     6.845
    18   6 C        3.755    -0.016    20.923     6.522
    19   6 C        3.806    -0.072    21.879     6.659
    20   6 C        2.952    -0.017    28.445     8.748
    21   6 C        2.906    -0.045    29.111     8.847
    22   6 C        2.911    -0.082    30.064     8.991
    23   6 C        2.851     0.136    25.016     8.197
    24   8 O        1.706    -0.238    17.942     5.719
    25   6 C        3.645     0.025    20.484     6.505
    26   6 C        2.864     0.079    26.236     8.396
    27   8 O        1.712    -0.071    15.424     5.303
    28   6 C        2.742    -0.001    28.030     8.669
    29   6 C        3.808    -0.107    22.536     6.758
    30   6 C        3.699    -0.068    21.974     6.704
    31   6 C        3.853    -0.007    20.673     6.467
    32   6 C        3.756    -0.118    22.814     6.810
    33   6 C        3.755    -0.118    22.817     6.811
    34   1 H        0.926     0.051     2.311     2.377
    35   1 H        0.924     0.052     2.291     2.367
    36   1 H        0.925     0.079     1.987     2.204
    37   1 H        0.924     0.046     2.373     2.409
    38   1 H        0.924     0.053     2.279     2.361
    39   1 H        0.925     0.079     1.988     2.205
    40   1 H        0.924     0.045     2.378     2.412
    41   1 H        0.926     0.049     2.327     2.386
    42   1 H        0.926     0.037     2.489     2.467
    43   1 H        0.925     0.058     2.220     2.330
    44   1 H        0.924     0.052     2.299     2.371
    45   1 H        0.925     0.064     2.148     2.292
    46   1 H        0.923     0.075     2.028     2.227
    47   1 H        0.922     0.005     2.972     2.696
    48   1 H        0.926     0.064     2.149     2.292
    49   1 H        0.924     0.063     2.169     2.303
    50   1 H        0.924     0.067     2.119     2.277
    51   1 H        0.924     0.056     2.242     2.342
    52   1 H        0.924     0.053     2.283     2.363
    53   1 H        0.926     0.048     2.348     2.396
    54   1 H        0.926     0.058     2.228     2.334
    55   1 H        0.924     0.054     2.271     2.356
    56   1 H        0.924     0.056     2.252     2.347
    57   1 H        0.925     0.081     1.969     2.194
    58   1 H        0.926     0.084     1.936     2.176
    59   1 H        0.930     0.118     1.625     1.993
    60   1 H        0.926     0.051     2.309     2.376
    61   1 H        0.920     0.066     2.127     2.281
    62   1 H        0.924     0.072     2.060     2.244
    63   1 H        0.924     0.079     1.990     2.206
    64   1 H        0.925     0.075     2.032     2.229
    65   1 H        0.924     0.035     2.510     2.478
    66   1 H        0.925     0.068     2.110     2.271
    67   1 H        0.925     0.035     2.523     2.484
    68   1 H        0.925     0.049     2.330     2.387
    69   1 H        0.925     0.060     2.197     2.318
    70   1 H        0.925     0.033     2.541     2.493
    71   1 H        0.925     0.053     2.289     2.366
    72   1 H        0.860     0.154     1.376     1.837

Wiberg/Mayer (AO) data.
largest (>0.10) Wiberg bond orders for each atom

     #   Z sym  total        # sym  WBO       # sym  WBO       # sym  WBO
 ---------------------------------------------------------------------------
     1   7 N    3.036 --     2 C    1.953    72 H    0.943
     2   6 C    3.926 --     1 N    1.953     3 C    0.996    47 H    0.901
     3   6 C    3.977 --     2 C    0.996     4 C    0.969    14 C    0.957
                            31 C    0.944
     4   6 C    3.954 --    13 C    1.418     5 C    1.367     3 C    0.969
     5   6 C    3.965 --     6 C    1.404     4 C    1.367    34 H    0.958
     6   6 C    3.910 --     5 C    1.404     9 C    1.227     7 O    1.094
     7   8 O    2.253 --     6 C    1.094     8 C    0.979
     8   6 C    3.934 --     7 O    0.979    36 H    0.977    35 H    0.974
                            37 H    0.974
     9   6 C    3.907 --    12 C    1.396     6 C    1.227    10 O    1.096
    10   8 O    2.251 --     9 C    1.096    11 C    0.979
    11   6 C    3.934 --    10 O    0.979    39 H    0.977    40 H    0.974
                            38 H    0.974
    12   6 C    3.965 --    13 C    1.400     9 C    1.396    41 H    0.964
    13   6 C    3.959 --     4 C    1.418    12 C    1.400    42 H    0.963
    14   6 C    3.972 --    15 C    0.982    44 H    0.973    43 H    0.969
                             3 C    0.957
    15   6 C    3.987 --    16 C    1.059    14 C    0.982    45 H    0.961
                            46 H    0.928
    16   6 C    3.554 --    17 N    1.370    15 C    1.059    48 H    0.959
    17   7 N    3.452 --    16 C    1.370    30 C    1.000    18 C    0.993
    18   6 C    3.952 --    17 N    0.993    50 H    0.968    49 H    0.966
                            19 C    0.958
    19   6 C    3.976 --    20 C    1.019    52 H    0.973    51 H    0.969
                            18 C    0.958
    20   6 C    3.835 --    21 C    1.650    19 C    1.019    29 C    1.011
    21   6 C    3.965 --    20 C    1.650    22 C    1.251    53 H    0.964
    22   6 C    3.807 --    23 C    1.402    21 C    1.251    54 H    0.965
    23   6 C    3.893 --    22 C    1.402    26 C    1.239    24 O    1.100
    24   8 O    2.259 --    23 C    1.100    25 C    0.974
    25   6 C    3.930 --    57 H    0.977    55 H    0.974    56 H    0.974
                            24 O    0.974
    26   6 C    3.770 --    23 C    1.239    27 O    1.178    29 C    1.003
                            28 C    0.228
    27   8 O    2.565 --    28 C    1.273    26 C    1.178
    28   6 C    3.575 --    27 O    1.273    60 H    0.970    58 H    0.969
                            26 C    0.228
    29   6 C    3.976 --    20 C    1.011    26 C    1.003    59 H    0.952
                            61 H    0.917
    30   6 C    3.960 --    17 N    1.000    64 H    0.978    62 H    0.967
                            63 H    0.962
    31   6 C    3.975 --    33 C    1.009    32 C    1.008    65 H    0.961
                             3 C    0.944
    32   6 C    3.982 --    31 C    1.008    67 H    0.982    68 H    0.982
                            66 H    0.975
    33   6 C    3.985 --    31 C    1.009    70 H    0.983    71 H    0.981
                            69 H    0.977
    34   1 H    0.996 --     5 C    0.958
    35   1 H    0.994 --     8 C    0.974
    36   1 H    0.993 --     8 C    0.977
    37   1 H    0.995 --     8 C    0.974
    38   1 H    0.994 --    11 C    0.974
    39   1 H    0.993 --    11 C    0.977
    40   1 H    0.994 --    11 C    0.974
    41   1 H    0.996 --    12 C    0.964
    42   1 H    0.998 --    13 C    0.963
    43   1 H    0.995 --    14 C    0.969
    44   1 H    0.996 --    14 C    0.973
    45   1 H    0.995 --    15 C    0.961
    46   1 H    0.968 --    15 C    0.928
    47   1 H    0.988 --     2 C    0.901
    48   1 H    0.995 --    16 C    0.959
    49   1 H    0.992 --    18 C    0.966
    50   1 H    0.994 --    18 C    0.968
    51   1 H    0.994 --    19 C    0.969
    52   1 H    0.995 --    19 C    0.973
    53   1 H    0.997 --    21 C    0.964
    54   1 H    0.996 --    22 C    0.965
    55   1 H    0.994 --    25 C    0.974
    56   1 H    0.994 --    25 C    0.974
    57   1 H    0.993 --    25 C    0.977
    58   1 H    0.992 --    28 C    0.969
    59   1 H    0.978 --    29 C    0.952
    60   1 H    0.997 --    28 C    0.970
    61   1 H    0.967 --    29 C    0.917
    62   1 H    0.984 --    30 C    0.967
    63   1 H    0.987 --    30 C    0.962
    64   1 H    0.994 --    30 C    0.978
    65   1 H    0.994 --    31 C    0.961
    66   1 H    0.992 --    32 C    0.975
    67   1 H    0.997 --    32 C    0.982
    68   1 H    0.995 --    32 C    0.982
    69   1 H    0.994 --    33 C    0.977
    70   1 H    0.998 --    33 C    0.983
    71   1 H    0.994 --    33 C    0.981
    72   1 H    0.972 --     1 N    0.943
 ---------------------------------------------------------------------------

molecular dipole:
                 x           y           z       tot (Debye)
 q only:        2.046      -0.523      -0.642
   full:        2.384      -0.625      -0.799       6.585

           -------------------------------------------------
          | TOTAL ENERGY             -101.988311059879 Eh   |
          | GRADIENT NORM               0.003824341130 Eh/α |
          | HOMO-LUMO GAP               1.127959021662 eV   |
           -------------------------------------------------

 * finished run on 2024/04/06 at 11:14:19.472
