   * xtb version 6.6.1 (8d0f1dd) compiled by 'conda@1efc2f54142f' on 2023-08-01
          program call               : xtb xtbopt.xyz --opt crude --input .xc2 --gfn2

   ID    Z sym.   atoms
    1    7 N      1, 17
    2    6 C      2-6, 8, 9, 11-16, 18-23, 25, 26, 28-33
    3    8 O      7, 10, 24, 27
    4    1 H      34-72
########################################################################
[WARNING] Please study the warnings concerning your input carefully
-1- readin_getIntValue: could not parse ''
########################################################################

          :  Hamiltonian                  GFN2-xTB          :
 * total energy  :   -99.1755019 Eh     change       -0.1614353E-10 Eh
 * total energy  :   -99.3366710 Eh     change       -0.1611691E+00 Eh
 * total energy  :   -99.3385024 Eh     change       -0.1831482E-02 Eh
 * total energy  :   -99.3394793 Eh     change       -0.9769011E-03 Eh
 * total energy  :   -99.3396828 Eh     change       -0.2034938E-03 Eh
   *** GEOMETRY OPTIMIZATION CONVERGED AFTER 5 ITERATIONS ***

 final structure:
================
72
 xtb: 6.6.1 (8d0f1dd)
N           -1.93911347910011        2.88483228453189        2.24750439634139
C           -1.86315908149963        2.14921700239198        1.24055008948836
C           -2.97734955430594        1.92889471587977        0.25536299737460
C           -3.46114509154538        0.48957972369999        0.34978531380896
C           -4.36773796126091        0.00120215473402       -0.59359999161993
C           -4.84735883779670       -1.29601300821516       -0.53334590088028
O           -5.73453425094989       -1.83951669396015       -1.39455869584014
C           -6.33581942137795       -1.02014122610733       -2.36900837020061
C           -4.39691562977572       -2.16119799861348        0.49882958109556
O           -4.90350628439947       -3.41213040423060        0.47122683181663
C           -4.56655472878241       -4.30785151479427        1.50397347724878
C           -3.50065584554256       -1.67017895544590        1.43366309089289
C           -3.04319831525706       -0.35973291345224        1.36144602184301
C           -2.36290855702642        2.18711605166432       -1.14579107237536
C           -1.43094249714053        1.07115519281867       -1.65118321306675
C           -0.12355768800933        1.02592816332610       -0.95866270766968
N            0.49505156316952       -0.08167450994896       -0.54673931542824
C            1.88021115458306       -0.03192803545345       -0.14982781394446
C            2.82378579958840       -0.42371865546671       -1.31154726103938
C            4.25573668340877       -0.21670514756213       -0.92026281677704
C            4.85415525140260        0.99237123332195       -1.02251754576902
C            6.18359455159503        1.23295690126991       -0.60718158820014
C            6.93152869760258        0.22410303127174       -0.03073314626376
O            8.19102315107751        0.34703401152081        0.43713992344025
C            8.84301119795787        1.59350686845623        0.32579030996323
C            6.36975116628605       -1.06983944153445        0.11358199001684
O            7.12508037519666       -1.98690272801471        0.68108233771708
C            6.81911436021506       -3.23206726452000        0.88140275711808
C            4.98956716537896       -1.40276629295160       -0.36994849181069
C           -0.13526144476318       -1.37794745253259       -0.61558786627063
C           -4.19578079914114        2.87211841008002        0.48053240629620
C           -4.88899244183323        2.58185393984252        1.80967515773235
C           -3.83332664916399        4.35255439942816        0.40074651422731
H           -4.71364889154691        0.65196557896166       -1.37930444385965
H           -6.85356606067226       -0.17035384012860       -1.91393494457232
H           -7.06100683141579       -1.65383667448746       -2.87574424513758
H           -5.60437322384745       -0.65652210303954       -3.09828146742996
H           -4.86921711938960       -3.92401986129582        2.48276972459369
H           -5.11698902405430       -5.22164803725204        1.28906118871077
H           -3.49354046698895       -4.52577994682734        1.51286890522889
H           -3.15798497999981       -2.29689482347666        2.24101028983913
H           -2.37132798531391       -0.00495700671676        2.12758806113093
H           -3.17229228448336        2.30104759537353       -1.86617507056138
H           -1.81030018582142        3.12709378319418       -1.11956138494151
H           -1.94643698748668        0.11385320052338       -1.59950462432415
H           -1.23258679060194        1.28532332775655       -2.71010303220232
H           -0.94377988512283        1.60995683748602        0.93835335515675
H            0.45211879854705        1.93851699149782       -0.91868378799828
H            2.03441164103519       -0.70731254717072        0.69533438408412
H            2.12723826725078        0.98145227576042        0.17289210675656
H            2.57574384375452        0.20210146861766       -2.17102668322460
H            2.64991819553187       -1.46616680653614       -1.58153145808594
H            4.30617291149396        1.82587076209510       -1.43831654959532
H            6.59378668822774        2.21872401920070       -0.73944275367230
H            8.31769883422850        2.37093502481199        0.88795670059567
H            8.94275887968383        1.89940101973840       -0.71928962326582
H            9.83177177732747        1.44361828083724        0.75458896069319
H            7.57582317254417       -3.81596259439941        1.36852019755006
H            4.41195001609197       -1.86206945222348        0.43889023821883
H            5.88389831147691       -3.67119246586661        0.58229189885886
H            5.06842911012951       -2.17215179133453       -1.16047267129720
H           -0.25268039140461       -1.70991964539362       -1.64992753989465
H           -1.11953610940277       -1.34679850864398       -0.14269077197344
H            0.47814125612910       -2.10320880549489       -0.08657645764832
H           -4.90812979808596        2.65606314808438       -0.32388607850105
H           -4.22067270609082        2.80658884424987        2.63442439155329
H           -5.19305787517986        1.53997375214463        1.87489536909058
H           -5.77559613594317        3.20375984040435        1.90150456869753
H           -3.10947915535615        4.60546601629039        1.16910801956215
H           -3.43227812298331        4.62078993116012       -0.57311986462908
H           -4.72758418132809        4.94740665277716        0.56739793941701
H           -1.11107347272625        2.97891424038597        2.82758459640911

          :  Hamiltonian                  GFN2-xTB          :
         :: total energy             -99.339682836871 Eh    ::
         :: gradient norm              0.007884099191 Eh/a0 ::
         :: HOMO-LUMO gap              1.133909051504 eV    ::
         :: SCC energy              -100.702362996100 Eh    ::
         :: -> dispersion             -0.075212204269 Eh    ::
         :: repulsion energy           1.361426368469 Eh    ::

    * Orbital Energies and Occupations

         #    Occupation            Energy/Eh            Energy/eV
      -------------------------------------------------------------
         1        2.0000           -0.8503210             -23.1384
       ...           ...                  ...                  ...
        78        1.9990           -0.5284424             -14.3796
        79        1.9988           -0.5251263             -14.2894
        80        1.9986           -0.5226998             -14.2234
        81        1.9986           -0.5221740             -14.2091
        82        1.9979           -0.5165053             -14.0548
        83        1.9967           -0.5088391             -13.8462
        84        1.9961           -0.5061805             -13.7739
        85        1.9953           -0.5034557             -13.6997
        86        1.9840           -0.4839584             -13.1692
        87        1.9796           -0.4800605             -13.0631
        88        1.9468           -0.4645767             -12.6418
        89        1.8943           -0.4532832             -12.3345
        90        1.6042           -0.4297459             -11.6940 (HOMO)
        91        0.4515           -0.3880755             -10.5601 (LUMO)
        92        0.1364           -0.3661862              -9.9644
        93        0.0166           -0.3318050              -9.0289
        94        0.0042           -0.3100144              -8.4359
        95        0.0034           -0.3067308              -8.3466
        96        0.0033           -0.3060806              -8.3289
        97        0.0000           -0.2235603              -6.0834
        98        0.0000           -0.1840614              -5.0086
        99                         -0.1313398              -3.5739
       100                         -0.0743374              -2.0228
       101                         -0.0621992              -1.6925
       ...                                ...                  ...
       171                          0.5793665              15.7654
      -------------------------------------------------------------
                  HL-Gap            0.0416704 Eh            1.1339 eV

     #   Z          covCN         q      C6AA      α(0)
     1   7 N        1.774    -0.272    27.884     7.819
     2   6 C        2.827     0.101    25.752     8.315
     3   6 C        3.907     0.006    20.416     6.422
     4   6 C        2.974     0.002    27.980     8.677
     5   6 C        2.921    -0.080    30.003     8.982
     6   6 C        2.863     0.128    25.189     8.227
     7   8 O        1.706    -0.234    17.876     5.708
     8   6 C        3.644     0.029    20.427     6.496
     9   6 C        2.864     0.127    25.217     8.231
    10   8 O        1.706    -0.233    17.858     5.706
    11   6 C        3.645     0.028    20.430     6.496
    12   6 C        2.914    -0.076    29.887     8.965
    13   6 C        2.922    -0.054    29.342     8.883
    14   6 C        3.812    -0.064    21.722     6.634
    15   6 C        3.802    -0.068    21.800     6.647
    16   6 C        2.843     0.001    28.005     8.673
    17   7 N        2.729     0.002    21.232     6.844
    18   6 C        3.755    -0.016    20.916     6.521
    19   6 C        3.806    -0.072    21.877     6.658
    20   6 C        2.953    -0.013    28.333     8.731
    21   6 C        2.907    -0.044    29.098     8.845
    22   6 C        2.910    -0.082    30.051     8.989
    23   6 C        2.851     0.137    25.005     8.196
    24   8 O        1.706    -0.237    17.930     5.717
    25   6 C        3.645     0.025    20.485     6.505
    26   6 C        2.866     0.083    26.136     8.380
    27   8 O        1.712    -0.070    15.412     5.301
    28   6 C        2.743    -0.000    28.014     8.666
    29   6 C        3.808    -0.073    21.880     6.659
    30   6 C        3.699    -0.068    21.975     6.704
    31   6 C        3.853    -0.007    20.673     6.467
    32   6 C        3.756    -0.118    22.815     6.811
    33   6 C        3.755    -0.118    22.816     6.811
    34   1 H        0.926     0.051     2.311     2.377
    35   1 H        0.924     0.052     2.291     2.367
    36   1 H        0.925     0.079     1.987     2.204
    37   1 H        0.924     0.046     2.372     2.409
    38   1 H        0.924     0.053     2.279     2.361
    39   1 H        0.925     0.079     1.988     2.205
    40   1 H        0.924     0.045     2.377     2.411
    41   1 H        0.926     0.049     2.326     2.385
    42   1 H        0.926     0.037     2.488     2.467
    43   1 H        0.925     0.058     2.220     2.330
    44   1 H        0.924     0.052     2.298     2.371
    45   1 H        0.925     0.064     2.148     2.292
    46   1 H        0.923     0.075     2.027     2.226
    47   1 H        0.922     0.005     2.970     2.695
    48   1 H        0.926     0.064     2.148     2.292
    49   1 H        0.924     0.062     2.172     2.305
    50   1 H        0.924     0.067     2.118     2.276
    51   1 H        0.924     0.057     2.236     2.338
    52   1 H        0.924     0.054     2.277     2.360
    53   1 H        0.926     0.048     2.345     2.395
    54   1 H        0.926     0.058     2.227     2.333
    55   1 H        0.924     0.054     2.270     2.356
    56   1 H        0.924     0.056     2.250     2.346
    57   1 H        0.925     0.081     1.967     2.193
    58   1 H        0.926     0.085     1.924     2.169
    59   1 H        0.924     0.061     2.183     2.311
    60   1 H        0.926     0.052     2.298     2.370
    61   1 H        0.922     0.069     2.092     2.262
    62   1 H        0.924     0.073     2.058     2.243
    63   1 H        0.924     0.079     1.988     2.205
    64   1 H        0.925     0.075     2.032     2.229
    65   1 H        0.924     0.036     2.509     2.477
    66   1 H        0.925     0.068     2.109     2.271
    67   1 H        0.925     0.035     2.522     2.483
    68   1 H        0.925     0.049     2.329     2.387
    69   1 H        0.925     0.060     2.199     2.319
    70   1 H        0.925     0.033     2.541     2.493
    71   1 H        0.925     0.053     2.288     2.365
    72   1 H        0.860     0.154     1.375     1.837

Wiberg/Mayer (AO) data.
largest (>0.10) Wiberg bond orders for each atom

     #   Z sym  total        # sym  WBO       # sym  WBO       # sym  WBO
 ---------------------------------------------------------------------------
     1   7 N    3.037 --     2 C    1.954    72 H    0.943
     2   6 C    3.926 --     1 N    1.954     3 C    0.995    47 H    0.901
     3   6 C    3.977 --     2 C    0.995     4 C    0.969    14 C    0.957
                            31 C    0.944
     4   6 C    3.954 --    13 C    1.418     5 C    1.367     3 C    0.969
     5   6 C    3.965 --     6 C    1.404     4 C    1.367    34 H    0.958
     6   6 C    3.910 --     5 C    1.404     9 C    1.226     7 O    1.094
     7   8 O    2.253 --     6 C    1.094     8 C    0.979
     8   6 C    3.934 --     7 O    0.979    36 H    0.977    35 H    0.974
                            37 H    0.974
     9   6 C    3.907 --    12 C    1.396     6 C    1.226    10 O    1.096
    10   8 O    2.251 --     9 C    1.096    11 C    0.979
    11   6 C    3.934 --    10 O    0.979    39 H    0.977    40 H    0.974
                            38 H    0.974
    12   6 C    3.965 --    13 C    1.400     9 C    1.396    41 H    0.964
    13   6 C    3.959 --     4 C    1.418    12 C    1.400    42 H    0.963
    14   6 C    3.973 --    15 C    0.982    44 H    0.973    43 H    0.969
                             3 C    0.957
    15   6 C    3.987 --    16 C    1.059    14 C    0.982    45 H    0.961
                            46 H    0.928
    16   6 C    3.556 --    17 N    1.370    15 C    1.059    48 H    0.959
    17   7 N    3.453 --    16 C    1.370    30 C    1.000    18 C    0.994
    18   6 C    3.952 --    17 N    0.994    50 H    0.968    49 H    0.966
                            19 C    0.958
    19   6 C    3.976 --    20 C    1.018    52 H    0.973    51 H    0.969
                            18 C    0.958
    20   6 C    3.835 --    21 C    1.642    29 C    1.022    19 C    1.018
    21   6 C    3.965 --    20 C    1.642    22 C    1.255    53 H    0.965
    22   6 C    3.809 --    23 C    1.401    21 C    1.255    54 H    0.965
    23   6 C    3.892 --    22 C    1.401    26 C    1.236    24 O    1.101
    24   8 O    2.259 --    23 C    1.101    25 C    0.974
    25   6 C    3.930 --    57 H    0.977    55 H    0.974    56 H    0.974
                            24 O    0.974
    26   6 C    3.775 --    23 C    1.236    27 O    1.176    29 C    1.017
                            28 C    0.226
    27   8 O    2.564 --    28 C    1.275    26 C    1.176
    28   6 C    3.579 --    27 O    1.275    60 H    0.969    58 H    0.969
                            26 C    0.226
    29   6 C    3.989 --    20 C    1.022    26 C    1.017    59 H    0.937
                            61 H    0.927
    30   6 C    3.959 --    17 N    1.000    64 H    0.978    62 H    0.967
                            63 H    0.962
    31   6 C    3.975 --    33 C    1.009    32 C    1.008    65 H    0.961
                             3 C    0.944
    32   6 C    3.981 --    31 C    1.008    67 H    0.982    68 H    0.982
                            66 H    0.975
    33   6 C    3.985 --    31 C    1.009    70 H    0.983    71 H    0.981
                            69 H    0.977
    34   1 H    0.996 --     5 C    0.958
    35   1 H    0.994 --     8 C    0.974
    36   1 H    0.993 --     8 C    0.977
    37   1 H    0.995 --     8 C    0.974
    38   1 H    0.994 --    11 C    0.974
    39   1 H    0.993 --    11 C    0.977
    40   1 H    0.994 --    11 C    0.974
    41   1 H    0.996 --    12 C    0.964
    42   1 H    0.998 --    13 C    0.963
    43   1 H    0.995 --    14 C    0.969
    44   1 H    0.996 --    14 C    0.973
    45   1 H    0.995 --    15 C    0.961
    46   1 H    0.968 --    15 C    0.928
    47   1 H    0.988 --     2 C    0.901
    48   1 H    0.995 --    16 C    0.959
    49   1 H    0.992 --    18 C    0.966
    50   1 H    0.994 --    18 C    0.968
    51   1 H    0.994 --    19 C    0.969
    52   1 H    0.995 --    19 C    0.973
    53   1 H    0.997 --    21 C    0.965
    54   1 H    0.996 --    22 C    0.965
    55   1 H    0.994 --    25 C    0.974
    56   1 H    0.994 --    25 C    0.974
    57   1 H    0.993 --    25 C    0.977
    58   1 H    0.992 --    28 C    0.969
    59   1 H    0.977 --    29 C    0.937
    60   1 H    0.997 --    28 C    0.969
    61   1 H    0.970 --    29 C    0.927
    62   1 H    0.984 --    30 C    0.967
    63   1 H    0.987 --    30 C    0.962
    64   1 H    0.994 --    30 C    0.978
    65   1 H    0.994 --    31 C    0.961
    66   1 H    0.992 --    32 C    0.975
    67   1 H    0.997 --    32 C    0.982
    68   1 H    0.995 --    32 C    0.982
    69   1 H    0.994 --    33 C    0.977
    70   1 H    0.998 --    33 C    0.983
    71   1 H    0.994 --    33 C    0.981
    72   1 H    0.972 --     1 N    0.943
 ---------------------------------------------------------------------------

molecular dipole:
                 x           y           z       tot (Debye)
 q only:        2.054      -0.480      -0.666
   full:        2.373      -0.607      -0.801       6.550

           -------------------------------------------------
          | TOTAL ENERGY              -99.339682836871 Eh   |
          | GRADIENT NORM               0.007884099191 Eh/α |
          | HOMO-LUMO GAP               1.133909051504 eV   |
           -------------------------------------------------

 * finished run on 2024/04/06 at 11:14:20.606
