   * xtb version 6.6.1 (8d0f1dd) compiled by 'conda@1efc2f54142f' on 2023-08-01
          program call               : xtb xtbopt.xyz --opt crude --input .xc2 --gfn2

   ID    Z sym.   atoms
    1    6 C      1, 3, 5-7, 10, 11, 14
    2    7 N      2, 4, 9, 13
    3    8 O      8, 12
    4    1 H      15-25

          :  Hamiltonian                  GFN2-xTB          :
 * total energy  :   -42.1531708 Eh     change       -0.5684342E-12 Eh
   *** GEOMETRY OPTIMIZATION CONVERGED AFTER 1 ITERATIONS ***

 final structure:
================
25
 xtb: 6.6.1 (8d0f1dd)
C            3.26460694423709        1.17109541458813       -0.02209619425327
N            2.28676096833558        0.12432302643071        0.08582016794423
C            2.51195598331841       -1.20675615968198        0.14638608245635
N            1.40926361981878       -1.91044435903015        0.26923120440340
C            0.41674916467171       -1.00212261227863        0.28867571880927
C            0.93366699814944        0.28388975736209        0.16622484244443
C            0.07789657368006        1.44445156702216        0.05804269024141
O            0.43746104942013        2.59193787580704       -0.03060314607239
N           -1.28139287625087        1.08241328889691        0.03288476156859
C           -2.25100338885527        2.16170678876677       -0.10676975788286
C           -1.83117744050102       -0.17340886904580        0.09712702962192
O           -3.00488450494747       -0.39273728887770        0.01773258984618
N           -0.92193888778371       -1.26765075141487        0.31324228492559
C           -1.35981227433166       -2.54156085451602        0.36823739411525
H            3.82642127816112        1.25922788949485        0.91002349725914
H            3.96331632458965        0.95063551786091       -0.82917404473750
H            2.75775494364684        2.11498980918248       -0.21918261085135
H            3.47445205379952       -1.66526620187398        0.06803054480235
H           -1.71444036278836        3.10750556823095       -0.07504637123320
H           -2.78379555400410        2.06584709138246       -1.05326602148704
H           -2.97869741396699        2.11010450431112        0.70298494445209
H           -0.79675513876021       -3.21694997371927        1.00011946134144
H           -0.74107528281441       -3.19123879408621       -0.91815276901959
H           -2.43116774155083       -2.67124573787135        0.26623041907891
H           -0.10373352117400       -3.41050795534170       -1.50553109987274

          :  Hamiltonian                  GFN2-xTB          :
         :: total energy             -42.153170816741 Eh    ::
         :: gradient norm              0.005394445597 Eh/a0 ::
         :: HOMO-LUMO gap              1.982639216100 eV    ::
         :: SCC energy               -42.679384765305 Eh    ::
         :: -> dispersion             -0.023437176752 Eh    ::
         :: repulsion energy           0.526062801564 Eh    ::

    * Orbital Energies and Occupations

         #    Occupation            Energy/Eh            Energy/eV
      -------------------------------------------------------------
         1        2.0000           -0.9017280             -24.5373
       ...           ...                  ...                  ...
        25        1.9997           -0.6634475             -18.0533
        26        1.9996           -0.6592155             -17.9382
        27        1.9995           -0.6574865             -17.8911
        28        1.9992           -0.6477090             -17.6251
        29        1.9982           -0.6357863             -17.3006
        30        1.9972           -0.6283958             -17.0995
        31        1.9935           -0.6152579             -16.7420
        32        1.9876           -0.6049282             -16.4609
        33        1.9851           -0.6020682             -16.3831
        34        1.9529           -0.5835444             -15.8791
        35        1.9420           -0.5801476             -15.7866
        36        1.9180           -0.5744811             -15.6324
        37        1.9008           -0.5713236             -15.5465 (HOMO)
        38        0.3226           -0.4984630             -13.5639 (LUMO)
        39        0.0040           -0.4260585             -11.5936
        40        0.0004           -0.3906986             -10.6314
        41        0.0001           -0.3708924             -10.0925
        42        0.0000           -0.2961473              -8.0586
        43                         -0.2088488              -5.6831
        44                         -0.1621976              -4.4136
        45                         -0.1385194              -3.7693
        46                         -0.0676622              -1.8412
        47                         -0.0525921              -1.4311
        48                         -0.0440338              -1.1982
       ...                                ...                  ...
        67                          0.5459956              14.8573
      -------------------------------------------------------------
                  HL-Gap            0.0728607 Eh            1.9826 eV

     #   Z          covCN         q      C6AA      α(0)
     1   6 C        3.689    -0.082    22.259     6.752
     2   7 N        2.842     0.049    20.379     6.705
     3   6 C        3.204     0.095    25.341     8.200
     4   7 N        1.899    -0.227    26.817     7.677
     5   6 C        3.208     0.112    24.950     8.133
     6   6 C        3.114    -0.009    28.091     8.682
     7   6 C        2.762     0.275    22.351     7.742
     8   8 O        0.858    -0.328    20.302     6.041
     9   7 N        2.743    -0.073    22.664     7.071
    10   6 C        3.711    -0.064    21.868     6.683
    11   6 C        2.725     0.317    21.613     7.611
    12   8 O        0.859    -0.331    20.357     6.049
    13   7 N        2.738    -0.005    21.354     6.863
    14   6 C        2.938     0.000    28.028     8.683
    15   1 H        0.924     0.108     1.716     2.049
    16   1 H        0.925     0.103     1.754     2.071
    17   1 H        0.925     0.122     1.598     1.977
    18   1 H        0.927     0.109     1.708     2.044
    19   1 H        0.925     0.122     1.600     1.978
    20   1 H        0.924     0.107     1.726     2.054
    21   1 H        0.925     0.108     1.714     2.048
    22   1 H        0.925     0.143     1.437     1.875
    23   1 H        0.437     0.077     3.668     3.365
    24   1 H        0.925     0.151     1.385     1.840
    25   1 H        0.301     0.122     3.699     3.487

Wiberg/Mayer (AO) data.
largest (>0.10) Wiberg bond orders for each atom

     #   Z sym  total        # sym  WBO       # sym  WBO       # sym  WBO
 ---------------------------------------------------------------------------
     1   6 C    3.913 --     2 N    0.993    17 H    0.963    16 H    0.961
                            15 H    0.951
     2   7 N    3.665 --     3 C    1.290     6 C    1.210     1 C    0.993
     3   6 C    3.907 --     4 N    1.478     2 N    1.290    18 H    0.955
     4   7 N    2.985 --     3 C    1.478     5 C    1.290
     5   6 C    3.915 --     6 C    1.316     4 N    1.290    13 N    1.110
     6   6 C    3.878 --     5 C    1.316     2 N    1.210     7 C    1.067
     7   6 C    3.940 --     8 O    1.711     9 N    1.071     6 C    1.067
     8   8 O    2.016 --     7 C    1.711     9 N    0.126
     9   7 N    3.537 --    11 C    1.160     7 C    1.071    10 C    0.968
                            12 O    0.143     8 O    0.126
    10   6 C    3.887 --     9 N    0.968    19 H    0.962    21 H    0.956
                            20 H    0.954
    11   6 C    3.939 --    12 O    1.725     9 N    1.160    13 N    0.965
    12   8 O    2.052 --    11 C    1.725     9 N    0.143
    13   7 N    3.614 --    14 C    1.283     5 C    1.110    11 C    0.965
    14   6 C    3.649 --    13 N    1.283    24 H    0.950    22 H    0.946
                            23 H    0.301
    15   1 H    0.979 --     1 C    0.951
    16   1 H    0.982 --     1 C    0.961
    17   1 H    0.981 --     1 C    0.963
    18   1 H    0.986 --     3 C    0.955
    19   1 H    0.981 --    10 C    0.962
    20   1 H    0.973 --    10 C    0.954
    21   1 H    0.974 --    10 C    0.956
    22   1 H    0.975 --    14 C    0.946
    23   1 H    0.987 --    25 H    0.670    14 C    0.301
    24   1 H    0.975 --    14 C    0.950
    25   1 H    0.847 --    23 H    0.670
 ---------------------------------------------------------------------------

molecular dipole:
                 x           y           z       tot (Debye)
 q only:        0.937      -1.638      -0.152
   full:        1.169      -1.570      -0.139       4.989

           -------------------------------------------------
          | TOTAL ENERGY              -42.153170816741 Eh   |
          | GRADIENT NORM               0.005394445597 Eh/α |
          | HOMO-LUMO GAP               1.982639216100 eV   |
           -------------------------------------------------

 * finished run on 2024/06/05 at 19:59:21.542
