   * xtb version 6.6.1 (8d0f1dd) compiled by 'conda@1efc2f54142f' on 2023-08-01
          program call               : xtb xtbopt.xyz --opt crude --input .xc2 --gfn2

   ID    Z sym.   atoms
    1    6 C      1, 3, 5-7, 10, 11, 14
    2    7 N      2, 4, 9, 13
    3    8 O      8, 12
    4    1 H      15-25

          :  Hamiltonian                  GFN2-xTB          :
 * total energy  :   -42.0793795 Eh     change       -0.3515055E-10 Eh
   *** GEOMETRY OPTIMIZATION CONVERGED AFTER 1 ITERATIONS ***

 final structure:
================
25
 xtb: 6.6.1 (8d0f1dd)
C            3.28464003578964        1.25248343386730        0.10402068722869
N            2.37337930953161        0.13916156597169        0.04863932565389
C            2.69147156733690       -1.14365057136030        0.03058830101795
N            1.58008395282983       -1.89887611897422       -0.01562407046287
C            0.49537750164166       -1.05198471406453       -0.02763139974835
C            1.00522662839923        0.24227888899913        0.01287947959969
C            0.15197225069650        1.41168791319298        0.00429982702556
O            0.52768577446458        2.56072766744643        0.04225956393424
N           -1.19541844893344        1.04835012182643       -0.05693318446928
C           -2.17467596801201        2.13168799533081       -0.07812428581322
C           -1.74260056810222       -0.20553649778238       -0.10239842500776
O           -2.91794330906994       -0.42119998749125       -0.16173723762237
N           -0.82337191750621       -1.34015047624234       -0.07664623332526
C           -1.35242585703389       -2.57380468720602       -0.10915679264791
H            3.85848932401841        1.22529923723356        1.03057956760439
H            3.97563212066807        1.21859726979515       -0.73795524540339
H            2.70855692466512        2.17702212639660        0.06559526252521
H            3.69311206588064       -1.52943446125033        0.04895969485397
H           -1.63361281184475        3.07363839538334       -0.03841720109445
H           -2.76825438369774        2.07509378969849       -0.98928540464620
H           -2.84126880439722        2.04252173683556        0.77823084414713
H           -0.71695786601385       -3.43492265680802       -0.07537748612212
H           -2.42803111726338       -2.67237933568091       -0.09721718194027
H           -4.15171198222142       -3.59985193407416        0.47150688798896
H            1.56107709227388       -2.90852015944243       -0.03988367537677

          :  Hamiltonian                  GFN2-xTB          :
         :: total energy             -42.079379458659 Eh    ::
         :: gradient norm              0.002970622107 Eh/a0 ::
         :: HOMO-LUMO gap              0.095617658001 eV    ::
         :: SCC energy               -42.603444343768 Eh    ::
         :: -> dispersion             -0.022786642213 Eh    ::
         :: repulsion energy           0.523988662708 Eh    ::

    * Orbital Energies and Occupations

         #    Occupation            Energy/Eh            Energy/eV
      -------------------------------------------------------------
         1        2.0000           -0.9221682             -25.0935
       ...           ...                  ...                  ...
        25        2.0000           -0.6694795             -18.2175
        26        2.0000           -0.6678714             -18.1737
        27        2.0000           -0.6589371             -17.9306
        28        2.0000           -0.6381037             -17.3637
        29        2.0000           -0.6302473             -17.1499
        30        2.0000           -0.6283392             -17.0980
        31        2.0000           -0.6221462             -16.9295
        32        2.0000           -0.5974563             -16.2576
        33        2.0000           -0.5908901             -16.0789
        34        2.0000           -0.5835969             -15.8805
        35        2.0000           -0.5633434             -15.3294
        36        1.9999           -0.5617107             -15.2849
        37        1.1038           -0.4808061             -13.0834 (HOMO)
        38        0.8828           -0.4772922             -12.9878 (LUMO)
        39        0.0133           -0.4395368             -11.9604
        40        0.0001           -0.3997185             -10.8769
        41        0.0000           -0.3730758             -10.1519
        42                         -0.2886676              -7.8550
        43                         -0.2145617              -5.8385
        44                         -0.2027039              -5.5159
        45                         -0.1523451              -4.1455
        46                         -0.1350253              -3.6742
        47                         -0.0680573              -1.8519
        48                         -0.0434236              -1.1816
       ...                                ...                  ...
        67                          0.5574984              15.1703
      -------------------------------------------------------------
                  HL-Gap            0.0035139 Eh            0.0956 eV

     #   Z          covCN         q      C6AA      α(0)
     1   6 C        3.692    -0.099    22.580     6.799
     2   7 N        2.835     0.093    19.633     6.581
     3   6 C        3.059     0.061    26.567     8.453
     4   7 N        2.793    -0.054    22.284     7.011
     5   6 C        3.042     0.091    25.931     8.352
     6   6 C        3.120    -0.019    28.297     8.712
     7   6 C        2.764     0.268    22.478     7.764
     8   8 O        0.858    -0.371    21.101     6.159
     9   7 N        2.744    -0.080    22.788     7.090
    10   6 C        3.713    -0.064    21.868     6.682
    11   6 C        2.733     0.311    21.721     7.630
    12   8 O        0.859    -0.338    20.482     6.068
    13   7 N        2.735     0.009    21.104     6.823
    14   6 C        2.796    -0.063    29.543     8.904
    15   1 H        0.924     0.111     1.688     2.032
    16   1 H        0.925     0.110     1.698     2.038
    17   1 H        0.925     0.142     1.444     1.879
    18   1 H        0.926     0.131     1.529     1.934
    19   1 H        0.925     0.115     1.655     2.012
    20   1 H        0.925     0.097     1.813     2.105
    21   1 H        0.925     0.097     1.815     2.107
    22   1 H        0.926     0.083     1.953     2.185
    23   1 H        0.926     0.132     1.516     1.926
    24   1 H        0.000     0.004     7.442     4.988
    25   1 H        0.860     0.232     0.958     1.533

Wiberg/Mayer (AO) data.
largest (>0.10) Wiberg bond orders for each atom

     #   Z sym  total        # sym  WBO       # sym  WBO       # sym  WBO
 ---------------------------------------------------------------------------
     1   6 C    3.910 --     2 N    0.982    16 H    0.959    17 H    0.959
                            15 H    0.957
     2   7 N    3.718 --     3 C    1.418     6 C    1.169     1 C    0.982
     3   6 C    3.915 --     2 N    1.418     4 N    1.307    18 H    0.950
     4   7 N    3.575 --     3 C    1.307     5 C    1.157    25 H    0.917
     5   6 C    3.882 --     6 C    1.329    13 N    1.175     4 N    1.157
     6   6 C    3.864 --     5 C    1.329     2 N    1.169     7 C    1.072
     7   6 C    3.929 --     8 O    1.677     9 N    1.088     6 C    1.072
     8   8 O    2.005 --     7 C    1.677     9 N    0.144
     9   7 N    3.583 --    11 C    1.168     7 C    1.088    10 C    0.961
                            12 O    0.153     8 O    0.144
    10   6 C    3.917 --    19 H    0.969    21 H    0.969    20 H    0.968
                             9 N    0.961
    11   6 C    3.930 --    12 O    1.732     9 N    1.168    13 N    0.931
    12   8 O    2.067 --    11 C    1.732     9 N    0.153
    13   7 N    3.632 --    14 C    1.293     5 C    1.175    11 C    0.931
    14   6 C    3.325 --    13 N    1.293    22 H    0.970    23 H    0.936
    15   1 H    0.987 --     1 C    0.957
    16   1 H    0.987 --     1 C    0.959
    17   1 H    0.980 --     1 C    0.959
    18   1 H    0.982 --     3 C    0.950
    19   1 H    0.986 --    10 C    0.969
    20   1 H    0.990 --    10 C    0.968
    21   1 H    0.990 --    10 C    0.969
    22   1 H    0.992 --    14 C    0.970
    23   1 H    0.982 --    14 C    0.936
    24   1 H    0.035
    25   1 H    0.946 --     4 N    0.917
 ---------------------------------------------------------------------------

molecular dipole:
                 x           y           z       tot (Debye)
 q only:        2.969      -1.769       0.030
   full:        3.283      -2.355       0.048      10.270

           -------------------------------------------------
          | TOTAL ENERGY              -42.079379458659 Eh   |
          | GRADIENT NORM               0.002970622107 Eh/α |
          | HOMO-LUMO GAP               0.095617658001 eV   |
           -------------------------------------------------

 * finished run on 2024/06/05 at 19:58:08.282
