   * xtb version 6.6.1 (8d0f1dd) compiled by 'conda@1efc2f54142f' on 2023-08-01
          program call               : xtb struc.xyz --opt loose --input .xc1 --gfn2

   ID    Z sym.   atoms
    1    6 C      1, 3, 5-7, 10, 11, 14
    2    7 N      2, 4, 9, 13
    3    8 O      8, 12
    4    1 H      15-25
constraining bond 9 12 to    4.6800000 Å, actual value:    2.2666725 Å

          :  Hamiltonian                  GFN2-xTB          :
 * total energy  :   -21.4494459 Eh     change       -0.6650680E-10 Eh
 * total energy  :   -30.5250909 Eh     change       -0.9075645E+01 Eh
 * total energy  :   -36.3281959 Eh     change       -0.5803105E+01 Eh
 * total energy  :   -39.8605438 Eh     change       -0.3532348E+01 Eh
 * total energy  :   -41.4105845 Eh     change       -0.1550041E+01 Eh
 * total energy  :   -41.6435764 Eh     change       -0.2329920E+00 Eh
 * total energy  :   -41.6590835 Eh     change       -0.1550704E-01 Eh
 * total energy  :   -41.6818052 Eh     change       -0.2272169E-01 Eh
 * total energy  :   -41.6985135 Eh     change       -0.1670831E-01 Eh
 * total energy  :   -41.7176872 Eh     change       -0.1917372E-01 Eh
 * total energy  :   -42.2193738 Eh     change       -0.1055435E-03 Eh
 * total energy  :   -42.2195220 Eh     change       -0.1482209E-03 Eh
 * total energy  :   -42.2195751 Eh     change       -0.5307388E-04 Eh
 * total energy  :   -42.2196594 Eh     change       -0.8434270E-04 Eh
 * total energy  :   -42.2197123 Eh     change       -0.5290154E-04 Eh
 * total energy  :   -42.2197574 Eh     change       -0.4503786E-04 Eh
 * total energy  :   -42.2197608 Eh     change       -0.3408894E-05 Eh
 * total energy  :   -42.2197982 Eh     change       -0.3744347E-04 Eh
 * total energy  :   -42.2198148 Eh     change       -0.1662551E-04 Eh
   *** GEOMETRY OPTIMIZATION CONVERGED AFTER 90 ITERATIONS ***

 final structure:
================
25
 xtb: 6.6.1 (8d0f1dd)
C            2.64044371816697        1.36953943765714        0.28796037288786
N            1.92149340451411        0.13640400354432        0.14602820714561
C            2.43044461947535       -1.08927270868641        0.09050461957996
N            1.43094817235905       -1.99201204157245       -0.04828344988271
C            0.25025105075713       -1.31169017946185       -0.08216206943892
C            0.55746516761775        0.03390191500079        0.03982978336567
C           -0.47454078426974        1.03320549570682        0.03569944828129
O           -1.76780716645055        0.43300299590520       -0.09739721800269
N           -0.21143460491799        2.26565980102291        0.13365351456498
C           -1.18797715800769        3.30190377860850        0.14033757657020
C           -2.09338349597316       -0.87933201852918       -0.20346640069887
O           -3.20950978921653       -1.29494372582347       -0.29539405443175
N           -1.00393795075063       -1.79245860996703       -0.19881149409344
C           -1.26752852519445       -3.21320864292650       -0.32482251036388
H            2.21634924014585        1.94561685510717        1.10983427214292
H            3.69207277085829        1.16610736295845        0.47479263175955
H            2.53499824481841        1.96665892226167       -0.61835911222709
H            3.47126119682190       -1.33742214291242        0.14514271719766
H           -0.75759247687821        4.16464410026148       -0.36952821417167
H           -2.13146321960867        3.01093251461661       -0.32552218032158
H           -1.38132727919968        3.59059239733957        1.17742379135665
H           -0.93779949616368       -3.74224802521000        0.57105359390476
H           -0.76898903150113       -3.61570574484461       -1.20729980056097
H           -2.34289953675689       -3.33915856748370       -0.43558391531497
H            1.55089444345239       -2.99247863097120       -0.11445849134790

          :  Hamiltonian                  GFN2-xTB          :
         :: total energy             -42.219814842865 Eh    ::
         :: gradient norm              0.002764011502 Eh/a0 ::
         :: HOMO-LUMO gap              2.788557147417 eV    ::
         :: SCC energy               -42.740463943821 Eh    ::
         :: -> dispersion             -0.021902332141 Eh    ::
         :: repulsion energy           0.520449178534 Eh    ::

    * Orbital Energies and Occupations

         #    Occupation            Energy/Eh            Energy/eV
      -------------------------------------------------------------
         1        2.0000           -0.9128802             -24.8407
       ...           ...                  ...                  ...
        25        2.0000           -0.6653057             -18.1039
        26        2.0000           -0.6603333             -17.9686
        27        1.9999           -0.6436546             -17.5147
        28        1.9999           -0.6403860             -17.4258
        29        1.9998           -0.6237440             -16.9729
        30        1.9998           -0.6236704             -16.9709
        31        1.9997           -0.6207386             -16.8912
        32        1.9997           -0.6186074             -16.8332
        33        1.9993           -0.6036319             -16.4257
        34        1.9970           -0.5818494             -15.8329
        35        1.9953           -0.5746642             -15.6374
        36        1.9585           -0.5397396             -14.6871
        37        1.9376           -0.5331101             -14.5067 (HOMO)
        38        0.0916           -0.4306325             -11.7181 (LUMO)
        39        0.0194           -0.4054371             -11.0325
        40        0.0025           -0.3727370             -10.1427
        41        0.0000           -0.2946438              -8.0177
        42                         -0.2084315              -5.6717
        43                         -0.1953998              -5.3171
        44                         -0.1668682              -4.5407
        45                         -0.1438064              -3.9132
        46                         -0.0826132              -2.2480
        47                         -0.0615832              -1.6758
        48                         -0.0440096              -1.1976
       ...                                ...                  ...
        67                          0.5327295              14.4963
      -------------------------------------------------------------
                  HL-Gap            0.1024776 Eh            2.7886 eV

     #   Z          covCN         q      C6AA      α(0)
     1   6 C        3.693    -0.096    22.528     6.791
     2   7 N        2.834     0.082    19.821     6.612
     3   6 C        3.057     0.047    26.894     8.505
     4   7 N        2.797    -0.062    22.437     7.035
     5   6 C        3.040     0.121    25.308     8.251
     6   6 C        3.122    -0.007    28.023     8.669
     7   6 C        2.770     0.218    23.392     7.921
     8   8 O        1.703    -0.254    18.210     5.761
     9   7 N        1.830    -0.195    26.053     7.564
    10   6 C        3.703    -0.041    21.470     6.625
    11   6 C        2.646     0.407    20.141     7.342
    12   8 O        0.858    -0.326    20.249     6.033
    13   7 N        2.734    -0.077    22.742     7.083
    14   6 C        3.695    -0.072    22.050     6.718
    15   1 H        0.925     0.124     1.582     1.967
    16   1 H        0.925     0.107     1.725     2.054
    17   1 H        0.924     0.120     1.610     1.984
    18   1 H        0.926     0.124     1.578     1.964
    19   1 H        0.924     0.091     1.865     2.136
    20   1 H        0.924     0.074     2.046     2.237
    21   1 H        0.924     0.095     1.833     2.117
    22   1 H        0.924     0.082     1.958     2.188
    23   1 H        0.924     0.081     1.968     2.194
    24   1 H        0.925     0.126     1.566     1.957
    25   1 H        0.860     0.231     0.961     1.536

Wiberg/Mayer (AO) data.
largest (>0.10) Wiberg bond orders for each atom

     #   Z sym  total        # sym  WBO       # sym  WBO       # sym  WBO
 ---------------------------------------------------------------------------
     1   6 C    3.921 --     2 N    0.991    16 H    0.973    15 H    0.955
                            17 H    0.953
     2   7 N    3.682 --     3 C    1.381     6 C    1.163     1 C    0.991
     3   6 C    3.847 --     2 N    1.381     4 N    1.267    18 H    0.953
     4   7 N    3.587 --     3 C    1.267     5 C    1.193    25 H    0.918
     5   6 C    3.938 --     6 C    1.353    13 N    1.198     4 N    1.193
     6   6 C    3.916 --     5 C    1.353     2 N    1.163     7 C    1.105
     7   6 C    3.906 --     9 N    1.745     6 C    1.105     8 O    0.923
     8   8 O    2.343 --    11 C    1.077     7 C    0.923    12 O    0.136
                             9 N    0.110
     9   7 N    3.067 --     7 C    1.745    10 C    1.042     8 O    0.110
    10   6 C    3.942 --     9 N    1.042    20 H    0.961    19 H    0.957
                            21 H    0.934
    11   6 C    3.935 --    12 O    1.762     8 O    1.077    13 N    1.022
    12   8 O    2.112 --    11 C    1.762     8 O    0.136    13 N    0.126
    13   7 N    3.530 --     5 C    1.198    11 C    1.022    14 C    0.975
                            12 O    0.126
    14   6 C    3.926 --    13 N    0.975    23 H    0.972    22 H    0.971
                            24 H    0.964
    15   1 H    0.983 --     1 C    0.955
    16   1 H    0.988 --     1 C    0.973
    17   1 H    0.983 --     1 C    0.953
    18   1 H    0.984 --     3 C    0.953
    19   1 H    0.980 --    10 C    0.957
    20   1 H    0.978 --    10 C    0.961
    21   1 H    0.974 --    10 C    0.934
    22   1 H    0.990 --    14 C    0.971
    23   1 H    0.990 --    14 C    0.972
    24   1 H    0.984 --    14 C    0.964
    25   1 H    0.946 --     4 N    0.918
 ---------------------------------------------------------------------------

molecular dipole:
                 x           y           z       tot (Debye)
 q only:        3.258      -1.079       0.165
   full:        3.317      -1.498       0.141       9.258

           -------------------------------------------------
          | TOTAL ENERGY              -42.219814842865 Eh   |
          | GRADIENT NORM               0.002764011502 Eh/α |
          | HOMO-LUMO GAP               2.788557147417 eV   |
           -------------------------------------------------

 * finished run on 2024/06/05 at 19:59:18.254
