   * xtb version 6.6.1 (8d0f1dd) compiled by 'conda@1efc2f54142f' on 2023-08-01
          program call               : xtb xtbopt.xyz --opt crude --input .xc2 --gfn2

   ID    Z sym.   atoms
    1    6 C      1, 3, 5-7, 10, 11, 14
    2    7 N      2, 4, 9, 13
    3    8 O      8, 12
    4    1 H      15-25
########################################################################
[WARNING] Please study the warnings concerning your input carefully
-1- readin_getIntValue: could not parse ''
########################################################################

          :  Hamiltonian                  GFN2-xTB          :
 * total energy  :   -42.2199250 Eh     change       -0.2842171E-13 Eh
 * total energy  :   -42.2218458 Eh     change       -0.1920812E-02 Eh
 * total energy  :   -42.2223847 Eh     change       -0.5388336E-03 Eh
 * total energy  :   -42.2224686 Eh     change       -0.8389992E-04 Eh
   *** GEOMETRY OPTIMIZATION CONVERGED AFTER 4 ITERATIONS ***

 final structure:
================
25
 xtb: 6.6.1 (8d0f1dd)
C            2.65805508657938        1.36466416936313        0.28551313036333
N            1.94323918258580        0.12863209248644        0.14957161426734
C            2.45018753646401       -1.09898797323356        0.09596229218602
N            1.44843596464592       -2.00098679637476       -0.04312464131892
C            0.27004298695980       -1.31769060736117       -0.07934888760231
C            0.58090400027219        0.02621365536305        0.04248760270925
C           -0.45930584416117        1.01651996987269        0.03845053773932
O           -1.73347190639031        0.45242326342577       -0.09485114310988
N           -0.24622689452103        2.24694605735790        0.13892365521441
C           -1.23607089366592        3.26834478966413        0.14006031325745
C           -2.05549452061947       -0.84032736253896       -0.20672348685910
O           -3.18488230413125       -1.19185857923927       -0.30530882548669
N           -0.99195849557684       -1.78022523744898       -0.20316322668801
C           -1.28594884367312       -3.19424969266181       -0.32620233579722
H            2.23292886486768        1.94171450845980        1.10632717540029
H            3.71095646593288        1.16655800822844        0.46991704146871
H            2.54699437141608        1.95820235950072       -0.62264542227452
H            3.49040761183927       -1.34841657778793        0.15298816300880
H           -0.82079784196573        4.12409411049236       -0.39231845373343
H           -2.18350531553867        2.96034055777833       -0.30591923992469
H           -1.41247106587794        3.57365656924492        1.17344757769683
H           -0.96327162514540       -3.72998482741336        0.56723460846100
H           -0.79968639839818       -3.60752901408262       -1.21042733818343
H           -2.36481602007136       -3.29802740927625       -0.43163084844600
H            1.56618741227158       -3.00178749221719       -0.10804824444786

          :  Hamiltonian                  GFN2-xTB          :
         :: total energy             -42.222468576327 Eh    ::
         :: gradient norm              0.003993258427 Eh/a0 ::
         :: HOMO-LUMO gap              2.698582496453 eV    ::
         :: SCC energy               -42.753762839312 Eh    ::
         :: -> dispersion             -0.021955273980 Eh    ::
         :: repulsion energy           0.531203142719 Eh    ::

    * Orbital Energies and Occupations

         #    Occupation            Energy/Eh            Energy/eV
      -------------------------------------------------------------
         1        2.0000           -0.9127542             -24.8373
       ...           ...                  ...                  ...
        25        2.0000           -0.6659603             -18.1217
        26        2.0000           -0.6614139             -17.9980
        27        1.9999           -0.6428542             -17.4930
        28        1.9999           -0.6396508             -17.4058
        29        1.9998           -0.6243434             -16.9892
        30        1.9998           -0.6230083             -16.9529
        31        1.9998           -0.6211867             -16.9034
        32        1.9997           -0.6187776             -16.8378
        33        1.9994           -0.6042028             -16.4412
        34        1.9974           -0.5819779             -15.8364
        35        1.9957           -0.5739752             -15.6187
        36        1.9629           -0.5395471             -14.6818
        37        1.9275           -0.5286340             -14.3849 (HOMO)
        38        0.0964           -0.4294629             -11.6863 (LUMO)
        39        0.0195           -0.4035127             -10.9801
        40        0.0023           -0.3694982             -10.0546
        41        0.0000           -0.2892946              -7.8721
        42                         -0.1989919              -5.4148
        43                         -0.1903281              -5.1791
        44                         -0.1491533              -4.0587
        45                         -0.1364011              -3.7117
        46                         -0.0812746              -2.2116
        47                         -0.0609571              -1.6587
        48                         -0.0424946              -1.1563
       ...                                ...                  ...
        67                          0.5551665              15.1068
      -------------------------------------------------------------
                  HL-Gap            0.0991711 Eh            2.6986 eV

     #   Z          covCN         q      C6AA      α(0)
     1   6 C        3.692    -0.096    22.517     6.790
     2   7 N        2.833     0.081    19.829     6.614
     3   6 C        3.059     0.046    26.913     8.507
     4   7 N        2.797    -0.062    22.439     7.035
     5   6 C        3.043     0.120    25.319     8.253
     6   6 C        3.125    -0.010    28.080     8.677
     7   6 C        2.777     0.221    23.345     7.914
     8   8 O        1.707    -0.238    17.946     5.720
     9   7 N        1.829    -0.200    26.163     7.580
    10   6 C        3.702    -0.042    21.477     6.626
    11   6 C        2.653     0.408    20.129     7.340
    12   8 O        0.858    -0.329    20.318     6.043
    13   7 N        2.734    -0.081    22.813     7.094
    14   6 C        3.695    -0.070    22.026     6.714
    15   1 H        0.925     0.123     1.587     1.970
    16   1 H        0.925     0.107     1.725     2.054
    17   1 H        0.924     0.120     1.615     1.988
    18   1 H        0.926     0.124     1.582     1.967
    19   1 H        0.925     0.092     1.859     2.132
    20   1 H        0.924     0.073     2.051     2.239
    21   1 H        0.924     0.095     1.831     2.116
    22   1 H        0.924     0.082     1.961     2.190
    23   1 H        0.924     0.081     1.967     2.193
    24   1 H        0.925     0.124     1.580     1.966
    25   1 H        0.860     0.230     0.963     1.537

Wiberg/Mayer (AO) data.
largest (>0.10) Wiberg bond orders for each atom

     #   Z sym  total        # sym  WBO       # sym  WBO       # sym  WBO
 ---------------------------------------------------------------------------
     1   6 C    3.921 --     2 N    0.991    16 H    0.974    15 H    0.956
                            17 H    0.953
     2   7 N    3.678 --     3 C    1.378     6 C    1.165     1 C    0.991
     3   6 C    3.842 --     2 N    1.378     4 N    1.264    18 H    0.953
     4   7 N    3.585 --     3 C    1.264     5 C    1.194    25 H    0.919
     5   6 C    3.938 --     6 C    1.357    13 N    1.194     4 N    1.194
     6   6 C    3.916 --     5 C    1.357     2 N    1.165     7 C    1.096
     7   6 C    3.910 --     9 N    1.739     6 C    1.096     8 O    0.944
     8   8 O    2.366 --    11 C    1.084     7 C    0.944    12 O    0.134
                             9 N    0.107
     9   7 N    3.056 --     7 C    1.739    10 C    1.041     8 O    0.107
    10   6 C    3.941 --     9 N    1.041    20 H    0.960    19 H    0.956
                            21 H    0.936
    11   6 C    3.936 --    12 O    1.757     8 O    1.084    13 N    1.021
    12   8 O    2.105 --    11 C    1.757     8 O    0.134    13 N    0.126
    13   7 N    3.527 --     5 C    1.194    11 C    1.021    14 C    0.975
                            12 O    0.126
    14   6 C    3.926 --    13 N    0.975    23 H    0.972    22 H    0.971
                            24 H    0.966
    15   1 H    0.983 --     1 C    0.956
    16   1 H    0.988 --     1 C    0.974
    17   1 H    0.983 --     1 C    0.953
    18   1 H    0.984 --     3 C    0.953
    19   1 H    0.979 --    10 C    0.956
    20   1 H    0.977 --    10 C    0.960
    21   1 H    0.974 --    10 C    0.936
    22   1 H    0.990 --    14 C    0.971
    23   1 H    0.990 --    14 C    0.972
    24   1 H    0.984 --    14 C    0.966
    25   1 H    0.946 --     4 N    0.919
 ---------------------------------------------------------------------------

molecular dipole:
                 x           y           z       tot (Debye)
 q only:        3.229      -1.109       0.168
   full:        3.319      -1.563       0.145       9.332

           -------------------------------------------------
          | TOTAL ENERGY              -42.222468576327 Eh   |
          | GRADIENT NORM               0.003993258427 Eh/α |
          | HOMO-LUMO GAP               2.698582496453 eV   |
           -------------------------------------------------

 * finished run on 2024/06/05 at 19:59:18.485
