   * xtb version 6.6.1 (8d0f1dd) compiled by 'conda@1efc2f54142f' on 2023-08-01
          program call               : xtb struc.xyz --opt loose --input .xc1 --gfn2

   ID    Z sym.   atoms
    1    7 N      1, 17
    2    6 C      2-6, 8, 9, 11-16, 18-23, 25, 26, 28-33
    3    8 O      7, 10, 24, 27
    4    1 H      34-72
constraining bond 23 55 to    3.7133300 Å, actual value:    2.7160408 Å

          :  Hamiltonian                  GFN2-xTB          :
 * total energy  :   -99.5817174 Eh     change       -0.4035485E-08 Eh
 * total energy  :   -99.8289242 Eh     change       -0.2472068E+00 Eh
 * total energy  :  -100.1299266 Eh     change       -0.3010024E+00 Eh
 * total energy  :  -100.4890147 Eh     change       -0.3590881E+00 Eh
 * total energy  :   -97.2267882 Eh     change        0.3262227E+01 Eh
 * total energy  :  -100.5453483 Eh     change       -0.3318560E+01 Eh
 * total energy  :  -100.6103107 Eh     change       -0.6496241E-01 Eh
 * total energy  :  -100.5948769 Eh     change        0.1543373E-01 Eh
 * total energy  :  -100.6714856 Eh     change       -0.7660866E-01 Eh
 * total energy  :  -100.6790572 Eh     change       -0.7571579E-02 Eh
 * total energy  :  -100.7829460 Eh     change       -0.2033031E-03 Eh
 * total energy  :  -100.7829926 Eh     change       -0.4661127E-04 Eh
 * total energy  :  -100.7830583 Eh     change       -0.6571835E-04 Eh
 * total energy  :  -100.7831472 Eh     change       -0.8889290E-04 Eh
 * total energy  :  -100.7832310 Eh     change       -0.8375970E-04 Eh
 * total energy  :  -100.7833028 Eh     change       -0.7185394E-04 Eh
 * total energy  :  -100.7833126 Eh     change       -0.9731877E-05 Eh
 * total energy  :  -100.7833776 Eh     change       -0.6500992E-04 Eh
 * total energy  :  -100.7833944 Eh     change       -0.1679363E-04 Eh
   *** GEOMETRY OPTIMIZATION CONVERGED AFTER 77 ITERATIONS ***

 final structure:
================
72
 xtb: 6.6.1 (8d0f1dd)
N           -2.19181895672445        2.94715948469801        2.26173813993709
C           -2.03192926346798        2.19540742655597        1.27830341903986
C           -3.07515408974808        1.92462523036197        0.22971793814217
C           -3.46747947374464        0.45588953386860        0.27258625336608
C           -4.25814892396153       -0.07991620941013       -0.74592650427379
C           -4.66492824032586       -1.40365454409710       -0.72672802044829
O           -5.43541796448940       -1.99499909347678       -1.66210098498550
C           -5.97800484377169       -1.21592959870384       -2.70234467070236
C           -4.26213471506073       -2.24421387584106        0.34682553530001
O           -4.69927305866674       -3.51681627974235        0.28173725502407
C           -4.42278432326500       -4.39355232043132        1.34919932772976
C           -3.47792459955134       -1.70541585404282        1.35467029949031
C           -3.08946885215255       -0.37234549116746        1.31820342938392
C           -2.40599378846285        2.26054674928993       -1.12958277847901
C           -1.37616002624486        1.22194152156292       -1.60753752245543
C           -0.11305511161702        1.24709111229158       -0.83822745507753
N            0.56387756434200        0.18086392922853       -0.43937339183045
C            1.87470740853281        0.33011040180951        0.15068610387192
C            2.99698932225475        0.13317429434540       -0.88502314143927
C            4.33064409964766        0.41279327764087       -0.24753485356224
C            4.74333490256719        1.72389205563541       -0.04785104548954
C            5.95904246460527        1.97931414354370        0.56359444502955
C            6.80101185554947        0.95909192621084        0.98716064242789
O            7.19565217688777       -1.24522959669231       -1.92906868100971
C            8.34162384704941       -0.89622784783664       -1.96224646096889
C            6.37221663445980       -0.36845151672477        0.76951863439880
O            7.24026125607046       -1.31516915025926        1.18271596587323
C            6.94839734046228       -2.67538716854611        0.95042824059375
C            5.14155837434861       -0.63072868027556        0.17125992210363
C            0.06770792788875       -1.15966382826863       -0.64011241402261
C           -4.36649730554319        2.77715838573693        0.40905383964143
C           -5.08982820197342        2.42885009273489        1.70776034288996
C           -4.10981736506130        4.28028840163807        0.35034616503070
H           -4.57309328536467        0.55331906546963       -1.55858243411036
H           -6.58579048511823       -0.39405048051194       -2.31230805624367
H           -6.61118004859985       -1.89206645908768       -3.27333452568730
H           -5.19618005501174       -0.81648873838929       -3.35663266906074
H           -4.83790699684112       -4.02143693857900        2.29035007637389
H           -4.90612515468027       -5.33276479674122        1.08785981154057
H           -3.34713521167852       -4.56028027724623        1.46445723650983
H           -3.17355434146912       -2.31376106084662        2.19080733281737
H           -2.50741933637792        0.01788314371546        2.13865606823882
H           -3.18207544588419        2.34161795416801       -1.88985525686744
H           -1.92080400168643        3.23405491346238       -1.05035825177314
H           -1.82747265091069        0.23116872134798       -1.60664035479744
H           -1.13101895035209        1.47552188512336       -2.64726196950218
H           -1.08008009167389        1.67924563031170        1.04570949324282
H            0.36803755380879        2.20469089297976       -0.70181015572365
H            1.98915746192817       -0.39880954655414        0.95666358870606
H            1.96416683814164        1.33004320574364        0.58074918081587
H            2.83344855780929        0.82348345237909       -1.71498481891335
H            2.97126270484164       -0.88511020139882       -1.27314281180841
H            4.12505640459345        2.54359075597440       -0.38196152210966
H            6.27401682653232        3.00169349338173        0.71345410413333
H            7.49147080405354        1.10344538111339        1.32927428890425
H            8.63541902335052        0.15802763741491       -2.07564635367683
H            9.18077168131356       -1.60253019140037       -1.87785191891283
H            7.81968714884523       -3.22583529636431        1.29993345192919
H            6.06845558936752       -2.99590089252361        1.51629043553226
H            6.79460841954014       -2.86635294178524       -0.11499305016273
H            4.82205937366017       -1.64638295274408        0.00309465725958
H           -0.00262708926002       -1.39858635659095       -1.70315666359979
H           -0.92132210912925       -1.27264768729071       -0.18884232124664
H            0.74567788041830       -1.86768848699736       -0.17119293466850
H           -5.02794921450596        2.51382907340693       -0.42434110274905
H           -4.47700770128447        2.70285215893892        2.56053284925889
H           -5.31492457038063        1.36638224691489        1.76068092126005
H           -6.02495304631638        2.97980820315732        1.76257243266700
H           -3.43536637122486        4.57875795731434        1.14677868460905
H           -3.69440180852335        4.58567914026855       -0.60614667680776
H           -5.05058098467636        4.80686346217257        0.48704638962769
H           -1.40901779107561        3.08237754156783        2.89354971314247

          :  Hamiltonian                  GFN2-xTB          :
         :: total energy            -100.783394385517 Eh    ::
         :: gradient norm              0.001816436916 Eh/a0 ::
         :: HOMO-LUMO gap              1.749683974045 eV    ::
         :: SCC energy              -100.791425152223 Eh    ::
         :: -> dispersion             -0.075405844092 Eh    ::
         :: repulsion energy           1.538804746885 Eh    ::

    * Orbital Energies and Occupations

         #    Occupation            Energy/Eh            Energy/eV
      -------------------------------------------------------------
         1        2.0000           -0.8119846             -22.0952
       ...           ...                  ...                  ...
        78        1.9979           -0.5302032             -14.4276
        79        1.9973           -0.5259502             -14.3118
        80        1.9971           -0.5250532             -14.2874
        81        1.9953           -0.5173567             -14.0780
        82        1.9946           -0.5149400             -14.0122
        83        1.9938           -0.5127559             -13.9528
        84        1.9935           -0.5121159             -13.9354
        85        1.9805           -0.4945283             -13.4568
        86        1.9791           -0.4934114             -13.4264
        87        1.9724           -0.4889788             -13.3058
        88        1.9308           -0.4741061             -12.9011
        89        1.8913           -0.4666287             -12.6976
        90        1.8592           -0.4622485             -12.5784 (HOMO)
        91        0.3707           -0.3979488             -10.8287 (LUMO)
        92        0.0345           -0.3573978              -9.7253
        93        0.0131           -0.3418546              -9.3023
        94        0.0032           -0.3195283              -8.6948
        95        0.0028           -0.3171904              -8.6312
        96        0.0026           -0.3164380              -8.6107
        97        0.0013           -0.3047135              -8.2917
        98        0.0000           -0.1938949              -5.2762
        99        0.0000           -0.1868573              -5.0846
       100                         -0.1394536              -3.7947
       101                         -0.0712337              -1.9384
       ...                                ...                  ...
       171                          1.2321549              33.5286
      -------------------------------------------------------------
                  HL-Gap            0.0642997 Eh            1.7497 eV

     #   Z          covCN         q      C6AA      α(0)
     1   7 N        1.774    -0.266    27.717     7.796
     2   6 C        2.827     0.102    25.741     8.314
     3   6 C        3.907     0.006    20.413     6.422
     4   6 C        2.974     0.002    27.978     8.676
     5   6 C        2.920    -0.080    30.004     8.983
     6   6 C        2.862     0.130    25.156     8.221
     7   8 O        1.706    -0.228    17.789     5.695
     8   6 C        3.644     0.027    20.456     6.501
     9   6 C        2.864     0.129    25.170     8.224
    10   8 O        1.706    -0.227    17.760     5.690
    11   6 C        3.645     0.026    20.467     6.502
    12   6 C        2.914    -0.074    29.847     8.959
    13   6 C        2.921    -0.053    29.304     8.877
    14   6 C        3.812    -0.065    21.735     6.636
    15   6 C        3.802    -0.070    21.839     6.653
    16   6 C        2.845     0.010    27.777     8.638
    17   7 N        2.729     0.016    20.967     6.801
    18   6 C        3.757    -0.018    20.939     6.524
    19   6 C        3.808    -0.071    21.855     6.655
    20   6 C        2.973     0.014    27.694     8.632
    21   6 C        2.918    -0.048    29.190     8.860
    22   6 C        2.921    -0.029    28.724     8.789
    23   6 C        2.914    -0.077    29.919     8.969
    24   8 O        0.856    -0.292    19.639     5.942
    25   6 C        2.702     0.181    24.102     8.035
    26   6 C        2.867     0.153    24.687     8.145
    27   8 O        1.706    -0.246    18.071     5.740
    28   6 C        3.643     0.026    20.487     6.507
    29   6 C        2.917    -0.066    29.634     8.927
    30   6 C        3.700    -0.071    22.029     6.712
    31   6 C        3.853    -0.007    20.673     6.467
    32   6 C        3.756    -0.119    22.825     6.812
    33   6 C        3.755    -0.120    22.846     6.815
    34   1 H        0.926     0.053     2.288     2.366
    35   1 H        0.924     0.055     2.264     2.353
    36   1 H        0.925     0.082     1.957     2.188
    37   1 H        0.924     0.048     2.345     2.395
    38   1 H        0.924     0.056     2.245     2.343
    39   1 H        0.925     0.082     1.957     2.188
    40   1 H        0.924     0.049     2.330     2.387
    41   1 H        0.926     0.053     2.279     2.361
    42   1 H        0.926     0.040     2.451     2.448
    43   1 H        0.925     0.062     2.180     2.309
    44   1 H        0.924     0.055     2.259     2.351
    45   1 H        0.925     0.068     2.109     2.271
    46   1 H        0.923     0.082     1.954     2.186
    47   1 H        0.922     0.006     2.953     2.687
    48   1 H        0.926     0.073     2.053     2.240
    49   1 H        0.924     0.069     2.093     2.263
    50   1 H        0.924     0.069     2.097     2.264
    51   1 H        0.924     0.057     2.237     2.339
    52   1 H        0.925     0.058     2.219     2.329
    53   1 H        0.926     0.039     2.464     2.455
    54   1 H        0.926     0.053     2.283     2.363
    55   1 H        0.930     0.104     1.750     2.068
    56   1 H        0.923     0.049     2.338     2.391
    57   1 H        0.923     0.054     2.274     2.358
    58   1 H        0.925     0.075     2.036     2.231
    59   1 H        0.924     0.048     2.341     2.393
    60   1 H        0.924     0.065     2.136     2.285
    61   1 H        0.926     0.051     2.312     2.378
    62   1 H        0.924     0.079     1.987     2.204
    63   1 H        0.924     0.079     1.989     2.206
    64   1 H        0.925     0.083     1.945     2.181
    65   1 H        0.924     0.038     2.477     2.461
    66   1 H        0.925     0.069     2.101     2.267
    67   1 H        0.925     0.036     2.509     2.477
    68   1 H        0.925     0.052     2.294     2.369
    69   1 H        0.925     0.063     2.167     2.302
    70   1 H        0.925     0.035     2.510     2.478
    71   1 H        0.925     0.055     2.254     2.348
    72   1 H        0.860     0.159     1.344     1.816

Wiberg/Mayer (AO) data.
largest (>0.10) Wiberg bond orders for each atom

     #   Z sym  total        # sym  WBO       # sym  WBO       # sym  WBO
 ---------------------------------------------------------------------------
     1   7 N    3.041 --     2 C    1.958    72 H    0.941
     2   6 C    3.931 --     1 N    1.958     3 C    0.994    47 H    0.900
     3   6 C    3.975 --     2 C    0.994     4 C    0.971    14 C    0.956
                            31 C    0.942
     4   6 C    3.946 --    13 C    1.413     5 C    1.369     3 C    0.971
     5   6 C    3.961 --     6 C    1.400     4 C    1.369    34 H    0.958
     6   6 C    3.903 --     5 C    1.400     9 C    1.220     7 O    1.101
     7   8 O    2.254 --     6 C    1.101     8 C    0.977
     8   6 C    3.931 --     7 O    0.977    36 H    0.976    35 H    0.973
                            37 H    0.973
     9   6 C    3.899 --    12 C    1.390     6 C    1.220    10 O    1.104
    10   8 O    2.253 --     9 C    1.104    11 C    0.977
    11   6 C    3.930 --    10 O    0.977    39 H    0.977    40 H    0.973
                            38 H    0.973
    12   6 C    3.961 --    13 C    1.406     9 C    1.390    41 H    0.964
    13   6 C    3.952 --     4 C    1.413    12 C    1.406    42 H    0.962
    14   6 C    3.974 --    15 C    0.983    44 H    0.972    43 H    0.968
                             3 C    0.956
    15   6 C    3.987 --    16 C    1.061    14 C    0.983    45 H    0.960
                            46 H    0.925
    16   6 C    3.613 --    17 N    1.419    15 C    1.061    48 H    0.956
    17   7 N    3.494 --    16 C    1.419    30 C    0.998    18 C    0.986
    18   6 C    3.955 --    17 N    0.986    19 C    0.968    50 H    0.966
                            49 H    0.965
    19   6 C    3.975 --    20 C    1.005    52 H    0.973    51 H    0.969
                            18 C    0.968
    20   6 C    3.966 --    29 C    1.419    21 C    1.397    19 C    1.005
    21   6 C    3.939 --    22 C    1.420    20 C    1.397    53 H    0.968
    22   6 C    3.974 --    23 C    1.463    21 C    1.420    54 H    0.968
    23   6 C    3.940 --    22 C    1.463    26 C    1.314    55 H    0.973
    24   8 O    2.065 --    25 C    1.969
    25   6 C    3.855 --    24 O    1.969    56 H    0.941    57 H    0.940
    26   6 C    3.903 --    29 C    1.352    23 C    1.314    27 O    1.100
    27   8 O    2.240 --    26 C    1.100    28 C    0.975
    28   6 C    3.929 --    58 H    0.978    27 O    0.975    59 H    0.973
                            60 H    0.969
    29   6 C    3.947 --    20 C    1.419    26 C    1.352    61 H    0.962
    30   6 C    3.957 --    17 N    0.998    64 H    0.977    62 H    0.966
                            63 H    0.963
    31   6 C    3.971 --    33 C    1.009    32 C    1.008    65 H    0.959
                             3 C    0.942
    32   6 C    3.978 --    31 C    1.008    67 H    0.982    68 H    0.981
                            66 H    0.974
    33   6 C    3.981 --    31 C    1.009    70 H    0.983    71 H    0.980
                            69 H    0.975
    34   1 H    0.996 --     5 C    0.958
    35   1 H    0.993 --     8 C    0.973
    36   1 H    0.993 --     8 C    0.976
    37   1 H    0.993 --     8 C    0.973
    38   1 H    0.992 --    11 C    0.973
    39   1 H    0.993 --    11 C    0.977
    40   1 H    0.993 --    11 C    0.973
    41   1 H    0.995 --    12 C    0.964
    42   1 H    0.998 --    13 C    0.962
    43   1 H    0.995 --    14 C    0.968
    44   1 H    0.996 --    14 C    0.972
    45   1 H    0.994 --    15 C    0.960
    46   1 H    0.970 --    15 C    0.925
    47   1 H    0.986 --     2 C    0.900
    48   1 H    0.994 --    16 C    0.956
    49   1 H    0.991 --    18 C    0.965
    50   1 H    0.994 --    18 C    0.966
    51   1 H    0.996 --    19 C    0.969
    52   1 H    0.996 --    19 C    0.973
    53   1 H    0.998 --    21 C    0.968
    54   1 H    0.995 --    22 C    0.968
    55   1 H    0.989 --    23 C    0.973
    56   1 H    0.989 --    25 C    0.941
    57   1 H    0.989 --    25 C    0.940
    58   1 H    0.994 --    28 C    0.978
    59   1 H    0.992 --    28 C    0.973
    60   1 H    0.990 --    28 C    0.969
    61   1 H    0.996 --    29 C    0.962
    62   1 H    0.985 --    30 C    0.966
    63   1 H    0.987 --    30 C    0.963
    64   1 H    0.993 --    30 C    0.977
    65   1 H    0.992 --    31 C    0.959
    66   1 H    0.991 --    32 C    0.974
    67   1 H    0.996 --    32 C    0.982
    68   1 H    0.994 --    32 C    0.981
    69   1 H    0.992 --    33 C    0.975
    70   1 H    0.997 --    33 C    0.983
    71   1 H    0.993 --    33 C    0.980
    72   1 H    0.969 --     1 N    0.941
 ---------------------------------------------------------------------------

molecular dipole:
                 x           y           z       tot (Debye)
 q only:        0.376      -0.085      -0.598
   full:        0.884      -0.227      -0.725       2.962

           -------------------------------------------------
          | TOTAL ENERGY             -100.783394385517 Eh   |
          | GRADIENT NORM               0.001816436916 Eh/α |
          | HOMO-LUMO GAP               1.749683974045 eV   |
           -------------------------------------------------

 * finished run on 2024/04/06 at 11:17:11.930
