   * xtb version 6.6.1 (8d0f1dd) compiled by 'conda@1efc2f54142f' on 2023-08-01
          program call               : xtb xtbopt.xyz --opt crude --input .xc2 --gfn2

   ID    Z sym.   atoms
    1    7 N      1, 17
    2    6 C      2-6, 8, 9, 11-16, 18-23, 25, 26, 28-33
    3    8 O      7, 10, 24, 27
    4    1 H      34-72

          :  Hamiltonian                  GFN2-xTB          :
 * total energy  :   -99.2512054 Eh     change        0.1278977E-12 Eh
 * total energy  :   -99.3582001 Eh     change       -0.1069946E+00 Eh
 * total energy  :   -99.3595733 Eh     change       -0.1373259E-02 Eh
 * total energy  :   -99.3570162 Eh     change        0.2557096E-02 Eh
 * total energy  :   -99.3599004 Eh     change       -0.2884144E-02 Eh
 * total energy  :   -99.3601184 Eh     change       -0.2180806E-03 Eh
   *** GEOMETRY OPTIMIZATION CONVERGED AFTER 6 ITERATIONS ***

 final structure:
================
72
 xtb: 6.6.1 (8d0f1dd)
N           -2.19329216524798        2.94715832990216        2.26203157233569
C           -2.03360202983190        2.19543857961044        1.27853395509224
C           -3.07655520715219        1.92503398488059        0.22954266906174
C           -3.46833465716272        0.45608413372246        0.27155360158786
C           -4.25884953985894       -0.07994139460403       -0.74700150521814
C           -4.66497670605990       -1.40393583358330       -0.72783193666305
O           -5.43531441815508       -1.99596722830316       -1.66284069619829
C           -5.97673988262462       -1.21845489505560       -2.70483455761121
C           -4.26164652883380       -2.24438481003981        0.34564601743832
O           -4.69836355128255       -3.51713201897030        0.28071546894504
C           -4.42138348013896       -4.39338091638529        1.34849464777980
C           -3.47735779036834       -1.70544554658257        1.35334330790927
C           -3.08967307590596       -0.37218196528194        1.31693543956920
C           -2.40726014704772        2.26200141544201       -1.12931237606682
C           -1.37638333826226        1.22429888707327       -1.60697564013954
C           -0.11470121808970        1.24832628284866       -0.83549561336505
N            0.56039315124188        0.18143080523812       -0.43523784980669
C            1.87233368560340        0.32965360540947        0.15206312357181
C            2.99105999728168        0.13201285742777       -0.88729679639831
C            4.32601654359699        0.41145772113297       -0.25290730256117
C            4.73492475098933        1.72477533168170       -0.05676344233517
C            5.94996234879014        1.98669035801075        0.55320344068907
C            6.75946732998212        0.95063622132677        0.96164557679671
O            7.19052837311968       -1.26144800296806       -1.94712909317571
C            8.33188800745014       -0.89692165186985       -1.96184648312214
C            6.36560455974759       -0.37672203128976        0.76291151744223
O            7.23771635620690       -1.31699435015271        1.17906640352687
C            6.94479961741514       -2.67851237339271        0.95327617694352
C            5.13451314288409       -0.63551833918860        0.16500750093752
C            0.06466676868491       -1.15888342601740       -0.63809164644359
C           -4.36799219811004        2.77727407271948        0.40916928273375
C           -5.09104344927685        2.42815327082428        1.70778282352578
C           -4.11120436905039        4.28042671853128        0.35086486735684
H           -4.57444581352334        0.55315993380444       -1.55954784885550
H           -6.58691926494553       -0.39741224957119       -2.31677941760054
H           -6.60738035470667       -1.89612432842250       -3.27682160994219
H           -5.19410529666953       -0.81806378601731       -3.35754430050011
H           -4.83458657509335       -4.01997270365919        2.29005194160855
H           -4.90627242630225       -5.33224076638962        1.08864353355312
H           -3.34568199880810       -4.56120816742027        1.46216186624056
H           -3.17230749769796       -2.31371258202251        2.18927918603526
H           -2.50766860326372        0.01823637822142        2.13733154682980
H           -3.18304904425399        2.34231518171245       -1.88993838274806
H           -1.92299277736411        3.23593350417585       -1.04975026363042
H           -1.82750592410962        0.23341725987678       -1.60848248285192
H           -1.12921726990896        1.47976451012800       -2.64580961187828
H           -1.08191962875196        1.67897579145958        1.04618337529907
H            0.36722278033111        2.20538032875170       -0.69799374752478
H            1.98851617416072       -0.39928459542865        0.95774716273208
H            1.96365630845653        1.32955980084709        0.58202453542112
H            2.82524206202659        0.82241453286458       -1.71667945383971
H            2.96360495045123       -0.88625513683245       -1.27527758717450
H            4.11448754881241        2.54170409612011       -0.39217467235881
H            6.27033741607873        3.00640894509070        0.70496776975318
H            7.70367616206861        1.14136768391706        1.42792091146903
H            8.61405346162968        0.16040077412488       -2.07625916536947
H            9.17866323310090       -1.59452869740144       -1.87664832536079
H            7.81448411528524       -3.22867512367969        1.30731888183075
H            6.06329157535495       -2.99514093518269        1.51918695744482
H            6.79270800177816       -2.87520449286894       -0.11153547665508
H            4.81272408072264       -1.64997773925592       -0.00313838946946
H           -0.00585030313839       -1.39605191128911       -1.70148182403808
H           -0.92410901699494       -1.27298858944867       -0.18649751802295
H            0.74322083225247       -1.86725659721797       -0.17046222496008
H           -5.02949625530645        2.51424798602513       -0.42431208850429
H           -4.47765333940220        2.70074987553615        2.56060523290363
H           -5.31688335468161        1.36579730167172        1.75957386048108
H           -6.02573497546691        2.97971094369261        1.76364198124350
H           -3.43372537566970        4.57814525052746        1.14509574797569
H           -3.69924360551749        4.58647092936836       -0.60701145259591
H           -5.05134899538698        4.80721280194457        0.49150805210063
H           -1.41047628906833        3.08183632306280        2.89394568949770

          :  Hamiltonian                  GFN2-xTB          :
         :: total energy             -99.360118446648 Eh    ::
         :: gradient norm              0.006698533198 Eh/a0 ::
         :: HOMO-LUMO gap              1.749721796613 eV    ::
         :: SCC energy              -100.767448013483 Eh    ::
         :: -> dispersion             -0.075400303313 Eh    ::
         :: repulsion energy           1.405906645319 Eh    ::

    * Orbital Energies and Occupations

         #    Occupation            Energy/Eh            Energy/eV
      -------------------------------------------------------------
         1        2.0000           -0.8120481             -22.0970
       ...           ...                  ...                  ...
        78        1.9979           -0.5302443             -14.4287
        79        1.9974           -0.5264295             -14.3249
        80        1.9971           -0.5251464             -14.2900
        81        1.9953           -0.5174178             -14.0797
        82        1.9946           -0.5149694             -14.0130
        83        1.9936           -0.5122496             -13.9390
        84        1.9934           -0.5117789             -13.9262
        85        1.9803           -0.4944824             -13.4556
        86        1.9790           -0.4934735             -13.4281
        87        1.9722           -0.4889560             -13.3052
        88        1.9308           -0.4741701             -12.9028
        89        1.8930           -0.4669553             -12.7065
        90        1.8591           -0.4623018             -12.5799 (HOMO)
        91        0.3704           -0.3980007             -10.8302 (LUMO)
        92        0.0342           -0.3573114              -9.7229
        93        0.0131           -0.3419337              -9.3045
        94        0.0032           -0.3195939              -8.6966
        95        0.0026           -0.3165195              -8.6129
        96        0.0024           -0.3146662              -8.5625
        97        0.0013           -0.3047315              -8.2922
        98        0.0000           -0.1939636              -5.2780
        99        0.0000           -0.1836082              -4.9962
       100                         -0.1392129              -3.7882
       101                         -0.0712191              -1.9380
       ...                                ...                  ...
       171                          0.5768525              15.6970
      -------------------------------------------------------------
                  HL-Gap            0.0643011 Eh            1.7497 eV

     #   Z          covCN         q      C6AA      α(0)
     1   7 N        1.774    -0.266    27.717     7.796
     2   6 C        2.827     0.102    25.742     8.314
     3   6 C        3.908     0.006    20.412     6.422
     4   6 C        2.974     0.002    27.978     8.676
     5   6 C        2.920    -0.080    30.004     8.983
     6   6 C        2.862     0.130    25.155     8.221
     7   8 O        1.706    -0.228    17.788     5.694
     8   6 C        3.644     0.027    20.457     6.501
     9   6 C        2.864     0.129    25.170     8.224
    10   8 O        1.706    -0.227    17.760     5.690
    11   6 C        3.645     0.026    20.467     6.502
    12   6 C        2.914    -0.074    29.848     8.959
    13   6 C        2.921    -0.053    29.305     8.877
    14   6 C        3.813    -0.065    21.735     6.636
    15   6 C        3.802    -0.070    21.838     6.653
    16   6 C        2.845     0.010    27.776     8.637
    17   7 N        2.729     0.016    20.969     6.801
    18   6 C        3.757    -0.017    20.938     6.524
    19   6 C        3.808    -0.071    21.853     6.654
    20   6 C        2.973     0.013    27.713     8.635
    21   6 C        2.924    -0.047    29.161     8.856
    22   6 C        2.917    -0.025    28.624     8.773
    23   6 C        2.922    -0.051    29.271     8.872
    24   8 O        0.856    -0.292    19.638     5.941
    25   6 C        2.702     0.181    24.098     8.035
    26   6 C        2.864     0.157    24.607     8.131
    27   8 O        1.706    -0.245    18.056     5.737
    28   6 C        3.644     0.026    20.479     6.505
    29   6 C        2.921    -0.065    29.618     8.925
    30   6 C        3.700    -0.071    22.028     6.712
    31   6 C        3.853    -0.007    20.673     6.467
    32   6 C        3.756    -0.119    22.825     6.812
    33   6 C        3.755    -0.120    22.846     6.815
    34   1 H        0.926     0.053     2.288     2.366
    35   1 H        0.924     0.055     2.264     2.353
    36   1 H        0.925     0.082     1.957     2.188
    37   1 H        0.924     0.048     2.345     2.395
    38   1 H        0.924     0.056     2.245     2.343
    39   1 H        0.925     0.082     1.957     2.188
    40   1 H        0.924     0.049     2.330     2.387
    41   1 H        0.926     0.053     2.279     2.361
    42   1 H        0.926     0.040     2.451     2.448
    43   1 H        0.925     0.062     2.180     2.309
    44   1 H        0.924     0.055     2.259     2.350
    45   1 H        0.925     0.068     2.109     2.271
    46   1 H        0.923     0.082     1.954     2.186
    47   1 H        0.922     0.006     2.951     2.686
    48   1 H        0.926     0.073     2.053     2.241
    49   1 H        0.924     0.069     2.095     2.263
    50   1 H        0.924     0.069     2.099     2.266
    51   1 H        0.924     0.056     2.241     2.341
    52   1 H        0.925     0.058     2.221     2.331
    53   1 H        0.926     0.039     2.464     2.455
    54   1 H        0.926     0.055     2.254     2.348
    55   1 H        0.927     0.065     2.143     2.289
    56   1 H        0.923     0.049     2.338     2.391
    57   1 H        0.923     0.054     2.272     2.357
    58   1 H        0.925     0.075     2.031     2.228
    59   1 H        0.924     0.049     2.338     2.391
    60   1 H        0.924     0.066     2.136     2.285
    61   1 H        0.926     0.050     2.315     2.379
    62   1 H        0.924     0.079     1.987     2.204
    63   1 H        0.924     0.079     1.989     2.205
    64   1 H        0.925     0.083     1.946     2.181
    65   1 H        0.924     0.038     2.477     2.461
    66   1 H        0.925     0.069     2.101     2.267
    67   1 H        0.925     0.036     2.509     2.477
    68   1 H        0.925     0.052     2.294     2.368
    69   1 H        0.925     0.063     2.168     2.302
    70   1 H        0.925     0.035     2.510     2.478
    71   1 H        0.925     0.055     2.253     2.347
    72   1 H        0.860     0.159     1.344     1.816

Wiberg/Mayer (AO) data.
largest (>0.10) Wiberg bond orders for each atom

     #   Z sym  total        # sym  WBO       # sym  WBO       # sym  WBO
 ---------------------------------------------------------------------------
     1   7 N    3.041 --     2 C    1.958    72 H    0.941
     2   6 C    3.931 --     1 N    1.958     3 C    0.994    47 H    0.900
     3   6 C    3.975 --     2 C    0.994     4 C    0.971    14 C    0.956
                            31 C    0.942
     4   6 C    3.946 --    13 C    1.413     5 C    1.369     3 C    0.971
     5   6 C    3.961 --     6 C    1.400     4 C    1.369    34 H    0.958
     6   6 C    3.903 --     5 C    1.400     9 C    1.220     7 O    1.101
     7   8 O    2.254 --     6 C    1.101     8 C    0.977
     8   6 C    3.931 --     7 O    0.977    36 H    0.976    35 H    0.973
                            37 H    0.973
     9   6 C    3.899 --    12 C    1.390     6 C    1.220    10 O    1.104
    10   8 O    2.253 --     9 C    1.104    11 C    0.977
    11   6 C    3.930 --    10 O    0.977    39 H    0.977    40 H    0.973
                            38 H    0.973
    12   6 C    3.961 --    13 C    1.406     9 C    1.390    41 H    0.964
    13   6 C    3.952 --     4 C    1.413    12 C    1.406    42 H    0.962
    14   6 C    3.973 --    15 C    0.983    44 H    0.972    43 H    0.968
                             3 C    0.956
    15   6 C    3.987 --    16 C    1.061    14 C    0.983    45 H    0.960
                            46 H    0.925
    16   6 C    3.613 --    17 N    1.419    15 C    1.061    48 H    0.956
    17   7 N    3.494 --    16 C    1.419    30 C    0.998    18 C    0.986
    18   6 C    3.955 --    17 N    0.986    19 C    0.968    50 H    0.966
                            49 H    0.965
    19   6 C    3.975 --    20 C    1.005    52 H    0.973    51 H    0.969
                            18 C    0.968
    20   6 C    3.966 --    29 C    1.419    21 C    1.399    19 C    1.005
    21   6 C    3.939 --    22 C    1.414    20 C    1.399    53 H    0.968
    22   6 C    3.974 --    23 C    1.469    21 C    1.414    54 H    0.967
    23   6 C    3.941 --    22 C    1.469    26 C    1.321    55 H    0.966
    24   8 O    2.065 --    25 C    1.969
    25   6 C    3.855 --    24 O    1.969    56 H    0.941    57 H    0.940
    26   6 C    3.906 --    29 C    1.348    23 C    1.321    27 O    1.100
    27   8 O    2.240 --    26 C    1.100    28 C    0.975
    28   6 C    3.929 --    58 H    0.978    27 O    0.975    59 H    0.973
                            60 H    0.969
    29   6 C    3.948 --    20 C    1.419    26 C    1.348    61 H    0.962
    30   6 C    3.956 --    17 N    0.998    64 H    0.977    62 H    0.966
                            63 H    0.963
    31   6 C    3.971 --    33 C    1.009    32 C    1.008    65 H    0.959
                             3 C    0.942
    32   6 C    3.978 --    31 C    1.008    67 H    0.982    68 H    0.981
                            66 H    0.974
    33   6 C    3.981 --    31 C    1.009    70 H    0.983    71 H    0.980
                            69 H    0.975
    34   1 H    0.996 --     5 C    0.958
    35   1 H    0.993 --     8 C    0.973
    36   1 H    0.993 --     8 C    0.976
    37   1 H    0.993 --     8 C    0.973
    38   1 H    0.992 --    11 C    0.973
    39   1 H    0.993 --    11 C    0.977
    40   1 H    0.993 --    11 C    0.973
    41   1 H    0.995 --    12 C    0.964
    42   1 H    0.998 --    13 C    0.962
    43   1 H    0.995 --    14 C    0.968
    44   1 H    0.996 --    14 C    0.972
    45   1 H    0.994 --    15 C    0.960
    46   1 H    0.970 --    15 C    0.925
    47   1 H    0.986 --     2 C    0.900
    48   1 H    0.994 --    16 C    0.956
    49   1 H    0.991 --    18 C    0.965
    50   1 H    0.994 --    18 C    0.966
    51   1 H    0.996 --    19 C    0.969
    52   1 H    0.996 --    19 C    0.973
    53   1 H    0.998 --    21 C    0.968
    54   1 H    0.995 --    22 C    0.967
    55   1 H    0.994 --    23 C    0.966
    56   1 H    0.989 --    25 C    0.941
    57   1 H    0.989 --    25 C    0.940
    58   1 H    0.993 --    28 C    0.978
    59   1 H    0.992 --    28 C    0.973
    60   1 H    0.990 --    28 C    0.969
    61   1 H    0.996 --    29 C    0.962
    62   1 H    0.985 --    30 C    0.966
    63   1 H    0.987 --    30 C    0.963
    64   1 H    0.993 --    30 C    0.977
    65   1 H    0.992 --    31 C    0.959
    66   1 H    0.991 --    32 C    0.974
    67   1 H    0.996 --    32 C    0.982
    68   1 H    0.994 --    32 C    0.981
    69   1 H    0.992 --    33 C    0.975
    70   1 H    0.997 --    33 C    0.983
    71   1 H    0.993 --    33 C    0.980
    72   1 H    0.969 --     1 N    0.941
 ---------------------------------------------------------------------------

molecular dipole:
                 x           y           z       tot (Debye)
 q only:        0.338      -0.088      -0.604
   full:        0.868      -0.216      -0.716       2.913

           -------------------------------------------------
          | TOTAL ENERGY              -99.360118446648 Eh   |
          | GRADIENT NORM               0.006698533198 Eh/α |
          | HOMO-LUMO GAP               1.749721796613 eV   |
           -------------------------------------------------

 * finished run on 2024/04/06 at 11:17:13.203
