   * xtb version 6.6.1 (8d0f1dd) compiled by 'conda@1efc2f54142f' on 2023-08-01
          program call               : xtb struc.xyz --opt loose --input .xc1 --gfn2

   ID    Z sym.   atoms
    1    7 N      1, 17
    2    6 C      2-6, 8, 9, 11-16, 18-23, 25, 26, 28-33
    3    8 O      7, 10, 24, 27
    4    1 H      34-72
constraining bond 16 49 to    3.7133300 Å, actual value:    3.1811537 Å

          :  Hamiltonian                  GFN2-xTB          :
 * total energy  :   -99.4546993 Eh     change       -0.4035485E-08 Eh
 * total energy  :   -99.5582927 Eh     change       -0.1035935E+00 Eh
 * total energy  :   -99.6922665 Eh     change       -0.1339738E+00 Eh
 * total energy  :   -99.9009455 Eh     change       -0.2086790E+00 Eh
 * total energy  :  -100.2641217 Eh     change       -0.3631762E+00 Eh
 * total energy  :  -100.2254235 Eh     change        0.3869825E-01 Eh
 * total energy  :  -100.5217792 Eh     change       -0.2963557E+00 Eh
 * total energy  :  -100.6121379 Eh     change       -0.9035868E-01 Eh
 * total energy  :  -100.6774115 Eh     change       -0.6527362E-01 Eh
 * total energy  :  -100.7230893 Eh     change       -0.4567785E-01 Eh
 * total energy  :  -100.8227426 Eh     change       -0.9705843E-04 Eh
 * total energy  :  -100.8228213 Eh     change       -0.7862370E-04 Eh
 * total energy  :  -100.8229028 Eh     change       -0.8155424E-04 Eh
 * total energy  :  -100.8229671 Eh     change       -0.6427091E-04 Eh
 * total energy  :  -100.8230395 Eh     change       -0.7241392E-04 Eh
 * total energy  :  -100.8230734 Eh     change       -0.3394543E-04 Eh
 * total energy  :  -100.8231154 Eh     change       -0.4194376E-04 Eh
 * total energy  :  -100.8231863 Eh     change       -0.7094148E-04 Eh
 * total energy  :  -100.8232260 Eh     change       -0.3966482E-04 Eh
   *** GEOMETRY OPTIMIZATION CONVERGED AFTER 49 ITERATIONS ***

 final structure:
================
72
 xtb: 6.6.1 (8d0f1dd)
N           -2.19208323639178        2.05455915528921        2.74028083113354
C           -2.07742710810262        2.46607575219724        1.56114088849942
C           -2.95326553746929        2.00659403420307        0.42642627720892
C           -3.38520985881671        0.54726347489773        0.48043245076526
C           -4.23234204949955        0.06789111584053       -0.52383603488232
C           -4.66122477392776       -1.24848535033144       -0.54870502412375
O           -5.48725774726903       -1.78354905490454       -1.47370811401017
C           -6.06851932591076       -0.94960962233826       -2.44746807774912
C           -4.22328052750485       -2.14678251259464        0.46094942090202
O           -4.69100186010025       -3.40834588088749        0.36521274398375
C           -4.39726655476537       -4.32313642367396        1.39533829472599
C           -3.37235459563499       -1.66947047784757        1.44436923501079
C           -2.96026062556593       -0.34369208824908        1.45202950409036
C           -2.21516632336208        2.26317691155385       -0.91192213439519
C           -1.23369640364692        1.16012139756092       -1.31321642294729
C           -0.17643760469764        0.88612566411614       -0.21170410477578
N            0.77007438309726       -0.11368420721883       -0.70332694270344
C            1.89289791596033        0.24138768145374       -1.30098698301965
C            2.90250734244704       -0.67305499220858       -1.87971257426991
C            4.26519529854547       -0.36899191666199       -1.28477964684460
C            4.90977885788791        0.82188268829336       -1.57499000897586
C            6.14623633303384        1.11125981196452       -1.01852671317685
C            6.76606963037499        0.20872195185298       -0.16630392624909
O            7.96106943679913        0.38232180411647        0.42851157304334
C            8.68747780332192        1.56423273050770        0.18026930264620
C            6.11737287362913       -1.02266948113449        0.12389686105298
O            6.79969055518431       -1.84978485095007        0.94068283829630
C            6.27712637220838       -3.12494419094901        1.22791886986012
C            4.87369430409312       -1.28423270259597       -0.43120173893722
C            0.34580726898853       -1.49086677006166       -0.59383376305826
C           -4.23965383297095        2.90486656507477        0.50472570189697
C           -5.11157931801088        2.50595188976715        1.69159675514543
C           -3.92176220587947        4.39820912270286        0.57335469985127
H           -4.57535712245884        0.73780584328794       -1.29457088111684
H           -6.64178631929063       -0.13730983199697       -1.99041736415311
H           -6.74151009231390       -1.58969736680299       -3.01466289867471
H           -5.31475487156638       -0.53183069432814       -3.12308285624710
H           -4.75757235627138       -3.96323293602703        2.36375569842352
H           -4.92218340618488       -5.23923339768813        1.13184551437194
H           -3.32339822999737       -4.52733564840831        1.45880951004639
H           -3.02904256635190       -2.32214078568156        2.23064069973055
H           -2.33115382160526       -0.00445034807494        2.25730505183839
H           -2.94495447565117        2.36441816437113       -1.71511569010579
H           -1.67428368464050        3.20867396506490       -0.84905476638007
H           -1.78276219654145        0.23703397750298       -1.50328343453707
H           -0.73337963326374        1.45405036242015       -2.23679709710682
H           -1.37300076151462        3.25840558399738        1.27185783314980
H            0.39166106028337        1.81944839648694       -0.06890008105157
H           -0.52849028765753        0.63840728634763        0.44604396768163
H            2.11749568889124        1.29679248848891       -1.32286037893713
H            2.95666670296823       -0.49776304989648       -2.96115608102303
H            2.64691224361569       -1.71831969826640       -1.71902840127039
H            4.45900550473990        1.53297790120353       -2.25053991028639
H            6.62524271288469        2.04461948438559       -1.26430371375626
H            8.14499969248615        2.44816705134490        0.52959370947088
H            8.92233240556056        1.67495963921344       -0.88256141176528
H            9.61212032875994        1.46234076206047        0.74501429192140
H            7.02131381815610       -3.60968166076989        1.85698052504997
H            5.33097702314216       -3.05871705626338        1.77472020793547
H            6.13467076259108       -3.71437016097116        0.31664431427334
H            4.37643195133647       -2.21699926500213       -0.21559530856106
H            0.21696400133629       -1.94316880090652       -1.57972635412995
H           -0.60393614705728       -1.53398761899985       -0.06522894336869
H            1.08170012302815       -2.07158499224603       -0.03544482436443
H           -4.80778872795089        2.72956450974117       -0.41416568587051
H           -4.53701552763121        2.53335693042672        2.61437616821265
H           -5.50518365343927        1.50037438275653        1.56798897954195
H           -5.94781141542233        3.19470720758377        1.78166588323928
H           -3.43651250402479        4.65333243610662        1.51186261833921
H           -3.28950759885094        4.71746933424919       -0.25084439094996
H           -4.84941508153371        4.96242505323719        0.51637502467761
H           -1.59638682739911        2.48529084557124        3.44021128026895

          :  Hamiltonian                  GFN2-xTB          :
         :: total energy            -100.823226000436 Eh    ::
         :: gradient norm              0.003497386674 Eh/a0 ::
         :: HOMO-LUMO gap              1.664966735657 eV    ::
         :: SCC energy              -100.807575280360 Eh    ::
         :: -> dispersion             -0.074500843454 Eh    ::
         :: repulsion energy           1.512906850284 Eh    ::

    * Orbital Energies and Occupations

         #    Occupation            Energy/Eh            Energy/eV
      -------------------------------------------------------------
         1        2.0000           -0.8068723             -21.9561
       ...           ...                  ...                  ...
        78        1.9989           -0.5338273             -14.5262
        79        1.9985           -0.5293690             -14.4049
        80        1.9984           -0.5283132             -14.3761
        81        1.9976           -0.5217702             -14.1981
        82        1.9973           -0.5199922             -14.1497
        83        1.9964           -0.5152535             -14.0208
        84        1.9961           -0.5140136             -13.9870
        85        1.9942           -0.5078513             -13.8193
        86        1.9826           -0.4903841             -13.3440
        87        1.9761           -0.4852933             -13.2055
        88        1.9330           -0.4686238             -12.7519
        89        1.8656           -0.4570477             -12.4369
        90        1.8465           -0.4547837             -12.3753 (HOMO)
        91        0.4031           -0.3935973             -10.7103 (LUMO)
        92        0.0126           -0.3352127              -9.1216
        93        0.0032           -0.3135077              -8.5310
        94        0.0029           -0.3116911              -8.4815
        95        0.0028           -0.3115785              -8.4785
        96        0.0021           -0.3068502              -8.3498
        97        0.0000           -0.1880702              -5.1177
        98        0.0000           -0.1852420              -5.0407
        99                         -0.1468399              -3.9957
       100                         -0.0766207              -2.0850
       101                         -0.0657902              -1.7902
       ...                                ...                  ...
       171                          1.1047695              30.0623
      -------------------------------------------------------------
                  HL-Gap            0.0611864 Eh            1.6650 eV

     #   Z          covCN         q      C6AA      α(0)
     1   7 N        1.774    -0.288    28.281     7.875
     2   6 C        2.826     0.097    25.849     8.331
     3   6 C        3.906     0.003    20.471     6.431
     4   6 C        2.969     0.009    27.804     8.649
     5   6 C        2.922    -0.079    29.974     8.978
     6   6 C        2.861     0.128    25.186     8.226
     7   8 O        1.706    -0.232    17.844     5.703
     8   6 C        3.644     0.028    20.436     6.498
     9   6 C        2.864     0.128    25.185     8.226
    10   8 O        1.706    -0.230    17.809     5.698
    11   6 C        3.646     0.027    20.451     6.499
    12   6 C        2.914    -0.074    29.842     8.958
    13   6 C        2.922    -0.056    29.380     8.889
    14   6 C        3.808    -0.068    21.805     6.647
    15   6 C        3.800    -0.070    21.850     6.655
    16   6 C        3.752    -0.042    21.383     6.594
    17   7 N        2.729     0.013    21.037     6.812
    18   6 C        2.845     0.010    27.792     8.640
    19   6 C        3.809    -0.071    21.853     6.654
    20   6 C        2.973     0.002    27.979     8.676
    21   6 C        2.921    -0.051    29.258     8.870
    22   6 C        2.914    -0.068    29.685     8.934
    23   6 C        2.865     0.133    25.093     8.211
    24   8 O        1.706    -0.223    17.705     5.681
    25   6 C        3.645     0.025    20.486     6.505
    26   6 C        2.863     0.133    25.091     8.211
    27   8 O        1.706    -0.225    17.740     5.687
    28   6 C        3.644     0.027    20.453     6.500
    29   6 C        2.919    -0.079    29.975     8.978
    30   6 C        3.699    -0.072    22.042     6.714
    31   6 C        3.857    -0.007    20.671     6.466
    32   6 C        3.755    -0.116    22.771     6.804
    33   6 C        3.754    -0.112    22.695     6.793
    34   1 H        0.926     0.050     2.322     2.383
    35   1 H        0.924     0.053     2.286     2.364
    36   1 H        0.925     0.080     1.979     2.200
    37   1 H        0.924     0.047     2.360     2.402
    38   1 H        0.924     0.056     2.250     2.346
    39   1 H        0.925     0.080     1.979     2.200
    40   1 H        0.924     0.047     2.353     2.399
    41   1 H        0.926     0.052     2.299     2.371
    42   1 H        0.926     0.067     2.117     2.275
    43   1 H        0.925     0.055     2.253     2.347
    44   1 H        0.924     0.046     2.366     2.405
    45   1 H        0.924     0.051     2.308     2.376
    46   1 H        0.924     0.049     2.334     2.389
    47   1 H        0.923     0.011     2.869     2.649
    48   1 H        0.923     0.062     2.179     2.309
    49   1 H        0.930     0.116     1.648     2.007
    50   1 H        0.926     0.074     2.047     2.237
    51   1 H        0.924     0.086     1.914     2.163
    52   1 H        0.925     0.067     2.117     2.275
    53   1 H        0.926     0.046     2.372     2.409
    54   1 H        0.926     0.059     2.212     2.326
    55   1 H        0.924     0.053     2.278     2.360
    56   1 H        0.924     0.056     2.252     2.347
    57   1 H        0.925     0.082     1.956     2.187
    58   1 H        0.925     0.082     1.957     2.188
    59   1 H        0.924     0.048     2.345     2.395
    60   1 H        0.924     0.052     2.293     2.368
    61   1 H        0.926     0.046     2.364     2.405
    62   1 H        0.924     0.080     1.979     2.200
    63   1 H        0.925     0.083     1.950     2.184
    64   1 H        0.924     0.081     1.972     2.196
    65   1 H        0.924     0.042     2.424     2.435
    66   1 H        0.925     0.058     2.222     2.331
    67   1 H        0.925     0.042     2.417     2.431
    68   1 H        0.925     0.052     2.297     2.370
    69   1 H        0.925     0.042     2.424     2.435
    70   1 H        0.925     0.038     2.475     2.460
    71   1 H        0.925     0.052     2.291     2.367
    72   1 H        0.860     0.156     1.364     1.830

Wiberg/Mayer (AO) data.
largest (>0.10) Wiberg bond orders for each atom

     #   Z sym  total        # sym  WBO       # sym  WBO       # sym  WBO
 ---------------------------------------------------------------------------
     1   7 N    3.013 --     2 C    1.934    72 H    0.943
     2   6 C    3.942 --     1 N    1.934     3 C    1.003    47 H    0.934
     3   6 C    3.979 --     2 C    1.003     4 C    0.979    14 C    0.970
                            31 C    0.915
     4   6 C    3.942 --    13 C    1.417     5 C    1.366     3 C    0.979
     5   6 C    3.959 --     6 C    1.403     4 C    1.366    34 H    0.957
     6   6 C    3.899 --     5 C    1.403     9 C    1.221     7 O    1.095
     7   8 O    2.246 --     6 C    1.095     8 C    0.979
     8   6 C    3.933 --     7 O    0.979    36 H    0.977    35 H    0.974
                            37 H    0.973
     9   6 C    3.894 --    12 C    1.391     6 C    1.221    10 O    1.099
    10   8 O    2.246 --     9 C    1.099    11 C    0.978
    11   6 C    3.932 --    10 O    0.978    39 H    0.977    38 H    0.973
                            40 H    0.973
    12   6 C    3.959 --    13 C    1.406     9 C    1.391    41 H    0.964
    13   6 C    3.943 --     4 C    1.417    12 C    1.406    42 H    0.952
    14   6 C    3.986 --    15 C    1.006     3 C    0.970    44 H    0.970
                            43 H    0.969
    15   6 C    3.976 --    14 C    1.006    46 H    0.978    16 C    0.975
                            45 H    0.972
    16   6 C    3.948 --    15 C    0.975    17 N    0.974    48 H    0.967
                            49 H    0.966
    17   7 N    3.480 --    18 C    1.438    30 C    0.997    16 C    0.974
    18   6 C    3.574 --    17 N    1.438    19 C    1.052    50 H    0.957
    19   6 C    3.986 --    18 C    1.052    20 C    0.969    52 H    0.966
                            51 H    0.925
    20   6 C    3.931 --    21 C    1.412    29 C    1.384    19 C    0.969
    21   6 C    3.955 --    22 C    1.416    20 C    1.412    53 H    0.968
    22   6 C    3.962 --    21 C    1.416    23 C    1.384    54 H    0.963
    23   6 C    3.902 --    22 C    1.384    26 C    1.224    24 O    1.109
    24   8 O    2.258 --    23 C    1.109    25 C    0.976
    25   6 C    3.929 --    57 H    0.977    24 O    0.976    55 H    0.973
                            56 H    0.973
    26   6 C    3.903 --    29 C    1.391    23 C    1.224    27 O    1.103
    27   8 O    2.257 --    26 C    1.103    28 C    0.978
    28   6 C    3.932 --    27 O    0.978    58 H    0.977    60 H    0.974
                            59 H    0.974
    29   6 C    3.960 --    26 C    1.391    20 C    1.384    61 H    0.962
    30   6 C    3.957 --    17 N    0.997    63 H    0.977    62 H    0.967
                            64 H    0.966
    31   6 C    3.979 --    32 C    1.012    33 C    1.009    65 H    0.957
                             3 C    0.915
    32   6 C    3.985 --    31 C    1.012    67 H    0.982    68 H    0.980
                            66 H    0.976
    33   6 C    3.990 --    31 C    1.009    70 H    0.983    69 H    0.983
                            71 H    0.982
    34   1 H    0.996 --     5 C    0.957
    35   1 H    0.993 --     8 C    0.974
    36   1 H    0.993 --     8 C    0.977
    37   1 H    0.993 --     8 C    0.973
    38   1 H    0.992 --    11 C    0.973
    39   1 H    0.993 --    11 C    0.977
    40   1 H    0.993 --    11 C    0.973
    41   1 H    0.995 --    12 C    0.964
    42   1 H    0.994 --    13 C    0.952
    43   1 H    0.994 --    14 C    0.969
    44   1 H    0.997 --    14 C    0.970
    45   1 H    0.997 --    15 C    0.972
    46   1 H    0.997 --    15 C    0.978
    47   1 H    0.985 --     2 C    0.934
    48   1 H    0.995 --    16 C    0.967
    49   1 H    0.985 --    16 C    0.966
    50   1 H    0.995 --    18 C    0.957
    51   1 H    0.969 --    19 C    0.925
    52   1 H    0.995 --    19 C    0.966
    53   1 H    0.997 --    21 C    0.968
    54   1 H    0.995 --    22 C    0.963
    55   1 H    0.992 --    25 C    0.973
    56   1 H    0.992 --    25 C    0.973
    57   1 H    0.993 --    25 C    0.977
    58   1 H    0.993 --    28 C    0.977
    59   1 H    0.994 --    28 C    0.974
    60   1 H    0.993 --    28 C    0.974
    61   1 H    0.997 --    29 C    0.962
    62   1 H    0.985 --    30 C    0.967
    63   1 H    0.993 --    30 C    0.977
    64   1 H    0.986 --    30 C    0.966
    65   1 H    0.995 --    31 C    0.957
    66   1 H    0.994 --    32 C    0.976
    67   1 H    0.997 --    32 C    0.982
    68   1 H    0.996 --    32 C    0.980
    69   1 H    0.997 --    33 C    0.983
    70   1 H    0.998 --    33 C    0.983
    71   1 H    0.995 --    33 C    0.982
    72   1 H    0.970 --     1 N    0.943
 ---------------------------------------------------------------------------

molecular dipole:
                 x           y           z       tot (Debye)
 q only:        1.003      -0.126      -0.847
   full:        1.201       0.311      -1.012       4.070

           -------------------------------------------------
          | TOTAL ENERGY             -100.823226000436 Eh   |
          | GRADIENT NORM               0.003497386674 Eh/α |
          | HOMO-LUMO GAP               1.664966735657 eV   |
           -------------------------------------------------

 * finished run on 2024/04/06 at 11:13:30.882
