   * xtb version 6.6.1 (8d0f1dd) compiled by 'conda@1efc2f54142f' on 2023-08-01
          program call               : xtb xtbopt.xyz --opt crude --input .xc2 --gfn2

   ID    Z sym.   atoms
    1    7 N      1, 17
    2    6 C      2-6, 8, 9, 11-16, 18-23, 25, 26, 28-33
    3    8 O      7, 10, 24, 27
    4    1 H      34-72
########################################################################
[WARNING] Please study the warnings concerning your input carefully
-1- readin_getIntValue: could not parse ''
########################################################################

          :  Hamiltonian                  GFN2-xTB          :
 * total energy  :   -99.2932515 Eh     change        0.3268497E-12 Eh
 * total energy  :   -99.4024883 Eh     change       -0.1092369E+00 Eh
 * total energy  :   -99.4039444 Eh     change       -0.1456032E-02 Eh
 * total energy  :   -99.4046571 Eh     change       -0.7126830E-03 Eh
 * total energy  :   -99.4047747 Eh     change       -0.1176776E-03 Eh
   *** GEOMETRY OPTIMIZATION CONVERGED AFTER 5 ITERATIONS ***

 final structure:
================
72
 xtb: 6.6.1 (8d0f1dd)
N           -2.19466440935876        2.06042185256756        2.73857343221405
C           -2.07454832585984        2.46620135058243        1.55769180615213
C           -2.95337414088144        2.00670741853857        0.42539866248115
C           -3.38449885878866        0.54729450751810        0.48082684754822
C           -4.22662653591821        0.06604072722570       -0.52662823361897
C           -4.65734068855562       -1.24963302374805       -0.55094713386008
O           -5.48385832715696       -1.78312653093174       -1.47635519212751
C           -6.06244583139564       -0.94666854979587       -2.44953172706623
C           -4.22225792002552       -2.14750442207520        0.46018539251711
O           -4.68941195185017       -3.40917050101717        0.36235183744705
C           -4.39620910280043       -4.32648873872241        1.39018107276708
C           -3.37700923232104       -1.66891088383526        1.44782161027523
C           -2.96794368476986       -0.34203367082295        1.45827708064299
C           -2.22136099770257        2.26400662047751       -0.91505007278709
C           -1.23639394012966        1.16570659342544       -1.32135982802526
C           -0.14782739526962        0.91877785152852       -0.26807568670469
N            0.77739935360130       -0.09936243391162       -0.71526583172367
C            1.90298019642881        0.24242791986860       -1.31964544201710
C            2.91019550429734       -0.68105196698731       -1.88694404139542
C            4.27112913848442       -0.37478644481741       -1.28911538689329
C            4.91562334366158        0.81569389325635       -1.58065679127706
C            6.15040286884939        1.10687633660772       -1.02164131431575
C            6.76929127815551        0.20626960613583       -0.16682230867620
O            7.96454898089924        0.38116397898676        0.42701996640347
C            8.68990053239176        1.56313168250764        0.17651162375763
C            6.11952412942922       -1.02378682680420        0.12609167189285
O            6.79886296358999       -1.84986543656984        0.94627461637710
C            6.27203677287374       -3.12284571159276        1.23504339324671
C            4.87660104461992       -1.28664581032261       -0.43043684331303
C            0.34693382499781       -1.47226846426899       -0.60175756415346
C           -4.24132644870819        2.90171809279704        0.50725395624954
C           -5.10853307867853        2.50038593573373        1.69625350433649
C           -3.92530783662074        4.39542732808138        0.57547557516535
H           -4.56521818970711        0.73528724513405       -1.29981491988515
H           -6.63769023983387       -0.13635786018134       -1.99146578807335
H           -6.73327070712843       -1.58515250199026       -3.02113728645984
H           -5.30678530793816       -0.52605205054320       -3.12117853602590
H           -4.75343495074423       -3.96795199303417        2.36002182774761
H           -4.92430845140354       -5.24057389385540        1.12603829416141
H           -3.32290846258757       -4.53374672538046        1.45051431596482
H           -3.03786161923252       -2.32136953463061        2.23616985080059
H           -2.35144268425564       -0.00037182974745        2.27297753377703
H           -2.95629907332667        2.36074130283404       -1.71477338013369
H           -1.68466819707501        3.21233016995004       -0.85685525526723
H           -1.77914177665908        0.23558390868082       -1.49615722763518
H           -0.76057293311563        1.45822809128944       -2.26145490812194
H           -1.36318290856327        3.25216052049903        1.26652060896230
H            0.40534757887343        1.84136255039510       -0.08327480994433
H           -0.61539286259716        0.58347561836502        0.65865916057293
H            2.12880200918040        1.29656630107310       -1.35847640032971
H            2.96894201987149       -0.51362823060944       -2.96942320153974
H            2.65190414451807       -1.72448365146748       -1.71935690590138
H            4.46662429339453        1.52476235877606       -2.25917804683581
H            6.62907488580275        2.04040634936343       -1.26753860893121
H            8.14466143894950        2.44781203108480        0.51951554484012
H            8.92890243614637        1.66941713282659       -0.88578851941512
H            9.61230176484726        1.46514374526776        0.74557297585831
H            7.01368096317598       -3.60924902534108        1.86560734877714
H            5.32547919785685       -3.05245584533383        1.78060561634613
H            6.12851270468084       -3.71310134060007        0.32464408270411
H            4.37764591378401       -2.21781369684473       -0.21231041958094
H            0.21470915466930       -1.92877057357764       -1.58466114918390
H           -0.60245319247547       -1.50889308753523       -0.07230956801295
H            1.07982365539114       -2.05538526468593       -0.04171382436712
H           -4.81103920766107        2.72494384313796       -0.41015013587280
H           -4.53054088306497        2.52873054062267        2.61672293437574
H           -5.49958965925674        1.49402116775176        1.57365829849098
H           -5.94563275616138        3.18716473564516        1.79002590145806
H           -3.44549428220996        4.65150230306575        1.51673229087384
H           -3.28774400636387        4.71357431786214       -0.24528147785517
H           -4.85288644613167        4.95943061907374        0.51168356323725
H           -1.59682899193195        2.49274949534774        3.43689641141567

          :  Hamiltonian                  GFN2-xTB          :
         :: total energy             -99.404774731144 Eh    ::
         :: gradient norm              0.003231577588 Eh/a0 ::
         :: HOMO-LUMO gap              1.662100116329 eV    ::
         :: SCC energy              -100.783457932032 Eh    ::
         :: -> dispersion             -0.074525006219 Eh    ::
         :: repulsion energy           1.377256437976 Eh    ::

    * Orbital Energies and Occupations

         #    Occupation            Energy/Eh            Energy/eV
      -------------------------------------------------------------
         1        2.0000           -0.8069547             -21.9584
       ...           ...                  ...                  ...
        78        1.9989           -0.5338388             -14.5265
        79        1.9985           -0.5293606             -14.4046
        80        1.9984           -0.5282479             -14.3744
        81        1.9976           -0.5218627             -14.2006
        82        1.9973           -0.5198885             -14.1469
        83        1.9963           -0.5149636             -14.0129
        84        1.9960           -0.5138173             -13.9817
        85        1.9941           -0.5077643             -13.8170
        86        1.9826           -0.4904892             -13.3469
        87        1.9760           -0.4853103             -13.2060
        88        1.9329           -0.4686761             -12.7533
        89        1.8656           -0.4571222             -12.4389
        90        1.8461           -0.4548093             -12.3760 (HOMO)
        91        0.4043           -0.3937283             -10.7139 (LUMO)
        92        0.0123           -0.3349444              -9.1143
        93        0.0032           -0.3135428              -8.5319
        94        0.0029           -0.3117298              -8.4826
        95        0.0028           -0.3116241              -8.4797
        96        0.0021           -0.3070535              -8.3554
        97        0.0000           -0.1879121              -5.1133
        98        0.0000           -0.1854384              -5.0460
        99                         -0.1371091              -3.7309
       100                         -0.0736995              -2.0055
       101                         -0.0625388              -1.7018
       ...                                ...                  ...
       171                          0.5797446              15.7757
      -------------------------------------------------------------
                  HL-Gap            0.0610811 Eh            1.6621 eV

     #   Z          covCN         q      C6AA      α(0)
     1   7 N        1.774    -0.289    28.298     7.877
     2   6 C        2.825     0.097    25.829     8.328
     3   6 C        3.906     0.003    20.464     6.430
     4   6 C        2.969     0.010    27.792     8.647
     5   6 C        2.922    -0.079    29.977     8.979
     6   6 C        2.862     0.128    25.184     8.226
     7   8 O        1.706    -0.232    17.841     5.703
     8   6 C        3.644     0.028    20.436     6.498
     9   6 C        2.864     0.128    25.185     8.226
    10   8 O        1.706    -0.230    17.807     5.697
    11   6 C        3.646     0.027    20.452     6.499
    12   6 C        2.914    -0.074    29.845     8.958
    13   6 C        2.922    -0.055    29.359     8.886
    14   6 C        3.808    -0.068    21.799     6.646
    15   6 C        3.801    -0.068    21.800     6.648
    16   6 C        3.755    -0.025    21.072     6.545
    17   7 N        2.729     0.022    20.859     6.783
    18   6 C        2.851     0.009    27.805     8.642
    19   6 C        3.809    -0.071    21.848     6.654
    20   6 C        2.973     0.002    27.978     8.676
    21   6 C        2.921    -0.051    29.259     8.870
    22   6 C        2.914    -0.068    29.685     8.934
    23   6 C        2.865     0.133    25.093     8.211
    24   8 O        1.706    -0.223    17.704     5.681
    25   6 C        3.645     0.025    20.485     6.505
    26   6 C        2.863     0.133    25.091     8.211
    27   8 O        1.706    -0.225    17.738     5.686
    28   6 C        3.645     0.027    20.452     6.500
    29   6 C        2.919    -0.079    29.975     8.978
    30   6 C        3.700    -0.072    22.053     6.716
    31   6 C        3.858    -0.007    20.671     6.466
    32   6 C        3.755    -0.116    22.777     6.805
    33   6 C        3.754    -0.112    22.694     6.793
    34   1 H        0.926     0.050     2.320     2.382
    35   1 H        0.924     0.053     2.284     2.364
    36   1 H        0.925     0.080     1.979     2.200
    37   1 H        0.924     0.047     2.360     2.403
    38   1 H        0.924     0.056     2.249     2.345
    39   1 H        0.925     0.080     1.978     2.200
    40   1 H        0.924     0.048     2.351     2.398
    41   1 H        0.926     0.052     2.297     2.370
    42   1 H        0.926     0.067     2.113     2.273
    43   1 H        0.924     0.055     2.257     2.349
    44   1 H        0.924     0.046     2.368     2.406
    45   1 H        0.924     0.052     2.301     2.372
    46   1 H        0.924     0.050     2.323     2.383
    47   1 H        0.923     0.011     2.873     2.651
    48   1 H        0.924     0.067     2.121     2.277
    49   1 H        0.924     0.076     2.016     2.221
    50   1 H        0.926     0.074     2.045     2.236
    51   1 H        0.924     0.086     1.914     2.164
    52   1 H        0.925     0.067     2.118     2.276
    53   1 H        0.926     0.046     2.373     2.409
    54   1 H        0.926     0.059     2.212     2.326
    55   1 H        0.924     0.053     2.278     2.361
    56   1 H        0.924     0.056     2.252     2.347
    57   1 H        0.925     0.082     1.956     2.187
    58   1 H        0.925     0.082     1.957     2.188
    59   1 H        0.924     0.048     2.345     2.395
    60   1 H        0.924     0.052     2.293     2.368
    61   1 H        0.926     0.047     2.363     2.404
    62   1 H        0.924     0.080     1.979     2.200
    63   1 H        0.925     0.083     1.947     2.182
    64   1 H        0.924     0.081     1.967     2.193
    65   1 H        0.924     0.042     2.424     2.435
    66   1 H        0.925     0.059     2.215     2.328
    67   1 H        0.925     0.042     2.416     2.431
    68   1 H        0.925     0.052     2.295     2.369
    69   1 H        0.925     0.042     2.422     2.434
    70   1 H        0.925     0.038     2.476     2.461
    71   1 H        0.925     0.052     2.291     2.367
    72   1 H        0.860     0.155     1.366     1.831

Wiberg/Mayer (AO) data.
largest (>0.10) Wiberg bond orders for each atom

     #   Z sym  total        # sym  WBO       # sym  WBO       # sym  WBO
 ---------------------------------------------------------------------------
     1   7 N    3.012 --     2 C    1.931    72 H    0.943
     2   6 C    3.942 --     1 N    1.931     3 C    1.003    47 H    0.934
     3   6 C    3.979 --     2 C    1.003     4 C    0.979    14 C    0.971
                            31 C    0.914
     4   6 C    3.942 --    13 C    1.416     5 C    1.366     3 C    0.979
     5   6 C    3.959 --     6 C    1.403     4 C    1.366    34 H    0.957
     6   6 C    3.899 --     5 C    1.403     9 C    1.221     7 O    1.095
     7   8 O    2.246 --     6 C    1.095     8 C    0.979
     8   6 C    3.933 --     7 O    0.979    36 H    0.977    35 H    0.974
                            37 H    0.973
     9   6 C    3.894 --    12 C    1.391     6 C    1.221    10 O    1.099
    10   8 O    2.246 --     9 C    1.099    11 C    0.978
    11   6 C    3.932 --    10 O    0.978    39 H    0.977    40 H    0.973
                            38 H    0.973
    12   6 C    3.959 --    13 C    1.406     9 C    1.391    41 H    0.964
    13   6 C    3.942 --     4 C    1.416    12 C    1.406    42 H    0.951
    14   6 C    3.987 --    15 C    1.005     3 C    0.971    44 H    0.970
                            43 H    0.969
    15   6 C    3.977 --    14 C    1.005    16 C    0.984    46 H    0.975
                            45 H    0.971
    16   6 C    3.955 --    15 C    0.984    17 N    0.983    48 H    0.967
                            49 H    0.955
    17   7 N    3.486 --    18 C    1.433    30 C    0.997    16 C    0.983
    18   6 C    3.573 --    17 N    1.433    19 C    1.053    50 H    0.957
    19   6 C    3.986 --    18 C    1.053    20 C    0.968    52 H    0.966
                            51 H    0.925
    20   6 C    3.930 --    21 C    1.412    29 C    1.384    19 C    0.968
    21   6 C    3.955 --    22 C    1.416    20 C    1.412    53 H    0.968
    22   6 C    3.962 --    21 C    1.416    23 C    1.384    54 H    0.963
    23   6 C    3.902 --    22 C    1.384    26 C    1.224    24 O    1.109
    24   8 O    2.258 --    23 C    1.109    25 C    0.976
    25   6 C    3.929 --    57 H    0.977    24 O    0.976    55 H    0.973
                            56 H    0.973
    26   6 C    3.903 --    29 C    1.391    23 C    1.224    27 O    1.103
    27   8 O    2.257 --    26 C    1.103    28 C    0.978
    28   6 C    3.932 --    27 O    0.978    58 H    0.977    60 H    0.974
                            59 H    0.974
    29   6 C    3.960 --    26 C    1.391    20 C    1.384    61 H    0.962
    30   6 C    3.957 --    17 N    0.997    63 H    0.976    62 H    0.967
                            64 H    0.966
    31   6 C    3.979 --    32 C    1.012    33 C    1.009    65 H    0.957
                             3 C    0.914
    32   6 C    3.985 --    31 C    1.012    67 H    0.982    68 H    0.980
                            66 H    0.976
    33   6 C    3.990 --    31 C    1.009    69 H    0.983    70 H    0.983
                            71 H    0.982
    34   1 H    0.996 --     5 C    0.957
    35   1 H    0.993 --     8 C    0.974
    36   1 H    0.993 --     8 C    0.977
    37   1 H    0.993 --     8 C    0.973
    38   1 H    0.992 --    11 C    0.973
    39   1 H    0.993 --    11 C    0.977
    40   1 H    0.993 --    11 C    0.973
    41   1 H    0.995 --    12 C    0.964
    42   1 H    0.993 --    13 C    0.951
    43   1 H    0.994 --    14 C    0.969
    44   1 H    0.997 --    14 C    0.970
    45   1 H    0.997 --    15 C    0.971
    46   1 H    0.997 --    15 C    0.975
    47   1 H    0.985 --     2 C    0.934
    48   1 H    0.994 --    16 C    0.967
    49   1 H    0.990 --    16 C    0.955
    50   1 H    0.995 --    18 C    0.957
    51   1 H    0.969 --    19 C    0.925
    52   1 H    0.995 --    19 C    0.966
    53   1 H    0.997 --    21 C    0.968
    54   1 H    0.995 --    22 C    0.963
    55   1 H    0.992 --    25 C    0.973
    56   1 H    0.992 --    25 C    0.973
    57   1 H    0.993 --    25 C    0.977
    58   1 H    0.993 --    28 C    0.977
    59   1 H    0.994 --    28 C    0.974
    60   1 H    0.993 --    28 C    0.974
    61   1 H    0.997 --    29 C    0.962
    62   1 H    0.985 --    30 C    0.967
    63   1 H    0.993 --    30 C    0.976
    64   1 H    0.986 --    30 C    0.966
    65   1 H    0.995 --    31 C    0.957
    66   1 H    0.994 --    32 C    0.976
    67   1 H    0.997 --    32 C    0.982
    68   1 H    0.996 --    32 C    0.980
    69   1 H    0.997 --    33 C    0.983
    70   1 H    0.998 --    33 C    0.983
    71   1 H    0.995 --    33 C    0.982
    72   1 H    0.970 --     1 N    0.943
 ---------------------------------------------------------------------------

molecular dipole:
                 x           y           z       tot (Debye)
 q only:        1.015      -0.128      -0.883
   full:        1.215       0.310      -1.043       4.145

           -------------------------------------------------
          | TOTAL ENERGY              -99.404774731144 Eh   |
          | GRADIENT NORM               0.003231577588 Eh/α |
          | HOMO-LUMO GAP               1.662100116329 eV   |
           -------------------------------------------------

 * finished run on 2024/04/06 at 11:13:31.994
