   * xtb version 6.6.1 (8d0f1dd) compiled by 'conda@1efc2f54142f' on 2023-08-01
          program call               : xtb xtbopt.xyz --opt crude --input .xc2 --gfn2

   ID    Z sym.   atoms
    1    7 N      1, 17
    2    6 C      2-6, 8, 9, 11-16, 18-23, 25, 26, 28-33
    3    8 O      7, 10, 24, 27
    4    1 H      34-72

          :  Hamiltonian                  GFN2-xTB          :
 * total energy  :   -99.3403083 Eh     change       -0.3268497E-12 Eh
   *** GEOMETRY OPTIMIZATION CONVERGED AFTER 1 ITERATIONS ***

 final structure:
================
72
 xtb: 6.6.1 (8d0f1dd)
N           -2.67106561341919        3.00400122311700        2.67132367071806
C           -2.42579752937058        2.08134860297097        1.86490469162868
C           -3.21885120721126        1.83833068723791        0.60706561165470
C           -3.86469364118562        0.46359536927937        0.66796434330656
C           -4.46301553064442       -0.07185717129499       -0.47316592419686
C           -5.05799829893645       -1.32312994468114       -0.45956931609520
O           -5.66538688953712       -1.90826683513994       -1.51194295525898
C           -5.83612156175498       -1.17789224201370       -2.70312651012674
C           -5.04537493423606       -2.09064727722986        0.73699907221314
O           -5.61278912388865       -3.30870657408666        0.65021964397987
C           -5.67391522066030       -4.12212797369320        1.79822665953990
C           -4.47024347665007       -1.54098340110115        1.87332200637926
C           -3.89531622650594       -0.27953187659300        1.83947319159823
C           -2.16123088546884        1.86577622430806       -0.54272787125375
C           -1.29253056319894        0.65739325682258       -0.53993778037342
C            0.02923111440857        0.69422621992083       -0.30373924864135
N            0.88221876454428       -0.38950610835106       -0.24738696435896
C            2.28146311744395       -0.13456542129244        0.03707735674790
C            3.10591677613224       -0.03052760419661       -1.25849346921568
C            4.56783251320380        0.12567098368299       -0.94351199377021
C            5.20074914483216        1.35162956919988       -1.06800248208876
C            6.55038070275563        1.48742606418445       -0.78003967486137
C            7.29458431741348        0.39877662927186       -0.34804251098655
O            8.60577591274663        0.40999076136811       -0.05139576779387
C            9.33953326919754        1.60178236372906       -0.21520756306588
C            6.64870427597086       -0.86124668646161       -0.19732419277406
O            7.43981196378210       -1.86016533832774        0.23936032350004
C            6.89639889407750       -3.14607363526569        0.41835734451069
C            5.30160999378421       -0.97401468557591       -0.50171393297462
C            0.51570877505832       -1.63962621674533       -0.48831738208961
C           -4.32878287607072        2.89467273165349        0.35007107169308
C           -5.39368530540149        2.85301290833080        1.44354397329571
C           -3.79224576883113        4.31590167342762        0.20355084264799
H           -4.46800390473497        0.49893891306608       -1.38723553722822
H           -6.38816304415775       -0.24925476299844       -2.52761596556804
H           -6.41698912836116       -1.82214639534984       -3.36071970681155
H           -4.87633687944242       -0.94993936556025       -3.17858320895243
H           -6.24814219720716       -3.64539045587116        2.59794730945366
H           -6.18023278886772       -5.03286231436447        1.48390667258491
H           -4.67374945350294       -4.37222643443883        2.16620811210896
H           -4.47150109116538       -2.08912000284683        2.80128507294057
H           -3.48058187162102        0.12415052211127        2.74948451906043
H           -2.69626823693670        1.92050822393306       -1.49316357212672
H           -1.55430427280287        2.76576990776622       -0.44145735282910
H           -0.84606110808890       -0.01377295846212       -3.55812595573393
H           -1.79865174127960       -0.27914382760972       -0.71410380855519
H           -1.58354621591849        1.37947534526646        1.97260496835836
H            0.51725756386238        1.64218758321057       -0.12413698797481
H            2.67242278977246       -0.95130632675239        0.64781894033447
H            2.37695427299536        0.79281513179497        0.60495814601136
H            2.75687774919274        0.82194641310623       -1.84260980483563
H            2.94724842597523       -0.93600361885618       -1.84835376883738
H            4.64738650671307        2.21414271575286       -1.40603211393918
H            7.01670778764089        2.45151650495799       -0.89934068526129
H            8.97325945585776        2.39295988234913        0.44684363881168
H            9.31066925541785        1.94947652454793       -1.25273271103339
H           10.36548827696742        1.35356025601933        0.05350673504284
H            7.71915150428789       -3.76403350867000        0.77284973172053
H            6.09831016073623       -3.14347897521640        1.16778692172440
H            6.51581448052683       -3.55634392508973       -0.52220534224508
H            4.81058600450129       -1.93066227854862       -0.41346761634161
H           -0.81984660400779       -0.68658496293135       -3.94666491050840
H           -0.48814732363983       -1.87834758070958       -0.77053424897493
H            1.24482769256440       -2.42072777041664       -0.40260607177970
H           -4.80877999288616        2.61690549662212       -0.59590212934387
H           -4.96574893368418        3.16784268576923        2.39021848779857
H           -5.80172733454989        1.85125571913764        1.55651819969813
H           -6.20676339730946        3.52786009187625        1.18885378136579
H           -3.26840642411749        4.61483315026548        1.10618718196275
H           -3.12480944330098        4.41148312014598       -0.64885487205261
H           -4.62573745945979        4.99683711323331        0.05198347769370
H           -2.06482236536875        3.10635340982434        3.47893505334038

          :  Hamiltonian                  GFN2-xTB          :
         :: total energy             -99.340308259199 Eh    ::
         :: gradient norm              0.003023426441 Eh/a0 ::
         :: HOMO-LUMO gap              1.389114839730 eV    ::
         :: SCC energy              -100.762736597966 Eh    ::
         :: -> dispersion             -0.072356036807 Eh    ::
         :: repulsion energy           1.421462052618 Eh    ::

    * Orbital Energies and Occupations

         #    Occupation            Energy/Eh            Energy/eV
      -------------------------------------------------------------
         1        2.0000           -0.8099267             -22.0392
       ...           ...                  ...                  ...
        78        1.9976           -0.5283846             -14.3781
        79        1.9975           -0.5275699             -14.3559
        80        1.9967           -0.5234255             -14.2431
        81        1.9963           -0.5213236             -14.1859
        82        1.9949           -0.5164987             -14.0546
        83        1.9932           -0.5118128             -13.9271
        84        1.9925           -0.5103161             -13.8864
        85        1.9903           -0.5062023             -13.7745
        86        1.9732           -0.4899651             -13.3326
        87        1.9718           -0.4891454             -13.3103
        88        1.8951           -0.4676981             -12.7267
        89        1.8183           -0.4583436             -12.4722
        90        1.8152           -0.4580413             -12.4639 (HOMO)
        91        0.5620           -0.4069923             -11.0748 (LUMO)
        92        0.0089           -0.3362779              -9.1506
        93        0.0024           -0.3153442              -8.5810
        94        0.0023           -0.3149236              -8.5695
        95        0.0019           -0.3118744              -8.4865
        96        0.0019           -0.3117446              -8.4830
        97        0.0009           -0.2999165              -8.1611
        98        0.0000           -0.1894066              -5.1540
        99        0.0000           -0.1891648              -5.1474
       100                         -0.1206179              -3.2822
       101                         -0.0638443              -1.7373
       ...                                ...                  ...
       171                          0.5753936              15.6573
      -------------------------------------------------------------
                  HL-Gap            0.0510490 Eh            1.3891 eV

     #   Z          covCN         q      C6AA      α(0)
     1   7 N        1.774    -0.265    27.708     7.795
     2   6 C        2.828     0.104    25.692     8.306
     3   6 C        3.909     0.011    20.340     6.410
     4   6 C        2.974     0.007    27.862     8.658
     5   6 C        2.920    -0.076    29.905     8.968
     6   6 C        2.862     0.131    25.129     8.217
     7   8 O        1.706    -0.227    17.758     5.690
     8   6 C        3.645     0.027    20.449     6.500
     9   6 C        2.864     0.132    25.116     8.215
    10   8 O        1.706    -0.223    17.698     5.680
    11   6 C        3.645     0.026    20.477     6.504
    12   6 C        2.914    -0.069    29.708     8.938
    13   6 C        2.921    -0.046    29.143     8.853
    14   6 C        3.817    -0.061    21.658     6.623
    15   6 C        2.890    -0.044    29.101     8.844
    16   6 C        2.851    -0.016    28.398     8.734
    17   7 N        2.733     0.061    20.173     6.671
    18   6 C        3.767    -0.019    20.957     6.524
    19   6 C        3.808    -0.069    21.810     6.648
    20   6 C        2.968     0.003    27.963     8.674
    21   6 C        2.921    -0.046    29.143     8.853
    22   6 C        2.914    -0.066    29.649     8.929
    23   6 C        2.864     0.135    25.051     8.204
    24   8 O        1.706    -0.218    17.617     5.667
    25   6 C        3.645     0.024    20.507     6.508
    26   6 C        2.862     0.134    25.064     8.206
    27   8 O        1.706    -0.222    17.678     5.677
    28   6 C        3.645     0.027    20.465     6.502
    29   6 C        2.920    -0.079    29.976     8.978
    30   6 C        2.804    -0.070    29.727     8.932
    31   6 C        3.853    -0.007    20.672     6.467
    32   6 C        3.756    -0.118    22.813     6.810
    33   6 C        3.755    -0.119    22.836     6.814
    34   1 H        0.926     0.053     2.283     2.363
    35   1 H        0.924     0.055     2.263     2.352
    36   1 H        0.925     0.082     1.961     2.190
    37   1 H        0.924     0.049     2.337     2.391
    38   1 H        0.924     0.057     2.233     2.337
    39   1 H        0.925     0.082     1.956     2.187
    40   1 H        0.924     0.052     2.294     2.369
    41   1 H        0.926     0.057     2.232     2.336
    42   1 H        0.926     0.046     2.375     2.410
    43   1 H        0.924     0.068     2.112     2.272
    44   1 H        0.924     0.054     2.265     2.353
    45   1 H        0.812    -0.009     3.263     2.836
    46   1 H        0.926     0.051     2.307     2.375
    47   1 H        0.923     0.009     2.900     2.663
    48   1 H        0.925     0.060     2.205     2.322
    49   1 H        0.924     0.072     2.062     2.246
    50   1 H        0.924     0.071     2.076     2.253
    51   1 H        0.924     0.057     2.232     2.336
    52   1 H        0.924     0.059     2.215     2.327
    53   1 H        0.926     0.050     2.315     2.379
    54   1 H        0.926     0.061     2.188     2.313
    55   1 H        0.924     0.056     2.241     2.341
    56   1 H        0.924     0.057     2.229     2.335
    57   1 H        0.925     0.084     1.942     2.179
    58   1 H        0.925     0.083     1.947     2.182
    59   1 H        0.924     0.050     2.324     2.384
    60   1 H        0.924     0.054     2.274     2.358
    61   1 H        0.926     0.048     2.348     2.396
    62   1 H        0.812     0.009     2.953     2.698
    63   1 H        0.927     0.076     2.019     2.222
    64   1 H        0.926     0.075     2.027     2.227
    65   1 H        0.924     0.038     2.473     2.459
    66   1 H        0.925     0.070     2.089     2.260
    67   1 H        0.925     0.036     2.505     2.475
    68   1 H        0.925     0.052     2.296     2.370
    69   1 H        0.925     0.064     2.149     2.293
    70   1 H        0.925     0.036     2.507     2.476
    71   1 H        0.925     0.055     2.259     2.350
    72   1 H        0.860     0.160     1.335     1.810

Wiberg/Mayer (AO) data.
largest (>0.10) Wiberg bond orders for each atom

     #   Z sym  total        # sym  WBO       # sym  WBO       # sym  WBO
 ---------------------------------------------------------------------------
     1   7 N    3.012 --     2 C    1.957    72 H    0.940
     2   6 C    3.940 --     1 N    1.957     3 C    0.991    47 H    0.930
     3   6 C    3.960 --     2 C    0.991     4 C    0.973    31 C    0.949
                            14 C    0.924
     4   6 C    3.936 --    13 C    1.404     5 C    1.374     3 C    0.973
     5   6 C    3.956 --     6 C    1.396     4 C    1.374    34 H    0.957
     6   6 C    3.893 --     5 C    1.396     9 C    1.217     7 O    1.101
     7   8 O    2.248 --     6 C    1.101     8 C    0.978
     8   6 C    3.931 --     7 O    0.978    36 H    0.976    35 H    0.973
                            37 H    0.973
     9   6 C    3.888 --    12 C    1.383     6 C    1.217    10 O    1.108
    10   8 O    2.249 --     9 C    1.108    11 C    0.977
    11   6 C    3.928 --    39 H    0.977    10 O    0.977    40 H    0.973
                            38 H    0.972
    12   6 C    3.956 --    13 C    1.415     9 C    1.383    41 H    0.963
    13   6 C    3.943 --    12 C    1.415     4 C    1.404    42 H    0.962
    14   6 C    3.986 --    15 C    1.045    44 H    0.970    43 H    0.947
                             3 C    0.924
    15   6 C    3.816 --    16 C    1.712    14 C    1.045    46 H    0.956
    16   6 C    3.929 --    15 C    1.712    17 N    1.121    48 H    0.956
    17   7 N    3.573 --    30 C    1.412    16 C    1.121    18 C    0.980
    18   6 C    3.953 --    17 N    0.980    19 C    0.971    50 H    0.968
                            49 H    0.965
    19   6 C    3.978 --    20 C    1.009    51 H    0.974    18 C    0.971
                            52 H    0.966
    20   6 C    3.938 --    21 C    1.409    29 C    1.377    19 C    1.009
    21   6 C    3.943 --    22 C    1.416    20 C    1.409    53 H    0.967
    22   6 C    3.954 --    21 C    1.416    23 C    1.382    54 H    0.963
    23   6 C    3.888 --    22 C    1.382    26 C    1.213    24 O    1.115
    24   8 O    2.254 --    23 C    1.115    25 C    0.975
    25   6 C    3.926 --    57 H    0.976    24 O    0.975    56 H    0.972
                            55 H    0.972
    26   6 C    3.892 --    29 C    1.396    23 C    1.213    27 O    1.107
    27   8 O    2.253 --    26 C    1.107    28 C    0.978
    28   6 C    3.930 --    27 O    0.978    58 H    0.976    59 H    0.973
                            60 H    0.972
    29   6 C    3.956 --    26 C    1.396    20 C    1.377    61 H    0.962
    30   6 C    3.504 --    17 N    1.412    64 H    0.972    63 H    0.968
    31   6 C    3.972 --    33 C    1.008    32 C    1.006    65 H    0.958
                             3 C    0.949
    32   6 C    3.974 --    31 C    1.006    67 H    0.981    68 H    0.981
                            66 H    0.972
    33   6 C    3.978 --    31 C    1.008    70 H    0.982    71 H    0.979
                            69 H    0.974
    34   1 H    0.996 --     5 C    0.957
    35   1 H    0.992 --     8 C    0.973
    36   1 H    0.992 --     8 C    0.976
    37   1 H    0.992 --     8 C    0.973
    38   1 H    0.991 --    11 C    0.972
    39   1 H    0.992 --    11 C    0.977
    40   1 H    0.991 --    11 C    0.973
    41   1 H    0.995 --    12 C    0.963
    42   1 H    0.997 --    13 C    0.962
    43   1 H    0.987 --    14 C    0.947
    44   1 H    0.996 --    14 C    0.970
    45   1 H    0.999 --    62 H    0.998
    46   1 H    0.997 --    15 C    0.956
    47   1 H    0.979 --     2 C    0.930
    48   1 H    0.996 --    16 C    0.956
    49   1 H    0.991 --    18 C    0.965
    50   1 H    0.993 --    18 C    0.968
    51   1 H    0.996 --    19 C    0.974
    52   1 H    0.994 --    19 C    0.966
    53   1 H    0.997 --    21 C    0.967
    54   1 H    0.994 --    22 C    0.963
    55   1 H    0.990 --    25 C    0.972
    56   1 H    0.990 --    25 C    0.972
    57   1 H    0.992 --    25 C    0.976
    58   1 H    0.992 --    28 C    0.976
    59   1 H    0.992 --    28 C    0.973
    60   1 H    0.992 --    28 C    0.972
    61   1 H    0.996 --    29 C    0.962
    62   1 H    0.999 --    45 H    0.998
    63   1 H    0.994 --    30 C    0.968
    64   1 H    0.994 --    30 C    0.972
    65   1 H    0.990 --    31 C    0.958
    66   1 H    0.989 --    32 C    0.972
    67   1 H    0.996 --    32 C    0.981
    68   1 H    0.993 --    32 C    0.981
    69   1 H    0.991 --    33 C    0.974
    70   1 H    0.996 --    33 C    0.982
    71   1 H    0.993 --    33 C    0.979
    72   1 H    0.967 --     1 N    0.940
 ---------------------------------------------------------------------------

molecular dipole:
                 x           y           z       tot (Debye)
 q only:        1.007      -0.195      -0.079
   full:        1.231      -0.411      -0.010       3.298

           -------------------------------------------------
          | TOTAL ENERGY              -99.340308259199 Eh   |
          | GRADIENT NORM               0.003023426441 Eh/α |
          | HOMO-LUMO GAP               1.389114839730 eV   |
           -------------------------------------------------

 * finished run on 2024/04/06 at 11:12:07.803
