   * xtb version 6.6.1 (8d0f1dd) compiled by 'conda@1efc2f54142f' on 2023-08-01
          program call               : xtb xtbopt.xyz --opt crude --input .xc2 --gfn2

   ID    Z sym.   atoms
    1    6 C      1, 3, 5-7, 10, 11, 14
    2    7 N      2, 4, 9, 13
    3    8 O      8, 12
    4    1 H      15-25

          :  Hamiltonian                  GFN2-xTB          :
 * total energy  :   -42.0878596 Eh     change       -0.2174261E-11 Eh
   *** GEOMETRY OPTIMIZATION CONVERGED AFTER 1 ITERATIONS ***

 final structure:
================
25
 xtb: 6.6.1 (8d0f1dd)
C            3.28125593401295        1.19068416195647       -0.01913978052002
N            2.33811907986364        0.10517120929240        0.00094155540158
C            2.67170126052896       -1.18316242646302       -0.01032581566735
N            1.56555410000266       -1.94041158223257        0.03952563264199
C            0.43989234784443       -1.10679273669845        0.08601931253716
C            0.97356555823288        0.21234092368102        0.06209669334261
C            0.21911610581757        1.47063947676047        0.05419763284258
O            0.78802156289578        2.56895074426257       -0.02733509349716
N           -1.08992613378747        1.29155808539782        0.13187185534090
C           -2.04542301267325        2.30888734934695        0.13976239522605
C           -3.94772317449277       -1.12489537421305       -0.89622883594221
O           -4.28260291728070       -0.07992621130607       -0.63852673781771
N           -0.79432274442584       -1.45272922563768        0.13519077827434
C           -1.32062700929722       -2.75952238055453        0.15570698856804
H            3.76061615762862        1.29252082591992        0.95683540705470
H            4.04672396304997        1.00956987275529       -0.77255840057245
H            2.74942856982690        2.11813082923949       -0.24010422107919
H            3.67733856091164       -1.55597596957814       -0.05620112531119
H           -1.59317007545815        3.31029406412986        0.17798909368513
H           -2.66735732087650        2.23341750479052       -0.76077461287725
H           -2.70510515789027        2.17342111081885        1.00398973719231
H           -0.96564954910971       -3.33651873237841        1.01907227280314
H           -1.08146021459505       -3.31013739993763       -0.76228766894996
H           -2.40798778270157       -2.66784771736047        0.21643655551013
H            1.55045340607238       -2.94942786038966        0.03501799971115

          :  Hamiltonian                  GFN2-xTB          :
         :: total energy             -42.087859607408 Eh    ::
         :: gradient norm              0.003165175992 Eh/a0 ::
         :: HOMO-LUMO gap              0.336072284668 eV    ::
         :: SCC energy               -42.619909254270 Eh    ::
         :: -> dispersion             -0.020240305190 Eh    ::
         :: repulsion energy           0.531924688344 Eh    ::

    * Orbital Energies and Occupations

         #    Occupation            Energy/Eh            Energy/eV
      -------------------------------------------------------------
         1        2.0000           -0.8953463             -24.3636
       ...           ...                  ...                  ...
        25        1.9979           -0.6569556             -17.8767
        26        1.9976           -0.6542528             -17.8031
        27        1.9943           -0.6338740             -17.2486
        28        1.9929           -0.6284295             -17.1004
        29        1.9911           -0.6229660             -16.9518
        30        1.9884           -0.6168297             -16.7848
        31        1.9829           -0.6074592             -16.5298
        32        1.9775           -0.6008601             -16.3502
        33        1.9314           -0.5738693             -15.6158
        34        1.8403           -0.5526435             -15.0382
        35        1.7252           -0.5382095             -14.6454
        36        1.6473           -0.5311919             -14.4545
        37        1.5222           -0.5221037             -14.2072 (HOMO)
        38        1.3089           -0.5097533             -13.8711 (LUMO)
        39        0.0636           -0.4134497             -11.2505
        40        0.0176           -0.3823943             -10.4055
        41        0.0174           -0.3820908             -10.3972
        42        0.0089           -0.3659682              -9.9585
        43        0.0003           -0.2864402              -7.7944
        44        0.0000           -0.1797421              -4.8910
        45        0.0000           -0.1456027              -3.9621
        46                         -0.0736823              -2.0050
        47                         -0.0696461              -1.8952
        48                         -0.0214427              -0.5835
       ...                                ...                  ...
        67                          0.7110096              19.3476
      -------------------------------------------------------------
                  HL-Gap            0.0123504 Eh            0.3361 eV

     #   Z          covCN         q      C6AA      α(0)
     1   6 C        3.693    -0.093    22.461     6.781
     2   7 N        2.821     0.081    19.831     6.614
     3   6 C        3.001     0.061    26.621     8.464
     4   7 N        2.784    -0.082    22.833     7.097
     5   6 C        2.961     0.142    24.900     8.185
     6   6 C        3.090     0.003    27.850     8.650
     7   6 C        2.759     0.282    22.223     7.720
     8   8 O        0.858    -0.374    21.162     6.168
     9   7 N        1.838    -0.169    25.456     7.477
    10   6 C        3.693    -0.032    21.327     6.607
    11   6 C        0.856     0.066    33.168     9.610
    12   8 O        0.856    -0.030    15.525     5.283
    13   7 N        1.825    -0.158    25.210     7.440
    14   6 C        3.694    -0.050    21.648     6.657
    15   1 H        0.924     0.109     1.701     2.040
    16   1 H        0.925     0.103     1.754     2.071
    17   1 H        0.924     0.148     1.405     1.853
    18   1 H        0.926     0.117     1.635     2.000
    19   1 H        0.923     0.117     1.640     2.002
    20   1 H        0.924     0.117     1.634     1.999
    21   1 H        0.924     0.118     1.630     1.997
    22   1 H        0.924     0.089     1.886     2.147
    23   1 H        0.924     0.093     1.849     2.127
    24   1 H        0.924     0.119     1.624     1.993
    25   1 H        0.860     0.220     1.010     1.574

Wiberg/Mayer (AO) data.
largest (>0.10) Wiberg bond orders for each atom

     #   Z sym  total        # sym  WBO       # sym  WBO       # sym  WBO
 ---------------------------------------------------------------------------
     1   6 C    3.883 --     2 N    0.988    16 H    0.961    15 H    0.949
                            17 H    0.936
     2   7 N    3.669 --     3 C    1.347     6 C    1.195     1 C    0.988
     3   6 C    3.771 --     2 N    1.347     4 N    1.306    18 H    0.952
     4   7 N    3.496 --     3 C    1.306     5 C    1.076    25 H    0.923
     5   6 C    3.926 --    13 N    1.509     6 C    1.207     4 N    1.076
     6   6 C    3.659 --     5 C    1.207     2 N    1.195     7 C    1.033
     7   6 C    3.908 --     8 O    1.496     9 N    1.311     6 C    1.033
     8   8 O    1.704 --     7 C    1.496     9 N    0.104
     9   7 N    2.566 --     7 C    1.311    10 C    1.104     8 O    0.104
    10   6 C    3.845 --     9 N    1.104    21 H    0.909    20 H    0.903
                            19 H    0.902
    11   6 C    2.600 --    12 O    2.584
    12   8 O    2.588 --    11 C    2.584
    13   7 N    2.704 --     5 C    1.509    14 C    1.066
    14   6 C    3.887 --    13 N    1.066    24 H    0.930    22 H    0.927
                            23 H    0.924
    15   1 H    0.977 --     1 C    0.949
    16   1 H    0.981 --     1 C    0.961
    17   1 H    0.970 --     1 C    0.936
    18   1 H    0.983 --     3 C    0.952
    19   1 H    0.905 --    10 C    0.902
    20   1 H    0.922 --    10 C    0.903
    21   1 H    0.926 --    10 C    0.909
    22   1 H    0.941 --    14 C    0.927
    23   1 H    0.940 --    14 C    0.924
    24   1 H    0.951 --    14 C    0.930
    25   1 H    0.950 --     4 N    0.923
 ---------------------------------------------------------------------------

molecular dipole:
                 x           y           z       tot (Debye)
 q only:        1.475      -1.897       0.049
   full:        1.692      -2.004       0.100       6.672

           -------------------------------------------------
          | TOTAL ENERGY              -42.087859607408 Eh   |
          | GRADIENT NORM               0.003165175992 Eh/α |
          | HOMO-LUMO GAP               0.336072284668 eV   |
           -------------------------------------------------

 * finished run on 2024/06/05 at 19:58:50.710
