   * xtb version 6.6.1 (8d0f1dd) compiled by 'conda@1efc2f54142f' on 2023-08-01
          program call               : xtb struc.xyz --opt loose --input .xc1 --gfn2

   ID    Z sym.   atoms
    1    6 C      1, 3, 5-7, 10, 11, 14
    2    7 N      2, 4, 9, 13
    3    8 O      8, 12
    4    1 H      15-25
constraining bond 2 13 to    5.8400000 Å, actual value:    3.5076258 Å

          :  Hamiltonian                  GFN2-xTB          :
 * total energy  :    -3.3949003 Eh     change       -0.6650680E-10 Eh
 * total energy  :   -22.4103511 Eh     change       -0.1901545E+02 Eh
 * total energy  :   -33.1298892 Eh     change       -0.1071954E+02 Eh
 * total energy  :   -38.9059000 Eh     change       -0.5776011E+01 Eh
 * total energy  :   -41.2004125 Eh     change       -0.2294513E+01 Eh
 * total energy  :   -41.4996201 Eh     change       -0.2992076E+00 Eh
 * total energy  :   -41.5480414 Eh     change       -0.4842129E-01 Eh
 * total energy  :   -41.6021002 Eh     change       -0.5405874E-01 Eh
 * total energy  :   -41.6423105 Eh     change       -0.4021033E-01 Eh
 * total energy  :   -41.6663601 Eh     change       -0.2404965E-01 Eh
 * total energy  :   -42.1368907 Eh     change       -0.8932808E-04 Eh
 * total energy  :   -42.1369850 Eh     change       -0.9431265E-04 Eh
 * total energy  :   -42.1370865 Eh     change       -0.1015595E-03 Eh
 * total energy  :   -42.1371886 Eh     change       -0.1020772E-03 Eh
 * total energy  :   -42.1372814 Eh     change       -0.9280805E-04 Eh
 * total energy  :   -42.1373586 Eh     change       -0.7713047E-04 Eh
 * total energy  :   -42.1373689 Eh     change       -0.1029050E-04 Eh
 * total energy  :   -42.1374107 Eh     change       -0.4188843E-04 Eh
 * total energy  :   -42.1374384 Eh     change       -0.2770662E-04 Eh
   *** GEOMETRY OPTIMIZATION CONVERGED AFTER 107 ITERATIONS ***

 final structure:
================
25
 xtb: 6.6.1 (8d0f1dd)
C            5.02718058024681       -0.00544902895034        0.30982383143110
N            4.08786298698277       -0.04872289756708       -0.73479154095484
C            2.85594896726613       -0.22459730935466       -0.74073246834133
N            2.03821337740658       -0.42990281854496        0.40171593563622
C            0.76959778429959       -0.61969918147629        0.39472226895686
C           -0.47496159960523       -0.33568004931285        0.13811334245341
C           -0.96494525465891        1.13277888544587       -0.00255064319274
O           -0.27956282204573        2.10973088213758       -0.01324881317618
N           -2.30631587823266        1.00401158593110       -0.12169570308397
C           -3.22128217120957        2.11365377359473       -0.27134892625623
C           -2.73701782051856       -0.32693907435387       -0.09270825863594
O           -3.85809947252635       -0.71829310766330       -0.19539171721815
N           -1.59862967649738       -1.10755609978669        0.06936080207897
C           -1.63871465475293       -2.54613561577048        0.11979966942448
H            5.79551261786473       -0.74974527653441        0.09014751059248
H            5.51707574022409        0.97044504552448        0.27102154295638
H            4.63475034024597       -0.17423651054661        1.32042437914770
H            2.31690690829716       -0.21807989993276       -1.67775721551778
H           -2.70253876727999        2.93934851214251       -0.75508105210392
H           -4.06621389190059        1.78356807232915       -0.87423971890697
H           -3.58629509926025        2.43878118248095        0.70463675661221
H           -1.19131784155164       -2.90690906017249        1.04689758259665
H           -1.10683944076950       -2.97790880487349       -0.72944258214462
H           -2.68532030196008       -2.84515958831814        0.07912837186346
H            2.53543690404075       -0.43906507483045        1.29436826368332

          :  Hamiltonian                  GFN2-xTB          :
         :: total energy             -42.137438446014 Eh    ::
         :: gradient norm              0.002509406920 Eh/a0 ::
         :: HOMO-LUMO gap              1.686465237560 eV    ::
         :: SCC energy               -42.698775893406 Eh    ::
         :: -> dispersion             -0.019606271607 Eh    ::
         :: repulsion energy           0.561381133627 Eh    ::

    * Orbital Energies and Occupations

         #    Occupation            Energy/Eh            Energy/eV
      -------------------------------------------------------------
         1        2.0000           -0.8910876             -24.2477
       ...           ...                  ...                  ...
        25        1.9999           -0.6703638             -18.2415
        26        1.9999           -0.6667573             -18.1434
        27        1.9996           -0.6433522             -17.5065
        28        1.9994           -0.6363656             -17.3164
        29        1.9991           -0.6301063             -17.1461
        30        1.9988           -0.6261055             -17.0372
        31        1.9977           -0.6154478             -16.7472
        32        1.9955           -0.6046142             -16.4524
        33        1.9872           -0.5881775             -16.0051
        34        1.9735           -0.5765006             -15.6874
        35        1.9686           -0.5738051             -15.6140
        36        1.9442           -0.5644936             -15.3607
        37        1.7997           -0.5430205             -14.7763 (HOMO)
        38        0.3041           -0.4810440             -13.0899 (LUMO)
        39        0.0322           -0.4431318             -12.0582
        40        0.0007           -0.3811129             -10.3706
        41        0.0000           -0.3386831              -9.2160
        42        0.0000           -0.3303346              -8.9889
        43                         -0.1977083              -5.3799
        44                         -0.1685946              -4.5877
        45                         -0.1413085              -3.8452
        46                         -0.0773408              -2.1046
        47                         -0.0672569              -1.8302
        48                         -0.0233149              -0.6344
       ...                                ...                  ...
        67                          0.7503357              20.4177
      -------------------------------------------------------------
                  HL-Gap            0.0619765 Eh            1.6865 eV

     #   Z          covCN         q      C6AA      α(0)
     1   6 C        3.693    -0.052    21.691     6.664
     2   7 N        1.823    -0.107    24.101     7.274
     3   6 C        2.772     0.099    25.787     8.317
     4   7 N        2.683    -0.007    21.391     6.869
     5   6 C        1.913     0.043    30.006     8.846
     6   6 C        2.969     0.042    27.065     8.533
     7   6 C        2.820     0.283    22.212     7.722
     8   8 O        0.857    -0.312    20.007     5.997
     9   7 N        2.786    -0.066    22.522     7.049
    10   6 C        3.691    -0.060    21.844     6.688
    11   6 C        2.811     0.325    21.491     7.595
    12   8 O        0.857    -0.327    20.274     6.037
    13   7 N        2.775    -0.042    22.047     6.974
    14   6 C        3.690    -0.067    21.980     6.709
    15   1 H        0.924     0.118     1.631     1.997
    16   1 H        0.924     0.118     1.627     1.995
    17   1 H        0.924     0.058     2.222     2.331
    18   1 H        0.926     0.108     1.715     2.048
    19   1 H        0.925     0.105     1.738     2.062
    20   1 H        0.925     0.112     1.683     2.029
    21   1 H        0.924     0.101     1.777     2.085
    22   1 H        0.924     0.087     1.905     2.158
    23   1 H        0.924     0.088     1.898     2.154
    24   1 H        0.925     0.118     1.628     1.995
    25   1 H        0.860     0.235     0.943     1.521

Wiberg/Mayer (AO) data.
largest (>0.10) Wiberg bond orders for each atom

     #   Z sym  total        # sym  WBO       # sym  WBO       # sym  WBO
 ---------------------------------------------------------------------------
     1   6 C    3.936 --     2 N    1.066    17 H    0.946    15 H    0.931
                            16 H    0.931
     2   7 N    3.071 --     3 C    1.839     1 C    1.066
     3   6 C    3.914 --     2 N    1.839     4 N    1.007    18 H    0.938
     4   7 N    3.568 --     5 C    1.507     3 C    1.007    25 H    0.885
     5   6 C    3.610 --     6 C    1.753     4 N    1.507
     6   6 C    3.929 --     5 C    1.753    13 N    1.148     7 C    0.823
     7   6 C    3.909 --     8 O    1.762     9 N    1.198     6 C    0.823
     8   8 O    2.122 --     7 C    1.762     9 N    0.155
     9   7 N    3.546 --     7 C    1.198    11 C    1.046    10 C    0.969
                             8 O    0.155    12 O    0.106
    10   6 C    3.902 --     9 N    0.969    19 H    0.969    20 H    0.964
                            21 H    0.957
    11   6 C    3.949 --    12 O    1.737    13 N    1.077     9 N    1.046
    12   8 O    2.073 --    11 C    1.737    13 N    0.120     9 N    0.106
    13   7 N    3.492 --     6 C    1.148    11 C    1.077    14 C    0.984
                            12 O    0.120
    14   6 C    3.920 --    13 N    0.984    24 H    0.967    22 H    0.966
                            23 H    0.964
    15   1 H    0.973 --     1 C    0.931
    16   1 H    0.974 --     1 C    0.931
    17   1 H    0.967 --     1 C    0.946
    18   1 H    0.980 --     3 C    0.938
    19   1 H    0.984 --    10 C    0.969
    20   1 H    0.980 --    10 C    0.964
    21   1 H    0.978 --    10 C    0.957
    22   1 H    0.983 --    14 C    0.966
    23   1 H    0.982 --    14 C    0.964
    24   1 H    0.984 --    14 C    0.967
    25   1 H    0.938 --     4 N    0.885
 ---------------------------------------------------------------------------

molecular dipole:
                 x           y           z       tot (Debye)
 q only:        2.126      -0.849       0.441
   full:        2.117      -0.990       0.772       6.255

           -------------------------------------------------
          | TOTAL ENERGY              -42.137438446014 Eh   |
          | GRADIENT NORM               0.002509406920 Eh/α |
          | HOMO-LUMO GAP               1.686465237560 eV   |
           -------------------------------------------------

 * finished run on 2024/06/05 at 20:00:08.095
