   * xtb version 6.6.1 (8d0f1dd) compiled by 'conda@1efc2f54142f' on 2023-08-01
          program call               : xtb struc.xyz --opt loose --input .xc1 --gfn2

   ID    Z sym.   atoms
    1    6 C      1, 3, 5-7, 10, 11, 14
    2    7 N      2, 4, 9, 13
    3    8 O      8, 12
    4    1 H      15-25
constraining bond 7 10 to    5.0000000 Å, actual value:    2.4325910 Å

          :  Hamiltonian                  GFN2-xTB          :
 * total energy  :   -30.4905566 Eh     change       -0.2401990E-09 Eh
 * total energy  :   -34.7904066 Eh     change       -0.4299850E+01 Eh
 * total energy  :   -38.2242504 Eh     change       -0.3433844E+01 Eh
 * total energy  :   -40.3900771 Eh     change       -0.2165827E+01 Eh
 * total energy  :   -41.4392653 Eh     change       -0.1049188E+01 Eh
 * total energy  :   -41.6855225 Eh     change       -0.2462572E+00 Eh
 * total energy  :   -41.7274337 Eh     change       -0.4191118E-01 Eh
 * total energy  :   -41.7543040 Eh     change       -0.2687026E-01 Eh
 * total energy  :   -41.7703452 Eh     change       -0.1604120E-01 Eh
 * total energy  :   -41.8023236 Eh     change       -0.3197839E-01 Eh
 * total energy  :   -42.1933409 Eh     change       -0.3207071E-01 Eh
 * total energy  :   -42.1947999 Eh     change       -0.1459061E-02 Eh
 * total energy  :   -42.1969207 Eh     change       -0.2120764E-02 Eh
 * total energy  :   -42.1966092 Eh     change        0.3114816E-03 Eh
 * total energy  :   -42.1973275 Eh     change       -0.7182804E-03 Eh
 * total energy  :   -42.1975301 Eh     change       -0.2026520E-03 Eh
 * total energy  :   -42.1976993 Eh     change       -0.1691281E-03 Eh
 * total energy  :   -42.1977608 Eh     change       -0.6155452E-04 Eh
 * total energy  :   -42.1978104 Eh     change       -0.4963120E-04 Eh
   *** GEOMETRY OPTIMIZATION CONVERGED AFTER 61 ITERATIONS ***

 final structure:
================
25
 xtb: 6.6.1 (8d0f1dd)
C            3.93057004631079        0.55069377018928        0.01795978171058
N            2.71448504486399       -0.21461530942022        0.00534617891826
C            2.60290193307114       -1.54629068750344        0.00498506194321
N            1.28817036068583       -1.89166295984562        0.00339303583676
C            0.54545328523234       -0.74508075087196        0.00263815907645
C            1.44482725671941        0.31638611493412        0.00383165259884
C            0.98930046917295        1.68418848866646       -0.00993190980609
O            1.63629863801929        2.69556513128257       -0.02036129955350
N           -0.47365263856801        1.69816159446682       -0.01299490461537
C           -3.97303288764141        1.30538984603005       -0.00511801695080
C           -1.31272086902195        0.71461765342695       -0.00980017710666
O           -2.64310615776053        0.60317749917418       -0.02418982305411
N           -0.80182154090642       -0.62518197254363       -0.00090555638470
C           -1.61309995608639       -1.82676309836239        0.00076848664067
H            4.45422826613823        0.41853300936211        0.96671365755747
H            4.58717346502511        0.23259297149824       -0.79193146237532
H            3.68186512593299        1.60445629557638       -0.10469843242254
H            3.41652344543415       -2.24175969027591        0.00512115658612
H           -3.83612448579090        2.38502048080122        0.00214728147225
H           -4.47798026933344        0.96795422518611       -0.90477994055600
H           -4.46238130329959        0.95758017973297        0.89999575213116
H           -1.40743376496889       -2.41709196698695        0.89565359160010
H           -1.40748017085766       -2.42043081476086       -0.89191034042467
H           -2.66227711405311       -1.54925086269881       -0.00030912628558
H            0.93974533578373       -2.83795060545594       -0.00045118863833

          :  Hamiltonian                  GFN2-xTB          :
         :: total energy             -42.197810443485 Eh    ::
         :: gradient norm              0.002055451500 Eh/a0 ::
         :: HOMO-LUMO gap              2.907447262005 eV    ::
         :: SCC energy               -42.699285888942 Eh    ::
         :: -> dispersion             -0.021647480343 Eh    ::
         :: repulsion energy           0.500487607679 Eh    ::

    * Orbital Energies and Occupations

         #    Occupation            Energy/Eh            Energy/eV
      -------------------------------------------------------------
         1        2.0000           -0.8952750             -24.3617
       ...           ...                  ...                  ...
        25        1.9995           -0.6652431             -18.1022
        26        1.9994           -0.6609507             -17.9854
        27        1.9989           -0.6466326             -17.5958
        28        1.9979           -0.6326487             -17.2152
        29        1.9979           -0.6316463             -17.1880
        30        1.9967           -0.6213083             -16.9067
        31        1.9946           -0.6094769             -16.5847
        32        1.9933           -0.6044234             -16.4472
        33        1.9904           -0.5959017             -16.2153
        34        1.9635           -0.5638717             -15.3437
        35        1.9517           -0.5570835             -15.1590
        36        1.9209           -0.5450183             -14.8307
        37        1.8495           -0.5288320             -14.3903 (HOMO)
        38        0.2405           -0.4219853             -11.4828 (LUMO)
        39        0.0670           -0.3894070             -10.5963
        40        0.0390           -0.3761740             -10.2362
        41        0.0006           -0.2746113              -7.4726
        42        0.0005           -0.2727444              -7.4218
        43        0.0000           -0.1879312              -5.1139
        44        0.0000           -0.1722788              -4.6879
        45        0.0000           -0.1521562              -4.1404
        46        0.0000           -0.1078102              -2.9337
        47                         -0.0502398              -1.3671
        48                         -0.0356702              -0.9706
       ...                                ...                  ...
        67                          0.5781725              15.7329
      -------------------------------------------------------------
                  HL-Gap            0.1068467 Eh            2.9074 eV

     #   Z          covCN         q      C6AA      α(0)
     1   6 C        3.691    -0.089    22.397     6.772
     2   7 N        2.823     0.068    20.057     6.652
     3   6 C        3.034     0.040    27.064     8.533
     4   7 N        2.789    -0.069    22.580     7.057
     5   6 C        3.033     0.112    25.505     8.284
     6   6 C        3.104    -0.014    28.235     8.707
     7   6 C        2.752     0.289    22.109     7.699
     8   8 O        0.857    -0.308    19.923     5.984
     9   7 N        1.834    -0.268    27.802     7.814
    10   6 C        3.608     0.014    20.874     6.600
    11   6 C        2.705     0.303    21.855     7.652
    12   8 O        1.692    -0.246    18.078     5.740
    13   7 N        2.741    -0.051    22.222     7.001
    14   6 C        3.696    -0.072    22.061     6.719
    15   1 H        0.924     0.105     1.738     2.062
    16   1 H        0.925     0.103     1.758     2.073
    17   1 H        0.925     0.132     1.518     1.927
    18   1 H        0.926     0.117     1.638     2.001
    19   1 H        0.925     0.105     1.737     2.061
    20   1 H        0.925     0.114     1.664     2.017
    21   1 H        0.925     0.113     1.674     2.024
    22   1 H        0.924     0.083     1.953     2.185
    23   1 H        0.924     0.083     1.952     2.185
    24   1 H        0.925     0.116     1.650     2.009
    25   1 H        0.860     0.222     1.001     1.567

Wiberg/Mayer (AO) data.
largest (>0.10) Wiberg bond orders for each atom

     #   Z sym  total        # sym  WBO       # sym  WBO       # sym  WBO
 ---------------------------------------------------------------------------
     1   6 C    3.913 --     2 N    0.990    16 H    0.961    17 H    0.960
                            15 H    0.956
     2   7 N    3.611 --     3 C    1.343     6 C    1.150     1 C    0.990
     3   6 C    3.738 --     2 N    1.343     4 N    1.244    18 H    0.955
     4   7 N    3.538 --     3 C    1.244     5 C    1.185    25 H    0.922
     5   6 C    3.896 --     6 C    1.334    13 N    1.202     4 N    1.185
     6   6 C    3.847 --     5 C    1.334     2 N    1.150     7 C    1.079
     7   6 C    3.887 --     8 O    1.722     6 C    1.079     9 N    1.011
     8   8 O    1.997 --     7 C    1.722     9 N    0.105
     9   7 N    2.936 --    11 C    1.552     7 C    1.011    12 O    0.121
                             8 O    0.105
    10   6 C    3.841 --    19 H    0.976    21 H    0.966    20 H    0.966
                            12 O    0.885
    11   6 C    3.879 --     9 N    1.552    12 O    1.178    13 N    1.024
    12   8 O    2.291 --    11 C    1.178    10 C    0.885     9 N    0.121
    13   7 N    3.496 --     5 C    1.202    11 C    1.024    14 C    0.981
    14   6 C    3.928 --    13 N    0.981    22 H    0.967    23 H    0.967
                            24 H    0.966
    15   1 H    0.980 --     1 C    0.956
    16   1 H    0.982 --     1 C    0.961
    17   1 H    0.980 --     1 C    0.960
    18   1 H    0.985 --     3 C    0.955
    19   1 H    0.984 --    10 C    0.976
    20   1 H    0.980 --    10 C    0.966
    21   1 H    0.980 --    10 C    0.966
    22   1 H    0.986 --    14 C    0.967
    23   1 H    0.986 --    14 C    0.967
    24   1 H    0.984 --    14 C    0.966
    25   1 H    0.950 --     4 N    0.922
 ---------------------------------------------------------------------------

molecular dipole:
                 x           y           z       tot (Debye)
 q only:        0.442      -2.556       0.027
   full:        0.413      -3.155       0.037       8.088

           -------------------------------------------------
          | TOTAL ENERGY              -42.197810443485 Eh   |
          | GRADIENT NORM               0.002055451500 Eh/α |
          | HOMO-LUMO GAP               2.907447262005 eV   |
           -------------------------------------------------

 * finished run on 2024/06/05 at 19:58:50.579
