   * xtb version 6.6.1 (8d0f1dd) compiled by 'conda@1efc2f54142f' on 2023-08-01
          program call               : xtb xtbopt.xyz --opt crude --input .xc2 --gfn2

   ID    Z sym.   atoms
    1    6 C      1, 3, 5-7, 10, 11, 14
    2    7 N      2, 4, 9, 13
    3    8 O      8, 12
    4    1 H      15-25
########################################################################
[WARNING] Please study the warnings concerning your input carefully
-1- readin_getIntValue: could not parse ''
########################################################################

          :  Hamiltonian                  GFN2-xTB          :
 * total energy  :   -42.1987737 Eh     change       -0.1350031E-12 Eh
 * total energy  :   -42.2105214 Eh     change       -0.1174762E-01 Eh
 * total energy  :   -42.2197900 Eh     change       -0.9268652E-02 Eh
 * total energy  :   -42.2251644 Eh     change       -0.5374411E-02 Eh
 * total energy  :   -42.2296041 Eh     change       -0.4439730E-02 Eh
 * total energy  :   -42.2330768 Eh     change       -0.3472663E-02 Eh
 * total energy  :   -42.2351592 Eh     change       -0.2082375E-02 Eh
 * total energy  :   -42.2361189 Eh     change       -0.9596747E-03 Eh
 * total energy  :   -42.2363462 Eh     change       -0.2273847E-03 Eh
   *** GEOMETRY OPTIMIZATION CONVERGED AFTER 9 ITERATIONS ***

 final structure:
================
25
 xtb: 6.6.1 (8d0f1dd)
C            3.70535276870160        0.75267545748059        0.01770379165789
N            2.57567305444153       -0.13838394021718        0.00575477335467
C            2.61742349946282       -1.47573851514718        0.00663393256454
N            1.35147830108041       -1.97053675927810        0.00367465494525
C            0.49118296586467       -0.91095236381971        0.00136622742915
C            1.25876177470234        0.24373847700284        0.00305020337893
C            0.62470892195351        1.56636302866493       -0.00877210547268
O            1.22871265201725        2.61561369513585       -0.01748268905912
N           -0.74453691666761        1.46422600093034       -0.01168626460483
C           -3.44379322606559        1.60722800660772       -0.00660813922109
C           -1.42834639923199        0.37139676001373       -0.00947726561283
O           -2.74172303322073        0.36715713273123       -0.01428802958184
N           -0.86758608195968       -0.90130245311284       -0.00407442858690
C           -1.63905890367607       -2.12664077642673       -0.00090373692748
H            4.24916739086413        0.66266093251562        0.95951409615241
H            4.38245897388051        0.51546084981281       -0.80358830615862
H            3.34207838730190        1.77652936331025       -0.08813596008443
H            3.50842806496252       -2.06803162815289        0.00812577528485
H           -2.75532520971452        2.44588164261327       -0.00936014409867
H           -4.07739744666313        1.63905570377878       -0.89090454308159
H           -4.06115611873351        1.63274005943313        0.88816538509069
H           -1.41217359171439       -2.71261741785466        0.89142720411410
H           -1.41833445116442       -2.71430330739746       -0.89371159225069
H           -2.69573605518992       -1.87401365948511        0.00238043799692
H            1.11017219287022       -2.94996774753731        0.00236834066945

          :  Hamiltonian                  GFN2-xTB          :
         :: total energy             -42.236346246960 Eh    ::
         :: gradient norm              0.007488358248 Eh/a0 ::
         :: HOMO-LUMO gap              3.003195751451 eV    ::
         :: SCC energy               -42.751760451972 Eh    ::
         :: -> dispersion             -0.022071919005 Eh    ::
         :: repulsion energy           0.515370086932 Eh    ::

    * Orbital Energies and Occupations

         #    Occupation            Energy/Eh            Energy/eV
      -------------------------------------------------------------
         1        2.0000           -0.8999030             -24.4876
       ...           ...                  ...                  ...
        25        1.9995           -0.6697590             -18.2251
        26        1.9995           -0.6688232             -18.1996
        27        1.9987           -0.6464748             -17.5915
        28        1.9980           -0.6369389             -17.3320
        29        1.9974           -0.6305106             -17.1571
        30        1.9963           -0.6220194             -16.9260
        31        1.9940           -0.6105805             -16.6147
        32        1.9929           -0.6066953             -16.5090
        33        1.9907           -0.6002315             -16.3331
        34        1.9611           -0.5657859             -15.3958
        35        1.9526           -0.5609822             -15.2651
        36        1.9281           -0.5508230             -14.9887
        37        1.8606           -0.5342316             -14.5372 (HOMO)
        38        0.2270           -0.4238662             -11.5340 (LUMO)
        39        0.0622           -0.3910026             -10.6397
        40        0.0426           -0.3817932             -10.3891
        41        0.0004           -0.2691319              -7.3235
        42        0.0000           -0.2001213              -5.4456
        43        0.0000           -0.1835074              -4.9935
        44        0.0000           -0.1442400              -3.9250
        45        0.0000           -0.1207838              -3.2867
        46                         -0.0710869              -1.9344
        47                         -0.0431032              -1.1729
        48                         -0.0338233              -0.9204
       ...                                ...                  ...
        67                          0.5450145              14.8306
      -------------------------------------------------------------
                  HL-Gap            0.1103654 Eh            3.0032 eV

     #   Z          covCN         q      C6AA      α(0)
     1   6 C        3.690    -0.090    22.419     6.776
     2   7 N        2.828     0.071    20.006     6.643
     3   6 C        3.046     0.040    27.059     8.532
     4   7 N        2.786    -0.067    22.538     7.051
     5   6 C        3.065     0.107    25.575     8.293
     6   6 C        3.109    -0.018    28.300     8.716
     7   6 C        2.772     0.290    22.078     7.695
     8   8 O        0.858    -0.334    20.405     6.056
     9   7 N        1.840    -0.275    27.979     7.839
    10   6 C        3.649     0.001    20.884     6.565
    11   6 C        2.777     0.294    22.014     7.685
    12   8 O        1.707    -0.197    17.293     5.615
    13   7 N        2.738    -0.044    22.090     6.981
    14   6 C        3.693    -0.072    22.065     6.721
    15   1 H        0.924     0.106     1.733     2.058
    16   1 H        0.924     0.104     1.752     2.070
    17   1 H        0.924     0.136     1.487     1.907
    18   1 H        0.927     0.118     1.626     1.994
    19   1 H        0.925     0.107     1.720     2.051
    20   1 H        0.925     0.104     1.750     2.069
    21   1 H        0.925     0.103     1.754     2.071
    22   1 H        0.924     0.087     1.908     2.160
    23   1 H        0.924     0.087     1.906     2.159
    24   1 H        0.925     0.117     1.638     2.002
    25   1 H        0.860     0.223     0.996     1.563

Wiberg/Mayer (AO) data.
largest (>0.10) Wiberg bond orders for each atom

     #   Z sym  total        # sym  WBO       # sym  WBO       # sym  WBO
 ---------------------------------------------------------------------------
     1   6 C    3.909 --     2 N    0.988    16 H    0.961    17 H    0.958
                            15 H    0.956
     2   7 N    3.621 --     3 C    1.341     6 C    1.165     1 C    0.988
     3   6 C    3.740 --     2 N    1.341     4 N    1.246    18 H    0.955
     4   7 N    3.538 --     3 C    1.246     5 C    1.187    25 H    0.922
     5   6 C    3.896 --     6 C    1.358     4 N    1.187    13 N    1.170
     6   6 C    3.840 --     5 C    1.358     2 N    1.165     7 C    1.032
     7   6 C    3.902 --     8 O    1.668     9 N    1.128     6 C    1.032
     8   8 O    1.939 --     7 C    1.668
     9   7 N    2.970 --    11 C    1.483     7 C    1.128    12 O    0.100
    10   6 C    3.856 --    19 H    0.964    20 H    0.962    21 H    0.962
                            12 O    0.932
    11   6 C    3.886 --     9 N    1.483    12 O    1.184    13 N    1.095
    12   8 O    2.325 --    11 C    1.184    10 C    0.932     9 N    0.100
    13   7 N    3.517 --     5 C    1.170    11 C    1.095    14 C    0.977
    14   6 C    3.925 --    13 N    0.977    22 H    0.968    24 H    0.968
                            23 H    0.967
    15   1 H    0.980 --     1 C    0.956
    16   1 H    0.982 --     1 C    0.961
    17   1 H    0.978 --     1 C    0.958
    18   1 H    0.985 --     3 C    0.955
    19   1 H    0.982 --    10 C    0.964
    20   1 H    0.979 --    10 C    0.962
    21   1 H    0.979 --    10 C    0.962
    22   1 H    0.986 --    14 C    0.968
    23   1 H    0.985 --    14 C    0.967
    24   1 H    0.984 --    14 C    0.968
    25   1 H    0.949 --     4 N    0.922
 ---------------------------------------------------------------------------

molecular dipole:
                 x           y           z       tot (Debye)
 q only:        0.877      -2.501       0.022
   full:        0.989      -3.218       0.029       8.557

           -------------------------------------------------
          | TOTAL ENERGY              -42.236346246960 Eh   |
          | GRADIENT NORM               0.007488358248 Eh/α |
          | HOMO-LUMO GAP               3.003195751451 eV   |
           -------------------------------------------------

 * finished run on 2024/06/05 at 19:58:50.941
