   * xtb version 6.6.1 (8d0f1dd) compiled by 'conda@1efc2f54142f' on 2023-08-01
          program call               : xtb struc.xyz --opt loose --input .xc1 --gfn2

   ID    Z sym.   atoms
    1    7 N      1, 17
    2    6 C      2-6, 8, 9, 11-16, 18-23, 25, 26, 28-33
    3    8 O      7, 10, 24, 27
    4    1 H      34-72
constraining bond 19 22 to    6.0000000 Å, actual value:    3.7864514 Å

          :  Hamiltonian                  GFN2-xTB          :
 * total energy  :   -98.5292564 Eh     change       -0.4035485E-08 Eh
 * total energy  :   -98.7654853 Eh     change       -0.2362289E+00 Eh
 * total energy  :   -98.8995502 Eh     change       -0.1340649E+00 Eh
 * total energy  :   -98.9706090 Eh     change       -0.7105880E-01 Eh
 * total energy  :   -99.0155550 Eh     change       -0.4494599E-01 Eh
 * total energy  :   -99.0538284 Eh     change       -0.3827342E-01 Eh
 * total energy  :   -99.0928275 Eh     change       -0.3899913E-01 Eh
 * total energy  :   -99.1250029 Eh     change       -0.3217538E-01 Eh
 * total energy  :   -99.1540743 Eh     change       -0.2907139E-01 Eh
 * total energy  :   -99.1866075 Eh     change       -0.3253316E-01 Eh
 * total energy  :   -99.2459235 Eh     change       -0.1152306E-03 Eh
 * total energy  :   -99.2460392 Eh     change       -0.1156330E-03 Eh
 * total energy  :   -99.2461325 Eh     change       -0.9336245E-04 Eh
 * total energy  :   -99.2462338 Eh     change       -0.1012206E-03 Eh
 * total energy  :   -99.2463576 Eh     change       -0.1238251E-03 Eh
 * total energy  :   -99.2464325 Eh     change       -0.7492148E-04 Eh
 * total energy  :   -99.2464975 Eh     change       -0.6500257E-04 Eh
 * total energy  :   -99.2465499 Eh     change       -0.5239809E-04 Eh
 * total energy  :   -99.2465884 Eh     change       -0.3853120E-04 Eh
   *** GEOMETRY OPTIMIZATION CONVERGED AFTER 36 ITERATIONS ***

 final structure:
================
72
 xtb: 6.6.1 (8d0f1dd)
N           -1.72111773518910        2.77764726359171        2.09489498881707
C           -1.81582684856402        1.99825337844959        1.12365477539827
C           -3.03369025650330        1.86482430901513        0.25007138650351
C           -3.58834985016519        0.45480723116392        0.36674035197336
C           -4.53507393316182       -0.00297973657664       -0.55205856798008
C           -5.07382017223319       -1.27613905101637       -0.46172449484850
O           -5.98460825331648       -1.79975039074896       -1.30746639556500
C           -6.50842487206726       -1.00102917841702       -2.34188775341506
C           -4.65951874607141       -2.13917488238670        0.58936260585613
O           -5.22742095954959       -3.36135010636469        0.59371676905005
C           -4.92171721118483       -4.25627037327445        1.63785811282385
C           -3.73160937432877       -1.67236811221163        1.50707940146260
C           -3.20449636419036       -0.39192080510033        1.39570706835481
C           -2.53749426955695        2.14240461918863       -1.19437229133720
C           -1.75471677785641        0.98878476815821       -1.84718053333355
C           -0.41607804568399        0.75108442314003       -1.25641594025587
N            0.07414726936655       -0.42054754093174       -0.92122665139374
C            1.53377976789364       -0.61624155697980       -0.72826414137680
C            2.06993953683766       -1.26530133538530       -1.92946186623228
C            4.91308734756175        0.72017625692613       -0.67598246973986
C            5.64984024610029        1.85971954752841       -0.78896605665166
C            6.97907501309606        1.80054949495373       -0.36044331284358
C            7.50228877705695        0.62119324735390        0.15225315968795
O            8.76557269003320        0.45498163419104        0.59551812322798
C            9.66258653294819        1.54027352529858        0.54162228721085
C            6.68738660125098       -0.54345066573179        0.24102980813557
O            7.28785292046214       -1.63596672440537        0.74641371229156
C            6.55827774568324       -2.83286202297633        0.86873495848056
C            5.36000110145917       -0.47408848038119       -0.18935179153519
C           -0.72512991835377       -1.62288917963240       -0.94399124707188
C           -4.17382344431541        2.86023235548808        0.61856642427288
C           -4.71216684625462        2.59717729301911        2.02301251269001
C           -3.75981688958006        4.32366728484461        0.49276573572331
H           -4.86517918149871        0.65212893921225       -1.34134311098944
H           -7.01459724454417       -0.11461160490444       -1.94787775033474
H           -7.23263256062253       -1.62951351449140       -2.85640527123074
H           -5.73014453480382       -0.69553961800362       -3.04899379159170
H           -5.19692000878420       -3.84370673992559        2.61309089704293
H           -5.51578698696473       -5.14688483284136        1.44243847641916
H           -3.85977718953905       -4.52301333269336        1.63997470651266
H           -3.41523168790766       -2.29620341214121        2.32696936197696
H           -2.50363988007370       -0.05380552258555        2.14318703146550
H           -3.39990724835405        2.35814975001669       -1.82446747844624
H           -1.91004120650614        3.03432382714918       -1.17979062035719
H           -2.35995434991098        0.08434722500537       -1.83820429806559
H           -1.59243446927183        1.27571755352247       -2.89393308272420
H           -0.99004008139996        1.35269848910473        0.77011308706345
H            0.26305668648523        1.59134285110676       -1.21879060789120
H            1.65609767508011       -1.22957692288891        0.16930895389011
H            1.98539255260162        0.36444113927355       -0.56052408355725
H            2.31538710383923       -0.67297798997727       -2.78956172721540
H            2.02337966395621       -2.33065500488594       -2.04136275054089
H            5.24985135763340        2.77688203045270       -1.18998428503633
H            7.58451764159961        2.68890009165523       -0.43995476845819
H            9.31305779469220        2.37986143625408        1.15048185760172
H            9.82335048958410        1.87547251266368       -0.48754840820512
H           10.59870336205379        1.16355986993764        0.94944002871466
H            7.25382788825091       -3.55865674752005        1.28666581870318
H            5.70791834514633       -2.71410082872226        1.54777521991966
H            6.20510868410966       -3.18887381743438       -0.10449127507042
H            4.71666618557941       -1.33826010776005       -0.14519023828586
H           -1.01466987686238       -1.89773597393124       -1.95982666958398
H           -1.62666618922082       -1.48189938183596       -0.34421131552053
H           -0.14563920049425       -2.43897058190978       -0.51954998131602
H           -4.98676427635054        2.67342550184483       -0.09293138245214
H           -3.93719999214753        2.78401335700152        2.75952715794151
H           -5.05998211275668        1.57222036437448        2.12654707197170
H           -5.54698626438972        3.26316135456620        2.22370500207892
H           -2.92844381843977        4.53750138708328        1.15733337495402
H           -3.48233823940951        4.58264812567963       -0.52544009565329
H           -4.59604261142047        4.95556333396977        0.78050075175544
H           -0.83771540358020        2.80931982721281        2.59438036866594

          :  Hamiltonian                  GFN2-xTB          :
         :: total energy             -99.246588440430 Eh    ::
         :: gradient norm              0.002300147048 Eh/a0 ::
         :: HOMO-LUMO gap              0.232530894495 eV    ::
         :: SCC energy              -100.628672353803 Eh    ::
         :: -> dispersion             -0.072594893048 Eh    ::
         :: repulsion energy           1.380640012563 Eh    ::

    * Orbital Energies and Occupations

         #    Occupation            Energy/Eh            Energy/eV
      -------------------------------------------------------------
         1        2.0000           -0.8108758             -22.0651
       ...           ...                  ...                  ...
        78        1.9981           -0.5297361             -14.4149
        79        1.9979           -0.5284710             -14.3804
        80        1.9971           -0.5235011             -14.2452
        81        1.9968           -0.5217231             -14.1968
        82        1.9953           -0.5155825             -14.0297
        83        1.9945           -0.5131289             -13.9629
        84        1.9935           -0.5104906             -13.8912
        85        1.9793           -0.4920056             -13.3882
        86        1.9713           -0.4867918             -13.2463
        87        1.9280           -0.4718546             -12.8398
        88        1.8615           -0.4609381             -12.5428
        89        1.8027           -0.4548310             -12.3766
        90        1.2542           -0.4280286             -11.6473 (HOMO)
        91        0.9900           -0.4194833             -11.4147 (LUMO)
        92        0.2286           -0.3873807             -10.5412
        93        0.0123           -0.3393197              -9.2334
        94        0.0033           -0.3182588              -8.6603
        95        0.0027           -0.3151669              -8.5761
        96        0.0024           -0.3130482              -8.5185
        97        0.0010           -0.2990649              -8.1380
        98        0.0000           -0.1926674              -5.2427
        99        0.0000           -0.1782745              -4.8511
       100                         -0.1374373              -3.7399
       101                         -0.0684248              -1.8619
       ...                                ...                  ...
       171                          0.5773265              15.7099
      -------------------------------------------------------------
                  HL-Gap            0.0085454 Eh            0.2325 eV

     #   Z          covCN         q      C6AA      α(0)
     1   7 N        1.774    -0.267    27.758     7.802
     2   6 C        2.828     0.101    25.748     8.315
     3   6 C        3.907     0.006    20.413     6.422
     4   6 C        2.974     0.002    27.984     8.677
     5   6 C        2.920    -0.081    30.015     8.984
     6   6 C        2.862     0.129    25.169     8.223
     7   8 O        1.706    -0.229    17.797     5.696
     8   6 C        3.644     0.027    20.453     6.501
     9   6 C        2.864     0.129    25.181     8.225
    10   8 O        1.706    -0.227    17.769     5.691
    11   6 C        3.645     0.026    20.467     6.502
    12   6 C        2.913    -0.074    29.848     8.959
    13   6 C        2.921    -0.052    29.295     8.876
    14   6 C        3.812    -0.064    21.718     6.633
    15   6 C        3.802    -0.070    21.846     6.654
    16   6 C        2.839     0.017    27.632     8.615
    17   7 N        2.732     0.014    21.016     6.809
    18   6 C        3.747    -0.007    20.773     6.501
    19   6 C        2.838    -0.135    31.447     9.190
    20   6 C        2.018    -0.069    32.891     9.262
    21   6 C        2.911    -0.026    28.650     8.777
    22   6 C        2.927    -0.061    29.521     8.910
    23   6 C        2.861     0.131    25.127     8.216
    24   8 O        1.706    -0.224    17.710     5.682
    25   6 C        3.644     0.025    20.490     6.506
    26   6 C        2.874     0.138    24.991     8.195
    27   8 O        1.706    -0.217    17.605     5.665
    28   6 C        3.645     0.027    20.455     6.500
    29   6 C        2.909    -0.059    29.462     8.900
    30   6 C        3.700    -0.069    21.980     6.705
    31   6 C        3.853    -0.007    20.668     6.466
    32   6 C        3.756    -0.118    22.823     6.812
    33   6 C        3.755    -0.120    22.849     6.816
    34   1 H        0.926     0.052     2.290     2.366
    35   1 H        0.924     0.055     2.264     2.353
    36   1 H        0.925     0.082     1.960     2.189
    37   1 H        0.924     0.047     2.358     2.401
    38   1 H        0.924     0.056     2.246     2.344
    39   1 H        0.925     0.082     1.960     2.189
    40   1 H        0.924     0.049     2.332     2.388
    41   1 H        0.926     0.054     2.272     2.357
    42   1 H        0.926     0.042     2.428     2.437
    43   1 H        0.925     0.062     2.180     2.309
    44   1 H        0.924     0.055     2.260     2.351
    45   1 H        0.925     0.066     2.128     2.281
    46   1 H        0.924     0.082     1.961     2.190
    47   1 H        0.922     0.007     2.939     2.681
    48   1 H        0.926     0.073     2.049     2.238
    49   1 H        0.924     0.064     2.158     2.297
    50   1 H        0.924     0.069     2.094     2.263
    51   1 H        0.926     0.045     2.380     2.412
    52   1 H        0.926     0.044     2.392     2.419
    53   1 H        0.926     0.062     2.173     2.305
    54   1 H        0.926     0.067     2.120     2.277
    55   1 H        0.924     0.056     2.252     2.347
    56   1 H        0.924     0.057     2.240     2.341
    57   1 H        0.925     0.083     1.947     2.182
    58   1 H        0.925     0.083     1.944     2.181
    59   1 H        0.924     0.052     2.295     2.369
    60   1 H        0.924     0.055     2.256     2.349
    61   1 H        0.926     0.060     2.202     2.321
    62   1 H        0.924     0.076     2.017     2.221
    63   1 H        0.924     0.078     1.996     2.209
    64   1 H        0.925     0.084     1.937     2.176
    65   1 H        0.924     0.038     2.481     2.463
    66   1 H        0.925     0.068     2.107     2.270
    67   1 H        0.925     0.036     2.509     2.477
    68   1 H        0.925     0.052     2.295     2.369
    69   1 H        0.925     0.063     2.161     2.299
    70   1 H        0.925     0.036     2.507     2.476
    71   1 H        0.925     0.055     2.258     2.350
    72   1 H        0.860     0.158     1.347     1.818

Wiberg/Mayer (AO) data.
largest (>0.10) Wiberg bond orders for each atom

     #   Z sym  total        # sym  WBO       # sym  WBO       # sym  WBO
 ---------------------------------------------------------------------------
     1   7 N    3.035 --     2 C    1.957    72 H    0.941
     2   6 C    3.933 --     1 N    1.957     3 C    0.993    47 H    0.905
     3   6 C    3.975 --     2 C    0.993     4 C    0.973    14 C    0.955
                            31 C    0.942
     4   6 C    3.947 --    13 C    1.411     5 C    1.369     3 C    0.973
     5   6 C    3.961 --     6 C    1.399     4 C    1.369    34 H    0.958
     6   6 C    3.903 --     5 C    1.399     9 C    1.221     7 O    1.100
     7   8 O    2.254 --     6 C    1.100     8 C    0.978
     8   6 C    3.931 --     7 O    0.978    36 H    0.977    37 H    0.973
                            35 H    0.973
     9   6 C    3.899 --    12 C    1.390     6 C    1.221    10 O    1.103
    10   8 O    2.253 --     9 C    1.103    11 C    0.977
    11   6 C    3.930 --    10 O    0.977    39 H    0.977    40 H    0.973
                            38 H    0.973
    12   6 C    3.961 --    13 C    1.404     9 C    1.390    41 H    0.963
    13   6 C    3.952 --     4 C    1.411    12 C    1.404    42 H    0.962
    14   6 C    3.975 --    15 C    0.981    44 H    0.972    43 H    0.968
                             3 C    0.955
    15   6 C    3.983 --    16 C    1.053    14 C    0.981    45 H    0.962
                            46 H    0.928
    16   6 C    3.689 --    17 N    1.476    15 C    1.053    48 H    0.955
    17   7 N    3.496 --    16 C    1.476    30 C    0.998    18 C    0.905
    18   6 C    3.945 --    19 C    1.072    49 H    0.961    50 H    0.961
                            17 N    0.905
    19   6 C    3.152 --    18 C    1.072    52 H    0.984    51 H    0.984
    20   6 C    3.053 --    21 C    1.458    29 C    1.446
    21   6 C    3.898 --    20 C    1.458    22 C    1.352    53 H    0.958
    22   6 C    3.895 --    23 C    1.392    21 C    1.352    54 H    0.953
    23   6 C    3.884 --    22 C    1.392    26 C    1.220    24 O    1.103
    24   8 O    2.236 --    23 C    1.103    25 C    0.976
    25   6 C    3.926 --    57 H    0.976    24 O    0.976    55 H    0.972
                            56 H    0.972
    26   6 C    3.837 --    29 C    1.333    23 C    1.220    27 O    1.106
    27   8 O    2.250 --    26 C    1.106    28 C    0.976
    28   6 C    3.927 --    27 O    0.976    58 H    0.976    59 H    0.973
                            60 H    0.972
    29   6 C    3.924 --    20 C    1.446    26 C    1.333    61 H    0.949
    30   6 C    3.955 --    17 N    0.998    64 H    0.976    62 H    0.966
                            63 H    0.961
    31   6 C    3.971 --    33 C    1.008    32 C    1.008    65 H    0.960
                             3 C    0.942
    32   6 C    3.978 --    31 C    1.008    67 H    0.982    68 H    0.981
                            66 H    0.974
    33   6 C    3.980 --    31 C    1.008    70 H    0.983    71 H    0.980
                            69 H    0.975
    34   1 H    0.996 --     5 C    0.958
    35   1 H    0.993 --     8 C    0.973
    36   1 H    0.993 --     8 C    0.977
    37   1 H    0.994 --     8 C    0.973
    38   1 H    0.992 --    11 C    0.973
    39   1 H    0.993 --    11 C    0.977
    40   1 H    0.993 --    11 C    0.973
    41   1 H    0.995 --    12 C    0.963
    42   1 H    0.998 --    13 C    0.962
    43   1 H    0.995 --    14 C    0.968
    44   1 H    0.996 --    14 C    0.972
    45   1 H    0.995 --    15 C    0.962
    46   1 H    0.975 --    15 C    0.928
    47   1 H    0.985 --     2 C    0.905
    48   1 H    0.994 --    16 C    0.955
    49   1 H    0.985 --    18 C    0.961
    50   1 H    0.986 --    18 C    0.961
    51   1 H    0.997 --    19 C    0.984
    52   1 H    0.997 --    19 C    0.984
    53   1 H    0.984 --    21 C    0.958
    54   1 H    0.983 --    22 C    0.953
    55   1 H    0.990 --    25 C    0.972
    56   1 H    0.990 --    25 C    0.972
    57   1 H    0.992 --    25 C    0.976
    58   1 H    0.992 --    28 C    0.976
    59   1 H    0.992 --    28 C    0.973
    60   1 H    0.991 --    28 C    0.972
    61   1 H    0.981 --    29 C    0.949
    62   1 H    0.986 --    30 C    0.966
    63   1 H    0.990 --    30 C    0.961
    64   1 H    0.992 --    30 C    0.976
    65   1 H    0.992 --    31 C    0.960
    66   1 H    0.991 --    32 C    0.974
    67   1 H    0.996 --    32 C    0.982
    68   1 H    0.994 --    32 C    0.981
    69   1 H    0.992 --    33 C    0.975
    70   1 H    0.997 --    33 C    0.983
    71   1 H    0.993 --    33 C    0.980
    72   1 H    0.969 --     1 N    0.941
 ---------------------------------------------------------------------------

molecular dipole:
                 x           y           z       tot (Debye)
 q only:        0.558      -0.101      -0.640
   full:        0.924      -0.174      -0.795       3.130

           -------------------------------------------------
          | TOTAL ENERGY              -99.246588440430 Eh   |
          | GRADIENT NORM               0.002300147048 Eh/α |
          | HOMO-LUMO GAP               0.232530894495 eV   |
           -------------------------------------------------

 * finished run on 2024/04/06 at 11:13:47.073
