   * xtb version 6.6.1 (8d0f1dd) compiled by 'conda@1efc2f54142f' on 2023-08-01
          program call               : xtb struc.xyz --opt loose --input .xc1 --gfn2

   ID    Z sym.   atoms
    1    6 C      1, 3, 5-7, 10, 11, 14
    2    7 N      2, 4, 9, 13
    3    8 O      8, 12
    4    1 H      15-25
constraining bond 4 18 to    2.6866700 Å, actual value:    2.1494719 Å

          :  Hamiltonian                  GFN2-xTB          :
 * total energy  :   -42.7631306 Eh     change       -0.6650680E-10 Eh
 * total energy  :   -44.8301711 Eh     change       -0.2067041E+01 Eh
 * total energy  :   -48.1433683 Eh     change       -0.3313197E+01 Eh
 * total energy  :   -24.3776916 Eh     change        0.2376568E+02 Eh
 * total energy  :   -49.3557083 Eh     change       -0.2497802E+02 Eh
 * total energy  :   -49.3257321 Eh     change        0.2997613E-01 Eh
 * total energy  :   -49.4689286 Eh     change       -0.1431964E+00 Eh
 * total energy  :   -49.4965906 Eh     change       -0.2766198E-01 Eh
 * total energy  :   -49.5131847 Eh     change       -0.1659409E-01 Eh
 * total energy  :   -49.5229210 Eh     change       -0.9736345E-02 Eh
 * total energy  :   -49.7430734 Eh     change       -0.3596526E-04 Eh
 * total energy  :   -49.7431213 Eh     change       -0.4781873E-04 Eh
 * total energy  :   -49.7431787 Eh     change       -0.5749313E-04 Eh
 * total energy  :   -49.7432328 Eh     change       -0.5409204E-04 Eh
 * total energy  :   -49.7432684 Eh     change       -0.3560967E-04 Eh
 * total energy  :   -49.7433098 Eh     change       -0.4138653E-04 Eh
 * total energy  :   -49.7433331 Eh     change       -0.2323028E-04 Eh
 * total energy  :   -49.7433842 Eh     change       -0.5111348E-04 Eh
 * total energy  :   -49.7434295 Eh     change       -0.4530186E-04 Eh
   *** GEOMETRY OPTIMIZATION CONVERGED AFTER 80 ITERATIONS ***

 final structure:
================
25
 xtb: 6.6.1 (8d0f1dd)
C            2.97147598008981        1.03987426563490        0.70536780365997
N            2.28143675581867       -0.02779288361851       -0.02441911294159
C            2.94418433829312       -0.87372940087651       -0.68579544547286
N            3.57084192991921       -1.68077473590868       -1.28947923311335
C            0.18737298861952       -1.25567336611999        0.19604243492492
C            0.85089629778392       -0.08440958327699        0.00136905491790
C            0.11399888966700        1.15634568416449       -0.24242496974543
O            0.63457170336568        2.22305303345428       -0.48678025317261
N           -1.25936941751305        1.00353920565108       -0.17380919677018
C           -2.09110358212378        2.18324782795151       -0.36303671568302
C           -1.94719479735349       -0.17479940973398        0.03118554442744
O           -3.14578075705600       -0.22955941078051        0.05733484796990
N           -1.15341963300135       -1.31887477988529        0.20945901417220
C           -1.83081295573417       -2.58256758944182        0.42247300775036
H            2.80492915917947        0.91197786206128        1.77460611010134
H            4.03559784062721        1.00291939616616        0.49416656904125
H            2.56695644416964        2.00105737803112        0.38665419577274
H            3.84404964476329       -2.01449583029636       -1.53448526737792
H           -1.43993982388485        3.04742581333712       -0.46883351537389
H           -2.70650999437090        2.06366369974275       -1.25461848252492
H           -2.75046988620791        2.30268309437271        0.49619451828081
H           -1.47321594919886       -3.05419442365229        1.33648180081722
H           -1.66438205125406       -3.25098644927368       -0.42271128417486
H           -2.89784943091785       -2.38191226956820        0.51025516597249
H            0.71416782041692       -2.18777858653363        0.35597502644365

          :  Hamiltonian                  GFN2-xTB          :
         :: total energy             -49.743429482447 Eh    ::
         :: gradient norm              0.003841833316 Eh/a0 ::
         :: HOMO-LUMO gap              2.607078570210 eV    ::
         :: SCC energy               -42.800687665952 Eh    ::
         :: -> dispersion             -0.021692869236 Eh    ::
         :: repulsion energy           1.625766030692 Eh    ::

    * Orbital Energies and Occupations

         #    Occupation            Energy/Eh            Energy/eV
      -------------------------------------------------------------
         1        2.0000           -0.8928499             -24.2957
       ...           ...                  ...                  ...
        25        2.0000           -0.6695762             -18.2201
        26        2.0000           -0.6651995             -18.1010
        27        1.9999           -0.6530290             -17.7698
        28        1.9998           -0.6426181             -17.4865
        29        1.9996           -0.6304695             -17.1559
        30        1.9993           -0.6221241             -16.9289
        31        1.9990           -0.6176706             -16.8077
        32        1.9982           -0.6078879             -16.5415
        33        1.9967           -0.5984664             -16.2851
        34        1.9827           -0.5720203             -15.5655
        35        1.9662           -0.5612387             -15.2721
        36        1.9640           -0.5602333             -15.2447
        37        1.9354           -0.5507429             -14.9865 (HOMO)
        38        0.1319           -0.4549345             -12.3794 (LUMO)
        39        0.0233           -0.4265910             -11.6081
        40        0.0034           -0.3961290             -10.7792
        41        0.0007           -0.3706031             -10.0846
        42        0.0000           -0.2920837              -7.9480
        43                         -0.2269768              -6.1764
        44                         -0.1631225              -4.4388
        45                         -0.1204820              -3.2785
        46                         -0.0650485              -1.7701
        47                         -0.0505495              -1.3755
        48                         -0.0149262              -0.4062
       ...                                ...                  ...
        67                          4.2257576             114.9887
      -------------------------------------------------------------
                  HL-Gap            0.0958084 Eh            2.6071 eV

     #   Z          covCN         q      C6AA      α(0)
     1   6 C        3.710    -0.085    22.260     6.743
     2   7 N        2.731     0.071    20.007     6.643
     3   6 C        1.908     0.184    26.708     8.346
     4   7 N        1.774    -0.130    24.563     7.339
     5   6 C        2.856     0.019    27.574     8.607
     6   6 C        2.926    -0.015    28.392     8.738
     7   6 C        2.770     0.270    22.439     7.758
     8   8 O        0.858    -0.381    21.296     6.187
     9   7 N        2.743    -0.074    22.670     7.071
    10   6 C        3.709    -0.061    21.822     6.676
    11   6 C        2.725     0.316    21.630     7.614
    12   8 O        0.859    -0.358    20.850     6.122
    13   7 N        2.744    -0.020    21.634     6.908
    14   6 C        3.702    -0.076    22.111     6.724
    15   1 H        0.925     0.104     1.746     2.066
    16   1 H        0.925     0.099     1.794     2.095
    17   1 H        0.924     0.144     1.434     1.873
    18   1 H        0.889     0.279     0.777     1.379
    19   1 H        0.925     0.113     1.673     2.023
    20   1 H        0.925     0.100     1.783     2.088
    21   1 H        0.925     0.102     1.771     2.081
    22   1 H        0.925     0.091     1.866     2.136
    23   1 H        0.924     0.092     1.862     2.134
    24   1 H        0.925     0.125     1.577     1.964
    25   1 H        0.925     0.089     1.885     2.147

Wiberg/Mayer (AO) data.
largest (>0.10) Wiberg bond orders for each atom

     #   Z sym  total        # sym  WBO       # sym  WBO       # sym  WBO
 ---------------------------------------------------------------------------
     1   6 C    3.886 --    16 H    0.975    15 H    0.966    17 H    0.946
                             2 N    0.920
     2   7 N    3.626 --     3 C    1.491     6 C    0.959     1 C    0.920
                             4 N    0.209
     3   6 C    3.821 --     4 N    2.223     2 N    1.491
     4   7 N    3.448 --     3 C    2.223    18 H    0.916     2 N    0.209
     5   6 C    3.946 --     6 C    1.548    13 N    1.276    25 H    0.952
     6   6 C    3.863 --     5 C    1.548     7 C    1.058     2 N    0.959
     7   6 C    3.955 --     8 O    1.667     9 N    1.123     6 C    1.058
     8   8 O    2.009 --     7 C    1.667     9 N    0.143
     9   7 N    3.558 --     7 C    1.123    11 C    1.118    10 C    0.971
                             8 O    0.143    12 O    0.135
    10   6 C    3.907 --     9 N    0.971    19 H    0.967    21 H    0.961
                            20 H    0.960
    11   6 C    3.959 --    12 O    1.699     9 N    1.118    13 N    1.051
    12   8 O    2.041 --    11 C    1.699     9 N    0.135    13 N    0.114
    13   7 N    3.597 --     5 C    1.276    11 C    1.051    14 C    0.978
                            12 O    0.114
    14   6 C    3.918 --    13 N    0.978    22 H    0.968    23 H    0.965
                            24 H    0.964
    15   1 H    0.987 --     1 C    0.966
    16   1 H    0.989 --     1 C    0.975
    17   1 H    0.977 --     1 C    0.946
    18   1 H    0.922 --     4 N    0.916
    19   1 H    0.985 --    10 C    0.967
    20   1 H    0.981 --    10 C    0.960
    21   1 H    0.982 --    10 C    0.961
    22   1 H    0.986 --    14 C    0.968
    23   1 H    0.984 --    14 C    0.965
    24   1 H    0.983 --    14 C    0.964
    25   1 H    0.991 --     5 C    0.952
 ---------------------------------------------------------------------------

molecular dipole:
                 x           y           z       tot (Debye)
 q only:        2.831      -1.725       0.006
   full:        3.106      -2.074      -0.028       9.493

           -------------------------------------------------
          | TOTAL ENERGY              -49.743429482447 Eh   |
          | GRADIENT NORM               0.003841833316 Eh/α |
          | HOMO-LUMO GAP               2.607078570210 eV   |
           -------------------------------------------------

 * finished run on 2024/06/05 at 19:58:33.809
