   * xtb version 6.6.1 (8d0f1dd) compiled by 'conda@1efc2f54142f' on 2023-08-01
          program call               : xtb xtbopt.xyz --opt crude --input .xc2 --gfn2

   ID    Z sym.   atoms
    1    6 C      1, 3, 5-7, 10, 11, 14
    2    7 N      2, 4, 9, 13
    3    8 O      8, 12
    4    1 H      15-25

          :  Hamiltonian                  GFN2-xTB          :
 * total energy  :   -42.0833037 Eh     change       -0.1082867E-10 Eh
   *** GEOMETRY OPTIMIZATION CONVERGED AFTER 1 ITERATIONS ***

 final structure:
================
25
 xtb: 6.6.1 (8d0f1dd)
C            3.17544847634253        0.88778671903065       -0.19506802469813
N            2.27161537277548       -0.08638305929669       -0.14294362843310
C            2.48793429024474       -1.42377955635390       -0.15837794667197
N            1.30267700334953       -2.08051125236256       -0.11730342345177
C            0.30218156029761       -1.15387026666948       -0.06991464109411
C            0.89323765449324        0.09468474622659       -0.08777920784507
C            0.11157139168608        1.31500194128451       -0.04309062544134
O            0.55955327148915        2.43551250234767       -0.04330466117972
N           -1.25140851262588        1.03060300796426        0.00436790208598
C           -2.17439848100439        2.15866786874425        0.04826878138949
C           -1.86700642646368       -0.20572030448194        0.01831284703783
O           -3.05622294287304       -0.33843679557195        0.06068894507937
N           -1.02255074186240       -1.34356477166234       -0.01923106392249
C           -1.62027053483343       -2.66323941727582        0.00162571007184
H            3.92859415398480        3.27927942040095        1.33421178068653
H            4.22029021738958        0.64216602635555       -0.22701545578670
H            2.82690625748945        1.90648990017810       -0.20758443527754
H            3.44928502079027       -1.89250030070780       -0.20856772435862
H           -1.59036572256997        3.07483665251802        0.06740395574701
H           -2.82051690032487        2.13961795580078       -0.82879719392740
H           -2.79952555398263        2.08578775306422        0.93737814873956
H           -1.30139027980480       -3.21452527928450        0.88663270516823
H           -1.36035343668086       -3.21568021059440       -0.90154385058724
H           -2.70119135343565       -2.52910077912168        0.03721228747194
H            1.19633773022918       -3.08488395893251       -0.11440956290264

          :  Hamiltonian                  GFN2-xTB          :
         :: total energy             -42.083303711835 Eh    ::
         :: gradient norm              0.003253942882 Eh/a0 ::
         :: HOMO-LUMO gap              0.261138800503 eV    ::
         :: SCC energy               -42.607580290197 Eh    ::
         :: -> dispersion             -0.022856394446 Eh    ::
         :: repulsion energy           0.524173339653 Eh    ::

    * Orbital Energies and Occupations

         #    Occupation            Energy/Eh            Energy/eV
      -------------------------------------------------------------
         1        2.0000           -0.9121603             -24.8211
       ...           ...                  ...                  ...
        25        2.0000           -0.6645860             -18.0843
        26        2.0000           -0.6615432             -18.0015
        27        2.0000           -0.6528846             -17.7659
        28        2.0000           -0.6412057             -17.4481
        29        2.0000           -0.6272226             -17.0676
        30        2.0000           -0.6226028             -16.9419
        31        2.0000           -0.6154861             -16.7482
        32        1.9999           -0.5933940             -16.1471
        33        1.9990           -0.5738467             -15.6152
        34        1.9923           -0.5578278             -15.1793
        35        1.9914           -0.5569238             -15.1547
        36        1.9890           -0.5549915             -15.1021
        37        1.3082           -0.5188654             -14.1190 (HOMO)
        38        0.7202           -0.5092688             -13.8579 (LUMO)
        39        0.0000           -0.4097188             -11.1490
        40        0.0000           -0.4002780             -10.8921
        41                         -0.3643222              -9.9137
        42                         -0.2817134              -7.6658
        43                         -0.2029224              -5.5218
        44                         -0.1870056              -5.0887
        45                         -0.1419273              -3.8620
        46                         -0.1107351              -3.0133
        47                         -0.0849890              -2.3127
        48                         -0.0485689              -1.3216
       ...                                ...                  ...
        67                          0.5646242              15.3642
      -------------------------------------------------------------
                  HL-Gap            0.0095967 Eh            0.2611 eV

     #   Z          covCN         q      C6AA      α(0)
     1   6 C        2.789    -0.065    29.590     8.911
     2   7 N        2.813     0.130    19.019     6.477
     3   6 C        3.035     0.032    27.244     8.561
     4   7 N        2.782    -0.055    22.309     7.015
     5   6 C        3.026     0.120    25.337     8.257
     6   6 C        3.108    -0.043    28.910     8.809
     7   6 C        2.764     0.275    22.345     7.741
     8   8 O        0.858    -0.376    21.200     6.173
     9   7 N        2.746    -0.087    22.926     7.111
    10   6 C        3.711    -0.061    21.820     6.675
    11   6 C        2.729     0.318    21.593     7.608
    12   8 O        0.859    -0.358    20.860     6.124
    13   7 N        2.739    -0.058    22.359     7.023
    14   6 C        3.696    -0.072    22.059     6.719
    15   1 H        0.000     0.094     4.598     3.921
    16   1 H        0.926     0.111     1.691     2.033
    17   1 H        0.926     0.143     1.437     1.874
    18   1 H        0.926     0.123     1.587     1.970
    19   1 H        0.925     0.111     1.689     2.032
    20   1 H        0.925     0.097     1.816     2.107
    21   1 H        0.925     0.097     1.811     2.104
    22   1 H        0.924     0.082     1.958     2.188
    23   1 H        0.925     0.082     1.958     2.188
    24   1 H        0.925     0.129     1.546     1.945
    25   1 H        0.860     0.230     0.966     1.540

Wiberg/Mayer (AO) data.
largest (>0.10) Wiberg bond orders for each atom

     #   Z sym  total        # sym  WBO       # sym  WBO       # sym  WBO
 ---------------------------------------------------------------------------
     1   6 C    3.418 --     2 N    1.328    16 H    0.967    17 H    0.947
     2   7 N    3.766 --     1 C    1.328     3 C    1.246     6 C    1.092
     3   6 C    3.670 --     4 N    1.265     2 N    1.246    18 H    0.954
     4   7 N    3.526 --     3 C    1.265     5 C    1.177    25 H    0.918
     5   6 C    3.947 --     6 C    1.364    13 N    1.229     4 N    1.177
     6   6 C    3.879 --     5 C    1.364     2 N    1.092     7 C    1.073
     7   6 C    3.965 --     8 O    1.694     9 N    1.103     6 C    1.073
     8   8 O    2.052 --     7 C    1.694     9 N    0.150
     9   7 N    3.560 --    11 C    1.129     7 C    1.103    10 C    0.968
                             8 O    0.150    12 O    0.141
    10   6 C    3.917 --    19 H    0.970     9 N    0.968    21 H    0.966
                            20 H    0.965
    11   6 C    3.960 --    12 O    1.717     9 N    1.129    13 N    1.023
    12   8 O    2.075 --    11 C    1.717     9 N    0.141    13 N    0.121
    13   7 N    3.550 --     5 C    1.229    11 C    1.023    14 C    0.975
                            12 O    0.121
    14   6 C    3.925 --    13 N    0.975    23 H    0.971    22 H    0.970
                            24 H    0.963
    15   1 H    0.078
    16   1 H    0.987 --     1 C    0.967
    17   1 H    0.979 --     1 C    0.947
    18   1 H    0.984 --     3 C    0.954
    19   1 H    0.987 --    10 C    0.970
    20   1 H    0.986 --    10 C    0.965
    21   1 H    0.987 --    10 C    0.966
    22   1 H    0.989 --    14 C    0.970
    23   1 H    0.989 --    14 C    0.971
    24   1 H    0.983 --    14 C    0.963
    25   1 H    0.947 --     4 N    0.918
 ---------------------------------------------------------------------------

molecular dipole:
                 x           y           z       tot (Debye)
 q only:        2.816      -1.860       0.032
   full:        3.113      -2.358       0.022       9.926

           -------------------------------------------------
          | TOTAL ENERGY              -42.083303711835 Eh   |
          | GRADIENT NORM               0.003253942882 Eh/α |
          | HOMO-LUMO GAP               0.261138800503 eV   |
           -------------------------------------------------

 * finished run on 2024/06/05 at 19:57:55.531
