   * xtb version 6.6.1 (8d0f1dd) compiled by 'conda@1efc2f54142f' on 2023-08-01
          program call               : xtb struc.xyz --opt loose --input .xc1 --gfn2

   ID    Z sym.   atoms
    1    7 N      1, 17
    2    6 C      2-6, 8, 9, 11-16, 18-23, 25, 26, 28-33
    3    8 O      7, 10, 24, 27
    4    1 H      34-72
constraining bond 24 25 to    3.7600000 Å, actual value:    1.4085938 Å

          :  Hamiltonian                  GFN2-xTB          :
 * total energy  :   -98.4168904 Eh     change       -0.4035485E-08 Eh
 * total energy  :   -98.5937238 Eh     change       -0.1768334E+00 Eh
 * total energy  :   -98.8001408 Eh     change       -0.2064170E+00 Eh
 * total energy  :   -99.0039350 Eh     change       -0.2037942E+00 Eh
 * total energy  :   -99.1092242 Eh     change       -0.1052892E+00 Eh
 * total energy  :   -99.1530584 Eh     change       -0.4383420E-01 Eh
 * total energy  :   -99.1942743 Eh     change       -0.4121594E-01 Eh
 * total energy  :   -99.2220570 Eh     change       -0.2778273E-01 Eh
 * total energy  :   -99.2442447 Eh     change       -0.2218769E-01 Eh
 * total energy  :   -99.2621186 Eh     change       -0.1787386E-01 Eh
 * total energy  :   -99.2904063 Eh     change       -0.2610323E-03 Eh
 * total energy  :   -99.2906696 Eh     change       -0.2633311E-03 Eh
 * total energy  :   -99.2909307 Eh     change       -0.2610728E-03 Eh
 * total energy  :   -99.2912333 Eh     change       -0.3026361E-03 Eh
 * total energy  :   -99.2914688 Eh     change       -0.2355119E-03 Eh
 * total energy  :   -99.2915418 Eh     change       -0.7298755E-04 Eh
 * total energy  :   -99.2916137 Eh     change       -0.7190514E-04 Eh
 * total energy  :   -99.2916920 Eh     change       -0.7825708E-04 Eh
 * total energy  :   -99.2917333 Eh     change       -0.4130539E-04 Eh
   *** GEOMETRY OPTIMIZATION CONVERGED AFTER 27 ITERATIONS ***

 final structure:
================
72
 xtb: 6.6.1 (8d0f1dd)
N           -1.89091330973677        2.79887304012153        2.22659226342830
C           -1.84080716936137        2.12808892193368        1.17553484811891
C           -2.99468890465987        1.92104373555846        0.23363461734369
C           -3.47019448310237        0.47813175147774        0.31938437028794
C           -4.42139195572474        0.00904977354052       -0.58884698758373
C           -4.89902124956183       -1.28982878568318       -0.53143256087628
O           -5.82520010908030       -1.81666655700719       -1.35618542473373
C           -6.45883797273045       -0.98933892659317       -2.30380400706683
C           -4.39979733325230       -2.17637400668818        0.46238594349113
O           -4.91052321933828       -3.42195119040495        0.43527584547919
C           -4.52382170427469       -4.34601944787706        1.42580156504968
C           -3.45626356006350       -1.70391489559576        1.36089700857904
C           -3.00136899330415       -0.39282755447092        1.29129635387636
C           -2.44621228321542        2.21143093352501       -1.18797905350058
C           -1.51563359939006        1.11915165155381       -1.74645888352820
C           -0.18151408750615        1.09276247344514       -1.10642520227007
N            0.46470594999659        0.00232299616340       -0.71931981533584
C            1.83927988904726        0.07544225809569       -0.28334043651948
C            2.81589280321224       -0.40540737645624       -1.37639292185621
C            4.22242458213404       -0.33218599348212       -0.86094212184700
C            4.96597905688742        0.84809286739514       -0.97894073883579
C            6.22986612839315        0.94354454299601       -0.46794735259951
C            6.86369039961971       -0.14739998343730        0.21855071100810
O            7.99980042952705       -0.07140754226925        0.69742752902785
C            9.84004136977158        3.10014276153520       -0.12382099029019
C            6.06358337660497       -1.37702141222489        0.31515706554358
O            6.68653688829685       -2.37991771248894        0.93910650559056
C            6.04627152940653       -3.62573069772576        1.07661332178355
C            4.78553983189147       -1.42749935631498       -0.21106537070876
C           -0.14768288718431       -1.30470455797523       -0.75413504851590
C           -4.20413236427913        2.85586834751133        0.53679850605313
C           -4.84119997481342        2.52636900458005        1.88454824013987
C           -3.84385103671757        4.33780196003550        0.48396245533397
H           -4.80656354190932        0.67528661627232       -1.34266138184229
H           -6.96619652638664       -0.14694615322525       -1.82421653756990
H           -7.19616041616848       -1.62104928742059       -2.79513883992950
H           -5.75055886612852       -0.61542097858636       -3.05017871614064
H           -4.76994321368973       -3.98534131953951        2.42871946106962
H           -5.09178099485442       -5.25070358318892        1.21822276395978
H           -3.45367352438262       -4.56974531753386        1.36964240047581
H           -3.07472021405917       -2.34708889567226        2.13726333536412
H           -2.29159862830816       -0.05320243819754        2.02969689383621
H           -3.28674888958944        2.31951535203569       -1.87249597054622
H           -1.91074800545472        3.16142457885412       -1.17159744069416
H           -2.01103433566625        0.15156895990669       -1.68828865750257
H           -1.36047504559059        1.35207638516006       -2.80795068655628
H           -0.91888242227238        1.64103254345532        0.79878348594517
H            0.37728211286652        2.01755826691558       -1.08606068052121
H            1.96365807343154       -0.54431846470629        0.60899229898394
H            2.08370763961103        1.10628100374400       -0.01933468586074
H            2.70002658841954        0.22984801809416       -2.25605465906938
H            2.57336089382019       -1.43147798412002       -1.65480978517134
H            4.53472911826986        1.69462226310156       -1.49317287942285
H            6.80735295203276        1.85006891981591       -0.55915091304721
H            9.17338658649136        3.72543612048442        0.43364079558086
H            9.71994266295600        2.99716336930026       -1.18230523574779
H           10.62311592489272        2.57192598370077        0.37933942641539
H            6.75906153738999       -4.26659748476610        1.59102261645246
H            5.13391414321743       -3.54201299190670        1.67580031365590
H            5.80325023037151       -4.05819697729665        0.10114069059339
H            4.20653466554330       -2.33650163630608       -0.13285727897037
H           -0.30931943439855       -1.63834543817754       -1.78132717828163
H           -1.10858407876238       -1.28978350335387       -0.23361629447587
H            0.50339020628845       -2.01894251830369       -0.25649064491310
H           -4.94900498243947        2.66244914931625       -0.24335621321910
H           -4.13718254820716        2.72200714231626        2.68694578679942
H           -5.14862047009840        1.48444694790301        1.93064240652355
H           -5.71905378098255        3.14934654648528        2.03411837130249
H           -3.08226956224607        4.56951092410158        1.22231745235943
H           -3.49283184492552        4.63620646883605       -0.50043250051187
H           -4.72752423379159        4.92718582360747        0.71401366502690
H           -1.04327821578249        2.89493208861955        2.77652962418053

          :  Hamiltonian                  GFN2-xTB          :
         :: total energy             -99.291733301521 Eh    ::
         :: gradient norm              0.002276299126 Eh/a0 ::
         :: HOMO-LUMO gap              0.365133802866 eV    ::
         :: SCC energy              -100.677038546291 Eh    ::
         :: -> dispersion             -0.073399309232 Eh    ::
         :: repulsion energy           1.384038930636 Eh    ::

    * Orbital Energies and Occupations

         #    Occupation            Energy/Eh            Energy/eV
      -------------------------------------------------------------
         1        2.0000           -0.8153848             -22.1878
       ...           ...                  ...                  ...
        78        1.9980           -0.5345824             -14.5467
        79        1.9978           -0.5333403             -14.5129
        80        1.9972           -0.5290983             -14.3975
        81        1.9971           -0.5284988             -14.3812
        82        1.9952           -0.5207802             -14.1712
        83        1.9943           -0.5179775             -14.0949
        84        1.9933           -0.5153690             -14.0239
        85        1.9786           -0.4969497             -13.5227
        86        1.9626           -0.4879889             -13.2789
        87        1.9304           -0.4779087             -13.0046
        88        1.8551           -0.4656699             -12.6715
        89        1.8273           -0.4626443             -12.5892
        90        1.2609           -0.4337527             -11.8030 (HOMO)
        91        0.8446           -0.4203342             -11.4379 (LUMO)
        92        0.3583           -0.4011951             -10.9171
        93        0.0134           -0.3461715              -9.4198
        94        0.0031           -0.3231234              -8.7926
        95        0.0026           -0.3203039              -8.7159
        96        0.0012           -0.3080350              -8.3821
        97        0.0007           -0.2999789              -8.1628
        98        0.0000           -0.1976451              -5.3782
        99        0.0000           -0.1857008              -5.0532
       100                         -0.1427879              -3.8855
       101                         -0.0750754              -2.0429
       ...                                ...                  ...
       171                          0.6081297              16.5481
      -------------------------------------------------------------
                  HL-Gap            0.0134184 Eh            0.3651 eV

     #   Z          covCN         q      C6AA      α(0)
     1   7 N        1.774    -0.263    27.655     7.787
     2   6 C        2.826     0.101    25.748     8.315
     3   6 C        3.907     0.007    20.410     6.421
     4   6 C        2.974     0.003    27.949     8.672
     5   6 C        2.920    -0.080    29.989     8.980
     6   6 C        2.862     0.131    25.138     8.218
     7   8 O        1.706    -0.227    17.759     5.690
     8   6 C        3.644     0.026    20.467     6.503
     9   6 C        2.864     0.130    25.160     8.222
    10   8 O        1.706    -0.225    17.736     5.686
    11   6 C        3.645     0.026    20.475     6.503
    12   6 C        2.913    -0.074    29.857     8.960
    13   6 C        2.921    -0.053    29.321     8.880
    14   6 C        3.812    -0.065    21.745     6.637
    15   6 C        3.802    -0.070    21.833     6.652
    16   6 C        2.843     0.010    27.775     8.637
    17   7 N        2.729     0.015    20.994     6.805
    18   6 C        3.756    -0.017    20.924     6.522
    19   6 C        3.807    -0.070    21.826     6.650
    20   6 C        2.969     0.004    27.938     8.670
    21   6 C        2.912    -0.042    29.054     8.839
    22   6 C        2.909    -0.061    29.512     8.908
    23   6 C        2.828     0.201    23.728     7.982
    24   8 O        0.858    -0.355    20.804     6.115
    25   6 C        2.779    -0.108    30.720     9.078
    26   6 C        2.857     0.130    25.151     8.220
    27   8 O        1.706    -0.194    17.237     5.605
    28   6 C        3.646     0.024    20.500     6.507
    29   6 C        2.910    -0.079    29.984     8.979
    30   6 C        3.700    -0.072    22.041     6.714
    31   6 C        3.853    -0.007    20.673     6.467
    32   6 C        3.756    -0.119    22.844     6.815
    33   6 C        3.755    -0.119    22.829     6.813
    34   1 H        0.926     0.053     2.277     2.360
    35   1 H        0.924     0.055     2.254     2.348
    36   1 H        0.925     0.083     1.948     2.183
    37   1 H        0.924     0.049     2.334     2.389
    38   1 H        0.924     0.057     2.238     2.339
    39   1 H        0.925     0.083     1.949     2.183
    40   1 H        0.924     0.049     2.330     2.387
    41   1 H        0.926     0.053     2.278     2.360
    42   1 H        0.926     0.039     2.458     2.452
    43   1 H        0.925     0.062     2.180     2.309
    44   1 H        0.924     0.055     2.259     2.351
    45   1 H        0.925     0.067     2.120     2.277
    46   1 H        0.924     0.083     1.951     2.184
    47   1 H        0.922     0.008     2.922     2.673
    48   1 H        0.926     0.073     2.057     2.243
    49   1 H        0.924     0.069     2.097     2.265
    50   1 H        0.924     0.069     2.100     2.266
    51   1 H        0.924     0.057     2.238     2.339
    52   1 H        0.924     0.057     2.240     2.340
    53   1 H        0.926     0.047     2.359     2.402
    54   1 H        0.926     0.069     2.101     2.267
    55   1 H        0.926     0.084     1.938     2.177
    56   1 H        0.927     0.085     1.931     2.173
    57   1 H        0.927     0.095     1.827     2.114
    58   1 H        0.925     0.088     1.903     2.157
    59   1 H        0.924     0.053     2.279     2.361
    60   1 H        0.924     0.058     2.225     2.333
    61   1 H        0.926     0.044     2.401     2.423
    62   1 H        0.924     0.078     1.998     2.211
    63   1 H        0.924     0.081     1.972     2.196
    64   1 H        0.925     0.081     1.966     2.193
    65   1 H        0.924     0.039     2.465     2.456
    66   1 H        0.925     0.071     2.075     2.253
    67   1 H        0.925     0.036     2.499     2.472
    68   1 H        0.925     0.053     2.285     2.364
    69   1 H        0.925     0.060     2.200     2.319
    70   1 H        0.925     0.036     2.509     2.477
    71   1 H        0.925     0.056     2.243     2.342
    72   1 H        0.860     0.160     1.335     1.810

Wiberg/Mayer (AO) data.
largest (>0.10) Wiberg bond orders for each atom

     #   Z sym  total        # sym  WBO       # sym  WBO       # sym  WBO
 ---------------------------------------------------------------------------
     1   7 N    3.046 --     2 C    1.960    72 H    0.940
     2   6 C    3.929 --     1 N    1.960     3 C    0.994    47 H    0.895
     3   6 C    3.974 --     2 C    0.994     4 C    0.969    14 C    0.958
                            31 C    0.941
     4   6 C    3.946 --    13 C    1.411     5 C    1.369     3 C    0.969
     5   6 C    3.960 --     6 C    1.399     4 C    1.369    34 H    0.957
     6   6 C    3.902 --     5 C    1.399     9 C    1.218     7 O    1.104
     7   8 O    2.256 --     6 C    1.104     8 C    0.977
     8   6 C    3.930 --     7 O    0.977    36 H    0.976    35 H    0.973
                            37 H    0.973
     9   6 C    3.898 --    12 C    1.390     6 C    1.218    10 O    1.106
    10   8 O    2.254 --     9 C    1.106    11 C    0.977
    11   6 C    3.929 --    39 H    0.977    10 O    0.977    40 H    0.973
                            38 H    0.973
    12   6 C    3.960 --    13 C    1.403     9 C    1.390    41 H    0.964
    13   6 C    3.951 --     4 C    1.411    12 C    1.403    42 H    0.962
    14   6 C    3.972 --    15 C    0.981    44 H    0.972    43 H    0.969
                             3 C    0.958
    15   6 C    3.986 --    16 C    1.060    14 C    0.981    45 H    0.961
                            46 H    0.926
    16   6 C    3.616 --    17 N    1.413    15 C    1.060    48 H    0.956
    17   7 N    3.494 --    16 C    1.413    30 C    0.997    18 C    0.988
    18   6 C    3.947 --    17 N    0.988    50 H    0.968    49 H    0.963
                            19 C    0.962
    19   6 C    3.976 --    20 C    1.013    51 H    0.971    52 H    0.971
                            18 C    0.962
    20   6 C    3.803 --    29 C    1.378    21 C    1.318    19 C    1.013
    21   6 C    3.944 --    22 C    1.540    20 C    1.318    53 H    0.963
    22   6 C    3.793 --    21 C    1.540    23 C    1.149    54 H    0.963
    23   6 C    3.880 --    24 O    1.593    22 C    1.149    26 C    1.047
    24   8 O    1.726 --    23 C    1.593
    25   6 C    2.971 --    55 H    0.991    56 H    0.991    57 H    0.989
    26   6 C    3.738 --    29 C    1.404    27 O    1.147    23 C    1.047
    27   8 O    2.258 --    26 C    1.147    28 C    0.974
    28   6 C    3.926 --    58 H    0.976    27 O    0.974    59 H    0.971
                            60 H    0.970
    29   6 C    3.944 --    26 C    1.404    20 C    1.378    61 H    0.958
    30   6 C    3.956 --    17 N    0.997    64 H    0.977    62 H    0.966
                            63 H    0.960
    31   6 C    3.970 --    33 C    1.009    32 C    1.008    65 H    0.959
                             3 C    0.941
    32   6 C    3.976 --    31 C    1.008    67 H    0.981    68 H    0.981
                            66 H    0.972
    33   6 C    3.981 --    31 C    1.009    70 H    0.983    71 H    0.980
                            69 H    0.976
    34   1 H    0.996 --     5 C    0.957
    35   1 H    0.993 --     8 C    0.973
    36   1 H    0.992 --     8 C    0.976
    37   1 H    0.993 --     8 C    0.973
    38   1 H    0.992 --    11 C    0.973
    39   1 H    0.992 --    11 C    0.977
    40   1 H    0.993 --    11 C    0.973
    41   1 H    0.995 --    12 C    0.964
    42   1 H    0.998 --    13 C    0.962
    43   1 H    0.995 --    14 C    0.969
    44   1 H    0.996 --    14 C    0.972
    45   1 H    0.995 --    15 C    0.961
    46   1 H    0.971 --    15 C    0.926
    47   1 H    0.986 --     2 C    0.895
    48   1 H    0.994 --    16 C    0.956
    49   1 H    0.990 --    18 C    0.963
    50   1 H    0.994 --    18 C    0.968
    51   1 H    0.994 --    19 C    0.971
    52   1 H    0.994 --    19 C    0.971
    53   1 H    0.992 --    21 C    0.963
    54   1 H    0.990 --    22 C    0.963
    55   1 H    0.993 --    25 C    0.991
    56   1 H    0.992 --    25 C    0.991
    57   1 H    0.990 --    25 C    0.989
    58   1 H    0.991 --    28 C    0.976
    59   1 H    0.989 --    28 C    0.971
    60   1 H    0.988 --    28 C    0.970
    61   1 H    0.993 --    29 C    0.958
    62   1 H    0.985 --    30 C    0.966
    63   1 H    0.987 --    30 C    0.960
    64   1 H    0.993 --    30 C    0.977
    65   1 H    0.991 --    31 C    0.959
    66   1 H    0.990 --    32 C    0.972
    67   1 H    0.996 --    32 C    0.981
    68   1 H    0.993 --    32 C    0.981
    69   1 H    0.993 --    33 C    0.976
    70   1 H    0.997 --    33 C    0.983
    71   1 H    0.993 --    33 C    0.980
    72   1 H    0.969 --     1 N    0.940
 ---------------------------------------------------------------------------

molecular dipole:
                 x           y           z       tot (Debye)
 q only:       -0.865       0.032      -1.149
   full:       -0.748      -0.150      -1.349       3.938

           -------------------------------------------------
          | TOTAL ENERGY              -99.291733301521 Eh   |
          | GRADIENT NORM               0.002276299126 Eh/α |
          | HOMO-LUMO GAP               0.365133802866 eV   |
           -------------------------------------------------

 * finished run on 2024/04/06 at 11:14:24.557
