   * xtb version 6.6.1 (8d0f1dd) compiled by 'conda@1efc2f54142f' on 2023-08-01
          program call               : xtb xtbopt.xyz --opt crude --input .xc2 --gfn2

   ID    Z sym.   atoms
    1    7 N      1, 17
    2    6 C      2-6, 8, 9, 11-16, 18-23, 25, 26, 28-33
    3    8 O      7, 10, 24, 27
    4    1 H      34-72

          :  Hamiltonian                  GFN2-xTB          :
 * total energy  :   -99.2917343 Eh     change        0.6536993E-12 Eh
 * total energy  :   -99.2917858 Eh     change       -0.5149848E-04 Eh
   *** GEOMETRY OPTIMIZATION CONVERGED AFTER 2 ITERATIONS ***

 final structure:
================
72
 xtb: 6.6.1 (8d0f1dd)
N           -1.89115093915625        2.80079269631155        2.22629652716919
C           -1.84137747666367        2.12864742607020        1.17626518262660
C           -2.99486260988041        1.92146237162955        0.23400483725549
C           -3.47020588703860        0.47846021274779        0.31937904228662
C           -4.42091200324387        0.00910829711146       -0.58922927256842
C           -4.89835114520146       -1.28986042653895       -0.53194470401773
O           -5.82396871916221       -1.81695265779533       -1.35719768975963
C           -6.45764601683940       -0.98971344820563       -2.30487783946415
C           -4.39954825455209       -2.17618047656355        0.46226056869485
O           -4.91024510036113       -3.42178760316952        0.43540909639044
C           -4.52418262811795       -4.34529443214066        1.42673000756163
C           -3.45638777025309       -1.70350295393834        1.36103399496415
C           -3.00166076474867       -0.39236044962725        1.29152257161509
C           -2.44593549676175        2.21211320119859       -1.18735446977221
C           -1.51519105091521        1.12003509417601       -1.74579192548558
C           -0.18136909254384        1.09300415124852       -1.10509350034619
N            0.46417387507838        0.00207394976933       -0.71837071236411
C            1.83890786900497        0.07414829390957       -0.28300048004481
C            2.81491150793326       -0.40638116974868       -1.37681710867438
C            4.22148782487184       -0.33215058377896       -0.86123820282271
C            4.96257102811297        0.84960621247369       -0.97957807290036
C            6.22704879281359        0.94632115477997       -0.47019313570998
C            6.86408997739316       -0.14335154828972        0.21514562134348
O            8.00124667659925       -0.06495220534833        0.69175680976278
C            9.83306999976383        3.08696407299041       -0.12046341645109
C            6.06509310154614       -1.37460744466496        0.31360233505395
O            6.68989307224888       -2.37665977909807        0.93789782720174
C            6.05294760443752       -3.62416734913127        1.07785589252776
C            4.78664874255167       -1.42665542452648       -0.21154211172495
C           -0.14829596071375       -1.30476103543549       -0.75542927110923
C           -4.20459322845607        2.85594768132268        0.53684305631298
C           -4.84181932732594        2.52626380327232        1.88447685822430
C           -3.84486350971359        4.33801357994380        0.48414118916120
H           -4.80584131778814        0.67523003817438       -1.34324028429924
H           -6.96492697808825       -0.14724085706940       -1.82536033202909
H           -7.19505276229045       -1.62141628972406       -2.79609845205987
H           -5.74940145689440       -0.61595995978027       -3.05136836130780
H           -4.77114882551198       -3.98408783937642        2.42925397261440
H           -5.09183111985628       -5.25018334515238        1.21922306879212
H           -3.45397447855031       -4.56891747920182        1.37155088457077
H           -3.07500632134490       -2.34654600651715        2.13755721196281
H           -2.29230983801572       -0.05258168868979        2.03024469817520
H           -3.28633770787094        2.31996753593761       -1.87195459551214
H           -1.91079496780799        3.16222007692277       -1.17086212223834
H           -2.01076663854646        0.15251862346022       -1.68804889770778
H           -1.35968856785180        1.35321178816154       -2.80714048435854
H           -0.91986890961379        1.64025156916919        0.80063110501659
H            0.37770693450155        2.01752665658697       -1.08407297667085
H            1.96388213296714       -0.54604504764876        0.60892886171489
H            2.08403353379072        1.10475037519146       -0.01879077748499
H            2.70004760932850        0.23021503924947       -2.25574681573025
H            2.57124508265894       -1.43215004754526       -1.65659176574215
H            4.52879909013444        1.69591570703499       -1.49295141045501
H            6.80346780659318        1.85331336982018       -0.56313374709590
H            9.17535027957535        3.72137891404877        0.43549715299608
H            9.72035488520321        2.99247386544114       -1.17986532774891
H           10.61355582665689        2.55737093129419        0.38221943487302
H            6.76673265950071       -4.26432267932789        1.59213529083881
H            5.14140298553595       -3.54159818510010        1.67862335208150
H            5.81013364042003       -4.05901353673362        0.10329055231300
H            4.20957831814555       -2.33683773107212       -0.13302214624057
H           -0.31032096552594       -1.63623285254175       -1.78316032050310
H           -1.10904078596108       -1.29070412115894       -0.23467660411724
H            0.50291023607360       -2.01983911619722       -0.25935709949682
H           -4.94925424352486        2.66224878950365       -0.24343287175954
H           -4.13813919517435        2.72236937262142        2.68702187743979
H           -5.14871201963971        1.48420220513578        1.93065170151428
H           -5.71998371560002        3.14880583710504        2.03377389864677
H           -3.08398036129238        4.57000231905966        1.22306058470585
H           -3.49319889598647        4.63651274526504       -0.49994700350933
H           -4.72890320121417        4.92703403934624        0.71346300583555
H           -1.04372524084713        2.89667329585579        2.77646107963704

          :  Hamiltonian                  GFN2-xTB          :
         :: total energy             -99.291785824099 Eh    ::
         :: gradient norm              0.001141101659 Eh/a0 ::
         :: HOMO-LUMO gap              0.365340510995 eV    ::
         :: SCC energy              -100.677354143548 Eh    ::
         :: -> dispersion             -0.073407887752 Eh    ::
         :: repulsion energy           1.384303347341 Eh    ::

    * Orbital Energies and Occupations

         #    Occupation            Energy/Eh            Energy/eV
      -------------------------------------------------------------
         1        2.0000           -0.8153635             -22.1872
       ...           ...                  ...                  ...
        78        1.9980           -0.5345674             -14.5463
        79        1.9978           -0.5333216             -14.5124
        80        1.9972           -0.5290543             -14.3963
        81        1.9970           -0.5284398             -14.3796
        82        1.9952           -0.5207606             -14.1706
        83        1.9943           -0.5179601             -14.0944
        84        1.9933           -0.5153533             -14.0235
        85        1.9786           -0.4969343             -13.5223
        86        1.9625           -0.4879575             -13.2780
        87        1.9303           -0.4778748             -13.0036
        88        1.8552           -0.4656576             -12.6712
        89        1.8276           -0.4626564             -12.5895
        90        1.2609           -0.4337347             -11.8025 (HOMO)
        91        0.8444           -0.4203087             -11.4372 (LUMO)
        92        0.3583           -0.4011776             -10.9166
        93        0.0134           -0.3460990              -9.4178
        94        0.0031           -0.3231094              -8.7923
        95        0.0026           -0.3202843              -8.7154
        96        0.0012           -0.3080389              -8.3822
        97        0.0007           -0.3000114              -8.1637
        98        0.0000           -0.1976250              -5.3776
        99        0.0000           -0.1857936              -5.0557
       100                         -0.1426460              -3.8816
       101                         -0.0750147              -2.0413
       ...                                ...                  ...
       171                          0.6074939              16.5308
      -------------------------------------------------------------
                  HL-Gap            0.0134260 Eh            0.3653 eV

     #   Z          covCN         q      C6AA      α(0)
     1   7 N        1.774    -0.263    27.655     7.787
     2   6 C        2.826     0.101    25.747     8.315
     3   6 C        3.907     0.007    20.410     6.421
     4   6 C        2.974     0.003    27.949     8.672
     5   6 C        2.920    -0.080    29.989     8.980
     6   6 C        2.862     0.131    25.138     8.218
     7   8 O        1.706    -0.227    17.760     5.690
     8   6 C        3.644     0.026    20.467     6.503
     9   6 C        2.864     0.130    25.160     8.222
    10   8 O        1.706    -0.225    17.737     5.686
    11   6 C        3.645     0.026    20.474     6.503
    12   6 C        2.913    -0.074    29.857     8.960
    13   6 C        2.921    -0.053    29.321     8.880
    14   6 C        3.812    -0.065    21.745     6.637
    15   6 C        3.802    -0.070    21.833     6.652
    16   6 C        2.843     0.010    27.776     8.637
    17   7 N        2.729     0.015    20.993     6.805
    18   6 C        3.756    -0.017    20.924     6.522
    19   6 C        3.807    -0.070    21.826     6.650
    20   6 C        2.969     0.004    27.937     8.670
    21   6 C        2.912    -0.042    29.053     8.839
    22   6 C        2.909    -0.061    29.511     8.908
    23   6 C        2.828     0.201    23.728     7.982
    24   8 O        0.858    -0.355    20.806     6.116
    25   6 C        2.780    -0.108    30.719     9.078
    26   6 C        2.857     0.130    25.152     8.220
    27   8 O        1.706    -0.194    17.239     5.606
    28   6 C        3.646     0.024    20.501     6.507
    29   6 C        2.910    -0.079    29.981     8.979
    30   6 C        3.700    -0.072    22.041     6.714
    31   6 C        3.853    -0.007    20.673     6.467
    32   6 C        3.756    -0.119    22.844     6.815
    33   6 C        3.755    -0.119    22.829     6.813
    34   1 H        0.926     0.053     2.277     2.360
    35   1 H        0.924     0.055     2.254     2.348
    36   1 H        0.925     0.083     1.948     2.183
    37   1 H        0.924     0.049     2.334     2.389
    38   1 H        0.924     0.057     2.238     2.339
    39   1 H        0.925     0.083     1.949     2.183
    40   1 H        0.924     0.049     2.331     2.387
    41   1 H        0.926     0.053     2.278     2.360
    42   1 H        0.926     0.039     2.458     2.452
    43   1 H        0.925     0.062     2.180     2.309
    44   1 H        0.924     0.055     2.259     2.351
    45   1 H        0.925     0.067     2.120     2.277
    46   1 H        0.924     0.083     1.951     2.184
    47   1 H        0.922     0.008     2.922     2.673
    48   1 H        0.926     0.073     2.057     2.243
    49   1 H        0.924     0.069     2.097     2.265
    50   1 H        0.924     0.069     2.100     2.266
    51   1 H        0.924     0.057     2.237     2.339
    52   1 H        0.924     0.056     2.241     2.341
    53   1 H        0.926     0.047     2.360     2.402
    54   1 H        0.926     0.069     2.101     2.267
    55   1 H        0.927     0.084     1.937     2.177
    56   1 H        0.927     0.085     1.930     2.173
    57   1 H        0.927     0.096     1.826     2.113
    58   1 H        0.925     0.087     1.904     2.158
    59   1 H        0.924     0.053     2.279     2.361
    60   1 H        0.924     0.058     2.225     2.333
    61   1 H        0.926     0.044     2.400     2.423
    62   1 H        0.924     0.078     1.998     2.211
    63   1 H        0.924     0.081     1.972     2.196
    64   1 H        0.925     0.081     1.966     2.193
    65   1 H        0.924     0.039     2.466     2.456
    66   1 H        0.925     0.071     2.075     2.253
    67   1 H        0.925     0.036     2.499     2.472
    68   1 H        0.925     0.053     2.285     2.364
    69   1 H        0.925     0.060     2.199     2.319
    70   1 H        0.925     0.036     2.509     2.477
    71   1 H        0.925     0.056     2.243     2.342
    72   1 H        0.860     0.160     1.334     1.810

Wiberg/Mayer (AO) data.
largest (>0.10) Wiberg bond orders for each atom

     #   Z sym  total        # sym  WBO       # sym  WBO       # sym  WBO
 ---------------------------------------------------------------------------
     1   7 N    3.046 --     2 C    1.960    72 H    0.940
     2   6 C    3.929 --     1 N    1.960     3 C    0.994    47 H    0.895
     3   6 C    3.974 --     2 C    0.994     4 C    0.969    14 C    0.958
                            31 C    0.941
     4   6 C    3.946 --    13 C    1.411     5 C    1.369     3 C    0.969
     5   6 C    3.960 --     6 C    1.399     4 C    1.369    34 H    0.957
     6   6 C    3.902 --     5 C    1.399     9 C    1.218     7 O    1.104
     7   8 O    2.256 --     6 C    1.104     8 C    0.977
     8   6 C    3.930 --     7 O    0.977    36 H    0.976    35 H    0.973
                            37 H    0.973
     9   6 C    3.898 --    12 C    1.390     6 C    1.218    10 O    1.106
    10   8 O    2.254 --     9 C    1.106    11 C    0.977
    11   6 C    3.929 --    39 H    0.977    10 O    0.977    40 H    0.973
                            38 H    0.973
    12   6 C    3.960 --    13 C    1.404     9 C    1.390    41 H    0.964
    13   6 C    3.951 --     4 C    1.411    12 C    1.404    42 H    0.962
    14   6 C    3.972 --    15 C    0.981    44 H    0.972    43 H    0.969
                             3 C    0.958
    15   6 C    3.986 --    16 C    1.060    14 C    0.981    45 H    0.961
                            46 H    0.926
    16   6 C    3.616 --    17 N    1.413    15 C    1.060    48 H    0.956
    17   7 N    3.494 --    16 C    1.413    30 C    0.997    18 C    0.988
    18   6 C    3.947 --    17 N    0.988    50 H    0.968    49 H    0.963
                            19 C    0.962
    19   6 C    3.976 --    20 C    1.013    51 H    0.971    52 H    0.971
                            18 C    0.962
    20   6 C    3.803 --    29 C    1.378    21 C    1.318    19 C    1.013
    21   6 C    3.944 --    22 C    1.540    20 C    1.318    53 H    0.963
    22   6 C    3.793 --    21 C    1.540    23 C    1.149    54 H    0.963
    23   6 C    3.880 --    24 O    1.593    22 C    1.149    26 C    1.047
    24   8 O    1.726 --    23 C    1.593
    25   6 C    2.971 --    55 H    0.991    56 H    0.991    57 H    0.989
    26   6 C    3.738 --    29 C    1.404    27 O    1.147    23 C    1.047
    27   8 O    2.257 --    26 C    1.147    28 C    0.974
    28   6 C    3.926 --    58 H    0.976    27 O    0.974    59 H    0.971
                            60 H    0.971
    29   6 C    3.944 --    26 C    1.404    20 C    1.378    61 H    0.958
    30   6 C    3.956 --    17 N    0.997    64 H    0.977    62 H    0.966
                            63 H    0.960
    31   6 C    3.970 --    33 C    1.009    32 C    1.008    65 H    0.959
                             3 C    0.941
    32   6 C    3.976 --    31 C    1.008    67 H    0.981    68 H    0.981
                            66 H    0.972
    33   6 C    3.981 --    31 C    1.009    70 H    0.983    71 H    0.980
                            69 H    0.976
    34   1 H    0.996 --     5 C    0.957
    35   1 H    0.993 --     8 C    0.973
    36   1 H    0.992 --     8 C    0.976
    37   1 H    0.993 --     8 C    0.973
    38   1 H    0.992 --    11 C    0.973
    39   1 H    0.992 --    11 C    0.977
    40   1 H    0.993 --    11 C    0.973
    41   1 H    0.995 --    12 C    0.964
    42   1 H    0.998 --    13 C    0.962
    43   1 H    0.995 --    14 C    0.969
    44   1 H    0.996 --    14 C    0.972
    45   1 H    0.995 --    15 C    0.961
    46   1 H    0.971 --    15 C    0.926
    47   1 H    0.985 --     2 C    0.895
    48   1 H    0.994 --    16 C    0.956
    49   1 H    0.990 --    18 C    0.963
    50   1 H    0.994 --    18 C    0.968
    51   1 H    0.994 --    19 C    0.971
    52   1 H    0.994 --    19 C    0.971
    53   1 H    0.992 --    21 C    0.963
    54   1 H    0.990 --    22 C    0.963
    55   1 H    0.993 --    25 C    0.991
    56   1 H    0.992 --    25 C    0.991
    57   1 H    0.990 --    25 C    0.989
    58   1 H    0.991 --    28 C    0.976
    59   1 H    0.989 --    28 C    0.971
    60   1 H    0.988 --    28 C    0.971
    61   1 H    0.993 --    29 C    0.958
    62   1 H    0.985 --    30 C    0.966
    63   1 H    0.987 --    30 C    0.960
    64   1 H    0.993 --    30 C    0.977
    65   1 H    0.991 --    31 C    0.959
    66   1 H    0.990 --    32 C    0.972
    67   1 H    0.996 --    32 C    0.981
    68   1 H    0.993 --    32 C    0.981
    69   1 H    0.993 --    33 C    0.976
    70   1 H    0.997 --    33 C    0.983
    71   1 H    0.993 --    33 C    0.980
    72   1 H    0.969 --     1 N    0.940
 ---------------------------------------------------------------------------

molecular dipole:
                 x           y           z       tot (Debye)
 q only:       -0.862       0.030      -1.145
   full:       -0.743      -0.152      -1.344       3.923

           -------------------------------------------------
          | TOTAL ENERGY              -99.291785824099 Eh   |
          | GRADIENT NORM               0.001141101659 Eh/α |
          | HOMO-LUMO GAP               0.365340510995 eV   |
           -------------------------------------------------

 * finished run on 2024/04/06 at 11:14:25.196
