   * xtb version 6.6.1 (8d0f1dd) compiled by 'conda@1efc2f54142f' on 2023-08-01
          program call               : xtb struc.xyz --opt loose --input .xc1 --gfn2

   ID    Z sym.   atoms
    1    7 N      1, 17
    2    6 C      2-6, 8, 9, 11-16, 18-23, 25, 26, 28-33
    3    8 O      7, 10, 24, 27
    4    1 H      34-72
constraining bond 11 12 to    6.0000000 Å, actual value:    2.8425450 Å

          :  Hamiltonian                  GFN2-xTB          :
 * total energy  :   -97.6240408 Eh     change       -0.4035485E-08 Eh
 * total energy  :   -98.0220066 Eh     change       -0.3979658E+00 Eh
 * total energy  :   -98.2801743 Eh     change       -0.2581677E+00 Eh
 * total energy  :   -98.4692721 Eh     change       -0.1890978E+00 Eh
 * total energy  :   -98.6252724 Eh     change       -0.1560003E+00 Eh
 * total energy  :   -98.7784469 Eh     change       -0.1531745E+00 Eh
 * total energy  :   -98.9185459 Eh     change       -0.1400990E+00 Eh
 * total energy  :   -99.0234434 Eh     change       -0.1048975E+00 Eh
 * total energy  :   -99.0973617 Eh     change       -0.7391833E-01 Eh
 * total energy  :   -99.1556814 Eh     change       -0.5831966E-01 Eh
 * total energy  :   -99.2917245 Eh     change       -0.6879883E-03 Eh
 * total energy  :   -99.2923344 Eh     change       -0.6098521E-03 Eh
 * total energy  :   -99.2931066 Eh     change       -0.7722840E-03 Eh
 * total energy  :   -99.2938477 Eh     change       -0.7410359E-03 Eh
 * total energy  :   -99.2942314 Eh     change       -0.3837500E-03 Eh
 * total energy  :   -99.2944127 Eh     change       -0.1812578E-03 Eh
 * total energy  :   -99.2945132 Eh     change       -0.1005476E-03 Eh
 * total energy  :   -99.2945812 Eh     change       -0.6798308E-04 Eh
 * total energy  :   -99.2946149 Eh     change       -0.3367993E-04 Eh
   *** GEOMETRY OPTIMIZATION CONVERGED AFTER 28 ITERATIONS ***

 final structure:
================
72
 xtb: 6.6.1 (8d0f1dd)
N           -1.79742554874711        3.21565969821452        2.10165387637015
C           -1.74024122576493        2.47225490980092        1.10089652157979
C           -2.89849487692361        2.17836949148479        0.18656460372735
C           -3.31804625104151        0.72975359376511        0.36455319727714
C           -4.25956452745167        0.16012975480892       -0.49561137916561
C           -4.64141164129767       -1.16382810955372       -0.38746555769093
O           -5.55479239334378       -1.77329227103410       -1.15514389249231
C           -6.29016780218528       -1.03004739252188       -2.09735934384686
C           -4.03398562353137       -2.04289435629807        0.61934328382899
O           -4.30345087762109       -3.24969648353977        0.68696368451139
C           -5.52219369867178       -6.88759919936479        1.64537576559974
C           -3.11166665651580       -1.39436818524463        1.50405023995172
C           -2.77938914910948       -0.07085212543488        1.38011800047463
C           -2.37684472056101        2.40104656237147       -1.25909714606668
C           -1.46305237086538        1.28429826355141       -1.79679552231422
C           -0.13002593368532        1.24272591980796       -1.15735462854740
N            0.48497838326658        0.15130761245100       -0.73179382250630
C            1.85826419642052        0.21007411724811       -0.28869984366902
C            2.82759337076031       -0.30591602046265       -1.36967943602767
C            4.24814874434589       -0.11460973768135       -0.91712800153863
C            4.89683677278472        1.09136226248872       -1.13301426758201
C            6.19867449177478        1.28538373769440       -0.69982059423078
C            6.87988675283784        0.27449035259949       -0.03591620598505
O            8.14152690805239        0.34837192071478        0.42220957884573
C            8.88209183378710        1.52956518366989        0.21553515878114
C            6.22046322013546       -0.96577039009269        0.19536868344065
O            6.95374358234818       -1.89073219701657        0.84217030733303
C            6.40285043830751       -3.16296693188782        1.08861548397477
C            4.91644375201917       -1.13461513211532       -0.24529957172145
C           -0.14071992700443       -1.14973597979830       -0.76390820444464
C           -4.12982717623306        3.09828789052844        0.44710232535505
C           -4.75845658610695        2.81232120389890        1.80811150760435
C           -3.80456076957659        4.58452720109534        0.32903913894386
H           -4.70858414429551        0.77383411154769       -1.26135013644179
H           -6.83380256464277       -0.20926115742914       -1.61994480404520
H           -7.00105302883931       -1.72827879269990       -2.53475859255984
H           -5.64365330331453       -0.63173590746925       -2.88615581797952
H           -5.86921598228380       -6.53823312822646        2.59425532891930
H           -6.19439528069829       -6.93146388121355        0.81438201789450
H           -4.49715929105742       -7.16284792858213        1.51585323764257
H           -2.68790917482098       -2.00314489169713        2.28743262299085
H           -2.09289608417461        0.36273499859411        2.09271870647843
H           -3.23212451233454        2.48128863558962       -1.92946046994759
H           -1.83957398899736        3.34958197879634       -1.29582834945067
H           -1.97315796975030        0.32586015414705       -1.72477004874241
H           -1.30432135541633        1.50094098206195       -2.86080431898281
H           -0.81535247470943        1.96808396138328        0.75891437423645
H            0.44675947314334        2.15665307659411       -1.15356209849323
H            1.96810789399243       -0.39167596994050        0.61729877491702
H            2.11777707778217        1.24287804261969       -0.04683855721563
H            2.65428386267638        0.25396162786801       -2.29052817558509
H            2.63318566080177       -1.36081553012976       -1.56488131725369
H            4.39295791534732        1.88953596401547       -1.65674657720705
H            6.67923537466024        2.23090445003809       -0.88995324699261
H            8.41751541288672        2.38584653324972        0.71374041159542
H            9.00042423646742        1.74602183721691       -0.85034015360768
H            9.85919501436678        1.34233301703618        0.65649527902289
H            7.18540717533377       -3.72722085150804        1.59204447534601
H            5.52594370429638       -3.10098734946767        1.74080625537413
H            6.13295781365303       -3.67029207399128        0.15736916122551
H            4.41074853594593       -2.07320672956255       -0.08117999389117
H           -0.31339842069784       -1.47856251882113       -1.79049743316118
H           -1.09603078805294       -1.13140648856972       -0.23405491608925
H            0.50634648480181       -1.87189707154666       -0.27345870665963
H           -4.86912215026974        2.85327672469692       -0.32445958971087
H           -4.04802661340084        3.02900920685866        2.60011504811445
H           -5.06814802559327        1.77249288892106        1.88708223743654
H           -5.63275513514618        3.44263933840185        1.94554554086818
H           -3.08600803990339        4.87551289286637        1.08936465761721
H           -3.41139205709502        4.83938685813925       -0.65102738874700
H           -4.71282462503237        5.16041206423638        0.48257898835794
H           -0.95060971922446        3.35897528431911        2.64228447755359

          :  Hamiltonian                  GFN2-xTB          :
         :: total energy             -99.294614905095 Eh    ::
         :: gradient norm              0.001825144734 Eh/a0 ::
         :: HOMO-LUMO gap              0.416250541078 eV    ::
         :: SCC energy              -100.679929482097 Eh    ::
         :: -> dispersion             -0.073027989410 Eh    ::
         :: repulsion energy           1.384029096361 Eh    ::

    * Orbital Energies and Occupations

         #    Occupation            Energy/Eh            Energy/eV
      -------------------------------------------------------------
         1        2.0000           -0.8109432             -22.0669
       ...           ...                  ...                  ...
        78        1.9980           -0.5327533             -14.4970
        79        1.9976           -0.5302448             -14.4287
        80        1.9973           -0.5279511             -14.3663
        81        1.9966           -0.5243534             -14.2684
        82        1.9943           -0.5162665             -14.0483
        83        1.9938           -0.5149986             -14.0138
        84        1.9924           -0.5117641             -13.9258
        85        1.9755           -0.4930472             -13.4165
        86        1.9655           -0.4875396             -13.2666
        87        1.9251           -0.4749499             -12.9240
        88        1.8370           -0.4618909             -12.5687
        89        1.8198           -0.4601551             -12.5215
        90        1.3080           -0.4336218             -11.7994 (HOMO)
        91        0.8368           -0.4183248             -11.3832 (LUMO)
        92        0.3559           -0.3993099             -10.8658
        93        0.0121           -0.3427773              -9.3274
        94        0.0024           -0.3169508              -8.6247
        95        0.0021           -0.3149189              -8.5694
        96        0.0015           -0.3091491              -8.4124
        97        0.0008           -0.3002693              -8.1707
        98        0.0000           -0.1923527              -5.2342
        99        0.0000           -0.1860683              -5.0632
       100                         -0.1396882              -3.8011
       101                         -0.0723875              -1.9698
       ...                                ...                  ...
       171                          0.6005183              16.3409
      -------------------------------------------------------------
                  HL-Gap            0.0152969 Eh            0.4163 eV

     #   Z          covCN         q      C6AA      α(0)
     1   7 N        1.774    -0.264    27.667     7.789
     2   6 C        2.827     0.103    25.721     8.310
     3   6 C        3.907     0.007    20.399     6.420
     4   6 C        2.974     0.004    27.937     8.670
     5   6 C        2.911    -0.080    30.000     8.981
     6   6 C        2.856     0.122    25.311     8.246
     7   8 O        1.706    -0.205    17.415     5.634
     8   6 C        3.645     0.026    20.476     6.504
     9   6 C        2.828     0.195    23.842     8.001
    10   8 O        0.858    -0.377    21.222     6.176
    11   6 C        2.780    -0.106    30.659     9.069
    12   6 C        2.909    -0.071    29.776     8.948
    13   6 C        2.912    -0.047    29.170     8.856
    14   6 C        3.811    -0.064    21.719     6.634
    15   6 C        3.802    -0.070    21.833     6.652
    16   6 C        2.844     0.011    27.752     8.634
    17   7 N        2.729     0.020    20.907     6.791
    18   6 C        3.757    -0.018    20.944     6.525
    19   6 C        3.808    -0.071    21.849     6.654
    20   6 C        2.969     0.001    28.000     8.680
    21   6 C        2.922    -0.048    29.196     8.861
    22   6 C        2.913    -0.067    29.665     8.931
    23   6 C        2.865     0.135    25.055     8.205
    24   8 O        1.706    -0.218    17.620     5.667
    25   6 C        3.645     0.024    20.507     6.508
    26   6 C        2.863     0.135    25.057     8.205
    27   8 O        1.706    -0.221    17.662     5.674
    28   6 C        3.645     0.026    20.480     6.504
    29   6 C        2.919    -0.079    29.966     8.977
    30   6 C        3.700    -0.074    22.088     6.721
    31   6 C        3.852    -0.006    20.654     6.464
    32   6 C        3.756    -0.118    22.816     6.811
    33   6 C        3.755    -0.119    22.836     6.814
    34   1 H        0.926     0.047     2.351     2.398
    35   1 H        0.924     0.058     2.223     2.332
    36   1 H        0.925     0.084     1.939     2.177
    37   1 H        0.924     0.051     2.304     2.374
    38   1 H        0.927     0.090     1.874     2.141
    39   1 H        0.927     0.091     1.869     2.138
    40   1 H        0.927     0.089     1.887     2.148
    41   1 H        0.926     0.063     2.162     2.300
    42   1 H        0.926     0.038     2.469     2.457
    43   1 H        0.925     0.062     2.178     2.308
    44   1 H        0.924     0.053     2.280     2.361
    45   1 H        0.925     0.069     2.102     2.267
    46   1 H        0.924     0.083     1.952     2.185
    47   1 H        0.922     0.007     2.944     2.683
    48   1 H        0.926     0.072     2.062     2.246
    49   1 H        0.924     0.071     2.074     2.252
    50   1 H        0.924     0.068     2.106     2.270
    51   1 H        0.924     0.056     2.242     2.341
    52   1 H        0.924     0.058     2.223     2.331
    53   1 H        0.926     0.046     2.370     2.407
    54   1 H        0.926     0.060     2.198     2.318
    55   1 H        0.924     0.056     2.248     2.345
    56   1 H        0.924     0.058     2.228     2.334
    57   1 H        0.925     0.084     1.937     2.177
    58   1 H        0.925     0.084     1.940     2.178
    59   1 H        0.924     0.051     2.303     2.373
    60   1 H        0.924     0.055     2.264     2.353
    61   1 H        0.926     0.050     2.318     2.381
    62   1 H        0.924     0.080     1.983     2.202
    63   1 H        0.924     0.085     1.925     2.170
    64   1 H        0.925     0.084     1.940     2.178
    65   1 H        0.924     0.038     2.472     2.459
    66   1 H        0.925     0.069     2.094     2.263
    67   1 H        0.925     0.038     2.476     2.461
    68   1 H        0.925     0.053     2.282     2.362
    69   1 H        0.925     0.062     2.170     2.304
    70   1 H        0.925     0.035     2.517     2.481
    71   1 H        0.925     0.055     2.253     2.347
    72   1 H        0.860     0.159     1.339     1.813

Wiberg/Mayer (AO) data.
largest (>0.10) Wiberg bond orders for each atom

     #   Z sym  total        # sym  WBO       # sym  WBO       # sym  WBO
 ---------------------------------------------------------------------------
     1   7 N    3.041 --     2 C    1.959    72 H    0.940
     2   6 C    3.931 --     1 N    1.959     3 C    0.993    47 H    0.900
     3   6 C    3.972 --     2 C    0.993     4 C    0.974    14 C    0.955
                            31 C    0.939
     4   6 C    3.807 --     5 C    1.363    13 C    1.324     3 C    0.974
     5   6 C    3.947 --     6 C    1.415     4 C    1.363    34 H    0.954
     6   6 C    3.750 --     5 C    1.415     7 O    1.133     9 C    1.055
     7   8 O    2.248 --     6 C    1.133     8 C    0.976
     8   6 C    3.927 --    36 H    0.976     7 O    0.976    35 H    0.971
                            37 H    0.971
     9   6 C    3.886 --    10 O    1.574    12 C    1.161     6 C    1.055
    10   8 O    1.716 --     9 C    1.574
    11   6 C    2.969 --    40 H    0.990    38 H    0.990    39 H    0.990
    12   6 C    3.800 --    13 C    1.520     9 C    1.161    41 H    0.964
    13   6 C    3.943 --    12 C    1.520     4 C    1.324    42 H    0.957
    14   6 C    3.967 --    15 C    0.979    44 H    0.972    43 H    0.969
                             3 C    0.955
    15   6 C    3.986 --    16 C    1.061    14 C    0.979    45 H    0.961
                            46 H    0.926
    16   6 C    3.624 --    17 N    1.426    15 C    1.061    48 H    0.956
    17   7 N    3.502 --    16 C    1.426    30 C    0.996    18 C    0.987
    18   6 C    3.954 --    17 N    0.987    50 H    0.968    19 C    0.966
                            49 H    0.963
    19   6 C    3.976 --    20 C    1.008    52 H    0.972    51 H    0.971
                            18 C    0.966
    20   6 C    3.940 --    21 C    1.404    29 C    1.383    19 C    1.008
    21   6 C    3.945 --    22 C    1.420    20 C    1.404    53 H    0.968
    22   6 C    3.956 --    21 C    1.420    23 C    1.380    54 H    0.963
    23   6 C    3.890 --    22 C    1.380    26 C    1.215    24 O    1.115
    24   8 O    2.255 --    23 C    1.115    25 C    0.975
    25   6 C    3.926 --    57 H    0.976    24 O    0.975    55 H    0.972
                            56 H    0.972
    26   6 C    3.894 --    29 C    1.391    23 C    1.215    27 O    1.109
    27   8 O    2.256 --    26 C    1.109    28 C    0.977
    28   6 C    3.929 --    27 O    0.977    58 H    0.976    59 H    0.973
                            60 H    0.973
    29   6 C    3.956 --    26 C    1.391    20 C    1.383    61 H    0.962
    30   6 C    3.953 --    17 N    0.996    64 H    0.977    62 H    0.965
                            63 H    0.956
    31   6 C    3.963 --    33 C    1.009    32 C    1.008    65 H    0.958
                             3 C    0.939
    32   6 C    3.974 --    31 C    1.008    67 H    0.981    68 H    0.980
                            66 H    0.973
    33   6 C    3.980 --    31 C    1.009    70 H    0.982    71 H    0.979
                            69 H    0.975
    34   1 H    0.992 --     5 C    0.954
    35   1 H    0.989 --     8 C    0.971
    36   1 H    0.992 --     8 C    0.976
    37   1 H    0.989 --     8 C    0.971
    38   1 H    0.991 --    11 C    0.990
    39   1 H    0.991 --    11 C    0.990
    40   1 H    0.992 --    11 C    0.990
    41   1 H    0.991 --    12 C    0.964
    42   1 H    0.993 --    13 C    0.957
    43   1 H    0.995 --    14 C    0.969
    44   1 H    0.996 --    14 C    0.972
    45   1 H    0.995 --    15 C    0.961
    46   1 H    0.972 --    15 C    0.926
    47   1 H    0.984 --     2 C    0.900
    48   1 H    0.994 --    16 C    0.956
    49   1 H    0.990 --    18 C    0.963
    50   1 H    0.994 --    18 C    0.968
    51   1 H    0.995 --    19 C    0.971
    52   1 H    0.996 --    19 C    0.972
    53   1 H    0.997 --    21 C    0.968
    54   1 H    0.995 --    22 C    0.963
    55   1 H    0.991 --    25 C    0.972
    56   1 H    0.991 --    25 C    0.972
    57   1 H    0.992 --    25 C    0.976
    58   1 H    0.992 --    28 C    0.976
    59   1 H    0.992 --    28 C    0.973
    60   1 H    0.992 --    28 C    0.973
    61   1 H    0.996 --    29 C    0.962
    62   1 H    0.985 --    30 C    0.965
    63   1 H    0.986 --    30 C    0.956
    64   1 H    0.993 --    30 C    0.977
    65   1 H    0.991 --    31 C    0.958
    66   1 H    0.990 --    32 C    0.973
    67   1 H    0.996 --    32 C    0.981
    68   1 H    0.993 --    32 C    0.980
    69   1 H    0.992 --    33 C    0.975
    70   1 H    0.997 --    33 C    0.982
    71   1 H    0.993 --    33 C    0.979
    72   1 H    0.969 --     1 N    0.940
 ---------------------------------------------------------------------------

molecular dipole:
                 x           y           z       tot (Debye)
 q only:        1.126       0.374      -1.176
   full:        1.367       0.566      -1.471       5.304

           -------------------------------------------------
          | TOTAL ENERGY              -99.294614905095 Eh   |
          | GRADIENT NORM               0.001825144734 Eh/α |
          | HOMO-LUMO GAP               0.416250541078 eV   |
           -------------------------------------------------

 * finished run on 2024/04/06 at 11:12:58.540
