   * xtb version 6.6.1 (8d0f1dd) compiled by 'conda@1efc2f54142f' on 2023-08-01
          program call               : xtb struc.xyz --opt loose --input .xc1 --gfn2

   ID    Z sym.   atoms
    1    7 N      1, 17
    2    6 C      2-6, 8, 9, 11-16, 18-23, 25, 26, 28-33
    3    8 O      7, 10, 24, 27
    4    1 H      34-72
constraining bond 29 54 to    4.7133300 Å, actual value:    3.8481124 Å

          :  Hamiltonian                  GFN2-xTB          :
 * total energy  :   -99.5377961 Eh     change       -0.4035485E-08 Eh
 * total energy  :   -99.6797216 Eh     change       -0.1419255E+00 Eh
 * total energy  :   -99.7980092 Eh     change       -0.1182876E+00 Eh
 * total energy  :   -99.8954120 Eh     change       -0.9740279E-01 Eh
 * total energy  :  -100.0411644 Eh     change       -0.1457523E+00 Eh
 * total energy  :  -100.1220564 Eh     change       -0.8089206E-01 Eh
 * total energy  :  -100.3570315 Eh     change       -0.2349751E+00 Eh
 * total energy  :  -100.5949526 Eh     change       -0.2379211E+00 Eh
 * total energy  :  -101.1353721 Eh     change       -0.5404195E+00 Eh
 * total energy  :  -101.2309792 Eh     change       -0.9560712E-01 Eh
 * total energy  :  -101.9286381 Eh     change       -0.1168558E-03 Eh
 * total energy  :  -101.9287617 Eh     change       -0.1235769E-03 Eh
 * total energy  :  -101.9288735 Eh     change       -0.1117933E-03 Eh
 * total energy  :  -101.9289595 Eh     change       -0.8601104E-04 Eh
 * total energy  :  -101.9290292 Eh     change       -0.6971175E-04 Eh
 * total energy  :  -101.9290915 Eh     change       -0.6236088E-04 Eh
 * total energy  :  -101.9291708 Eh     change       -0.7929693E-04 Eh
 * total energy  :  -101.9292246 Eh     change       -0.5376289E-04 Eh
 * total energy  :  -101.9292492 Eh     change       -0.2462322E-04 Eh
   *** GEOMETRY OPTIMIZATION CONVERGED AFTER 68 ITERATIONS ***

 final structure:
================
72
 xtb: 6.6.1 (8d0f1dd)
N           -2.05249096782693        3.07914285178176        2.17644205570995
C           -1.91774486062404        2.30741960390721        1.20396117674315
C           -2.98623379668255        2.01846438685019        0.18589146398248
C           -3.41130163836248        0.56284761888115        0.29662904483631
C           -4.25564259567220        0.01245836677337       -0.67020990618137
C           -4.68730553634731       -1.30069849612080       -0.59136186128605
O           -5.51822863063356       -1.90164984030985       -1.46964865871816
C           -6.12739400188573       -1.12908279395545       -2.47736741462583
C           -4.24556792947286       -2.11934457945198        0.48240029518041
O           -4.69599833994769       -3.39108751513923        0.46660815232013
C           -4.36578107734305       -4.24626387634614        1.53557174892453
C           -3.41352047315558       -1.56599639818979        1.44173923163979
C           -3.00785329683979       -0.23946520172059        1.35190932676147
C           -2.33284563830577        2.28363973798728       -1.19707057008738
C           -1.36708568395578        1.18379790548820       -1.67890923495351
C           -0.10553358400332        1.12132722979344       -0.90845355324489
N            0.45967083786102        0.00889835425308       -0.44553578704195
C            1.74753916700129        0.05313853231879        0.20695234136598
C            2.86091338155409       -0.56066252897169       -0.65185826779012
C            4.20596930252112       -0.41275472256522        0.05067288255638
C            4.83866871951264        0.95600975672665        0.16732830016379
C            5.94492586295600        0.58489558897290       -0.53061020107740
C            7.29328462581159        0.10319326865224       -0.26124866159510
O            8.45706892824814        0.67691597784861        0.02664614739708
C            8.45683637956373        2.09163899393680        0.03452734073354
C            6.82790506028425       -1.18912665995555       -0.26287790219187
O            7.35557323215724       -2.34045622628573        0.15937007744524
C            6.58100580245824       -3.50381460131207       -0.04739848522825
C            5.44843024798960       -0.83041487806586       -0.84650648004780
C           -0.18305321511529       -1.27984269403229       -0.54694422140286
C           -4.25400985043852        2.90755337648742        0.35266493376910
C           -4.97010123925179        2.61665780373289        1.66960991400054
C           -3.96087155797182        4.40120641873570        0.24363175159041
H           -4.59143802064937        0.62716171989788       -1.48881311731153
H           -6.68808616826038       -0.29008117803973       -2.05430999388005
H           -6.81546117758422       -1.80218124982960       -2.98515095724583
H           -5.39349610451587       -0.75411250272425       -3.19837073936014
H           -4.72233659139226       -3.85057633204325        2.49117128614110
H           -4.87068822018547       -5.18664507006236        1.32366165608284
H           -3.28612918295304       -4.42020648239952        1.59196057408935
H           -3.08225130382743       -2.15570342881582        2.28104112042687
H           -2.38748388166244        0.16463238201027        2.13682249751134
H           -3.12067145351959        2.38569545801849       -1.94283480778214
H           -1.79688503952164        3.23277700058692       -1.15311611458641
H           -1.88063995498366        0.22432380106295       -1.68395206121305
H           -1.10885491331525        1.43091700091456       -2.71685438098409
H           -0.97397111001715        1.78201423458400        0.95795615206316
H            0.47987717932902        2.02569178583403       -0.83479477060750
H            1.68059914519548       -0.48598460554540        1.15786025664055
H            2.00375600046154        1.09225512820405        0.42048708667685
H            2.89848459112928       -0.04444659428507       -1.61300101374597
H            2.65783968803148       -1.61722305847269       -0.83820868050452
H            4.58909157830564        1.81975214834377        0.75118582952726
H            5.29571952272839       -1.06724389946186       -1.53346967600950
H            7.84191171537588        2.47629363725882        0.85304654505671
H            8.07900286105338        2.48631648371665       -0.91309654367346
H            9.49102052846233        2.39574018840609        0.17694152607274
H            7.15657195584293       -4.32634905801679        0.37091715056693
H            5.61657620461758       -3.43337559849498        0.46451765093511
H            6.41239389238866       -3.67985533828916       -1.11357722470420
H            4.18744494490898       -0.90436087519199        1.02813531824387
H           -0.23072036642776       -1.61416372083674       -1.58545284988643
H           -1.19742367265970       -1.23664211352589       -0.14315519921324
H            0.38389451302688       -2.00880268621660        0.02631789471079
H           -4.93193258670185        2.63620942927125       -0.46469841711982
H           -4.33995938013832        2.89987255021522        2.50637047204929
H           -5.22024379133740        1.56206241638182        1.75666212891478
H           -5.89096757398040        3.19169398421197        1.71830121605138
H           -3.26772660291562        4.70717780693791        1.02092933320180
H           -3.55080336965696        4.66478992782709       -0.72773513721249
H           -4.88619123629650        4.95576046484539        0.37618334133003
H           -1.25253465544429        3.22241100552419        2.78483251169565

          :  Hamiltonian                  GFN2-xTB          :
         :: total energy            -101.929249231563 Eh    ::
         :: gradient norm              0.002280558489 Eh/a0 ::
         :: HOMO-LUMO gap              1.405460883023 eV    ::
         :: SCC energy              -100.637273209466 Eh    ::
         :: -> dispersion             -0.074145537579 Eh    ::
         :: repulsion energy           1.522008552025 Eh    ::

    * Orbital Energies and Occupations

         #    Occupation            Energy/Eh            Energy/eV
      -------------------------------------------------------------
         1        2.0000           -0.8198871             -22.3103
       ...           ...                  ...                  ...
        78        1.9991           -0.5333344             -14.5128
        79        1.9985           -0.5256299             -14.3031
        80        1.9985           -0.5254703             -14.2988
        81        1.9985           -0.5251712             -14.2906
        82        1.9978           -0.5199605             -14.1488
        83        1.9964           -0.5118884             -13.9292
        84        1.9958           -0.5092156             -13.8565
        85        1.9950           -0.5066033             -13.7854
        86        1.9836           -0.4876457             -13.2695
        87        1.9763           -0.4818012             -13.1105
        88        1.9434           -0.4677521             -12.7282
        89        1.8909           -0.4569273             -12.4336
        90        1.7517           -0.4426916             -12.0463 (HOMO)
        91        0.4256           -0.3910419             -10.6408 (LUMO)
        92        0.0303           -0.3456655              -9.4060
        93        0.0158           -0.3351956              -9.1211
        94        0.0042           -0.3139696              -8.5435
        95        0.0034           -0.3106881              -8.4543
        96        0.0007           -0.2858052              -7.7772
        97        0.0000           -0.1881857              -5.1208
        98        0.0000           -0.1670883              -4.5467
        99                         -0.1317997              -3.5865
       100                         -0.0928253              -2.5259
       101                         -0.0753652              -2.0508
       ...                                ...                  ...
       171                          1.4519830              39.5105
      -------------------------------------------------------------
                  HL-Gap            0.0516497 Eh            1.4055 eV

     #   Z          covCN         q      C6AA      α(0)
     1   7 N        1.774    -0.271    27.849     7.815
     2   6 C        2.827     0.101    25.748     8.315
     3   6 C        3.907     0.006    20.417     6.423
     4   6 C        2.974     0.001    27.989     8.678
     5   6 C        2.921    -0.080    30.012     8.984
     6   6 C        2.863     0.128    25.190     8.227
     7   8 O        1.706    -0.233    17.865     5.707
     8   6 C        3.645     0.028    20.434     6.497
     9   6 C        2.864     0.127    25.218     8.231
    10   8 O        1.706    -0.232    17.843     5.703
    11   6 C        3.645     0.028    20.439     6.498
    12   6 C        2.914    -0.076    29.895     8.966
    13   6 C        2.921    -0.054    29.340     8.883
    14   6 C        3.812    -0.064    21.717     6.633
    15   6 C        3.802    -0.069    21.818     6.650
    16   6 C        2.842     0.004    27.927     8.661
    17   7 N        2.729     0.006    21.155     6.831
    18   6 C        3.755    -0.018    20.947     6.526
    19   6 C        3.801    -0.069    21.830     6.652
    20   6 C        4.161    -0.016    20.778     6.474
    21   6 C        3.104    -0.067    29.516     8.902
    22   6 C        3.740    -0.026    21.123     6.558
    23   6 C        3.067     0.124    25.207     8.233
    24   8 O        1.704    -0.214    17.550     5.656
    25   6 C        3.665     0.024    20.428     6.482
    26   6 C        3.335     0.111    23.312     7.648
    27   8 O        1.704    -0.212    17.523     5.652
    28   6 C        3.659     0.024    20.446     6.489
    29   6 C        4.277    -0.085    22.022     6.665
    30   6 C        3.699    -0.071    22.026     6.712
    31   6 C        3.853    -0.007    20.673     6.467
    32   6 C        3.756    -0.118    22.817     6.811
    33   6 C        3.755    -0.119    22.829     6.813
    34   1 H        0.926     0.051     2.304     2.374
    35   1 H        0.924     0.053     2.284     2.363
    36   1 H        0.925     0.080     1.979     2.200
    37   1 H        0.924     0.046     2.366     2.405
    38   1 H        0.924     0.054     2.270     2.356
    39   1 H        0.925     0.080     1.980     2.200
    40   1 H        0.924     0.046     2.373     2.409
    41   1 H        0.926     0.050     2.316     2.380
    42   1 H        0.926     0.038     2.482     2.463
    43   1 H        0.925     0.060     2.200     2.320
    44   1 H        0.924     0.053     2.286     2.365
    45   1 H        0.925     0.065     2.138     2.286
    46   1 H        0.924     0.078     2.005     2.214
    47   1 H        0.922     0.004     2.996     2.707
    48   1 H        0.926     0.067     2.114     2.274
    49   1 H        0.924     0.064     2.150     2.293
    50   1 H        0.924     0.072     2.068     2.249
    51   1 H        0.924     0.058     2.226     2.333
    52   1 H        0.924     0.052     2.301     2.372
    53   1 H        0.926     0.040     2.448     2.447
    54   1 H        0.930     0.101     1.773     2.082
    55   1 H        0.924     0.059     2.210     2.325
    56   1 H        0.924     0.060     2.202     2.320
    57   1 H        0.925     0.086     1.921     2.167
    58   1 H        0.925     0.087     1.911     2.162
    59   1 H        0.924     0.054     2.273     2.358
    60   1 H        0.924     0.060     2.202     2.321
    61   1 H        0.924     0.047     2.355     2.400
    62   1 H        0.924     0.075     2.033     2.230
    63   1 H        0.924     0.080     1.978     2.200
    64   1 H        0.925     0.077     2.010     2.217
    65   1 H        0.924     0.036     2.502     2.474
    66   1 H        0.925     0.068     2.110     2.271
    67   1 H        0.925     0.035     2.522     2.483
    68   1 H        0.925     0.050     2.320     2.382
    69   1 H        0.925     0.061     2.186     2.312
    70   1 H        0.925     0.034     2.530     2.487
    71   1 H        0.925     0.053     2.278     2.360
    72   1 H        0.860     0.155     1.367     1.832

Wiberg/Mayer (AO) data.
largest (>0.10) Wiberg bond orders for each atom

     #   Z sym  total        # sym  WBO       # sym  WBO       # sym  WBO
 ---------------------------------------------------------------------------
     1   7 N    3.039 --     2 C    1.955    72 H    0.943
     2   6 C    3.929 --     1 N    1.955     3 C    0.995    47 H    0.902
     3   6 C    3.977 --     2 C    0.995     4 C    0.971    14 C    0.956
                            31 C    0.943
     4   6 C    3.954 --    13 C    1.417     5 C    1.367     3 C    0.971
     5   6 C    3.964 --     6 C    1.404     4 C    1.367    34 H    0.958
     6   6 C    3.910 --     5 C    1.404     9 C    1.225     7 O    1.096
     7   8 O    2.253 --     6 C    1.096     8 C    0.978
     8   6 C    3.933 --     7 O    0.978    36 H    0.977    35 H    0.974
                            37 H    0.974
     9   6 C    3.906 --    12 C    1.395     6 C    1.225    10 O    1.097
    10   8 O    2.252 --     9 C    1.097    11 C    0.978
    11   6 C    3.933 --    10 O    0.978    39 H    0.977    40 H    0.974
                            38 H    0.974
    12   6 C    3.965 --    13 C    1.399     9 C    1.395    41 H    0.964
    13   6 C    3.958 --     4 C    1.417    12 C    1.399    42 H    0.963
    14   6 C    3.970 --    15 C    0.979    44 H    0.973    43 H    0.969
                             3 C    0.956
    15   6 C    3.987 --    16 C    1.060    14 C    0.979    45 H    0.962
                            46 H    0.930
    16   6 C    3.569 --    17 N    1.387    15 C    1.060    48 H    0.957
    17   7 N    3.462 --    16 C    1.387    30 C    0.999    18 C    0.989
    18   6 C    3.960 --    17 N    0.989    19 C    0.984    50 H    0.967
                            49 H    0.962
    19   6 C    3.976 --    20 C    0.989    18 C    0.984    51 H    0.975
                            52 H    0.972
    20   6 C    3.972 --    21 C    1.008    19 C    0.989    61 H    0.948
                            29 C    0.938
    21   6 C    3.833 --    22 C    1.669    20 C    1.008    53 H    0.968
    22   6 C    3.874 --    21 C    1.669    23 C    1.065    29 C    0.959
    23   6 C    3.854 --    26 C    1.468    24 O    1.122    22 C    1.065
    24   8 O    2.264 --    23 C    1.122    25 C    0.962
    25   6 C    3.920 --    57 H    0.978    55 H    0.975    56 H    0.975
                            24 O    0.962
    26   6 C    3.815 --    23 C    1.468    27 O    1.120    29 C    0.958
    27   8 O    2.267 --    26 C    1.120    28 C    0.966
    28   6 C    3.924 --    58 H    0.977    59 H    0.975    60 H    0.975
                            27 O    0.966
    29   6 C    3.953 --    54 H    0.973    22 C    0.959    26 C    0.958
                            20 C    0.938
    30   6 C    3.958 --    17 N    0.999    64 H    0.978    62 H    0.967
                            63 H    0.959
    31   6 C    3.974 --    33 C    1.009    32 C    1.008    65 H    0.960
                             3 C    0.943
    32   6 C    3.981 --    31 C    1.008    67 H    0.982    68 H    0.982
                            66 H    0.975
    33   6 C    3.984 --    31 C    1.009    70 H    0.983    71 H    0.981
                            69 H    0.977
    34   1 H    0.996 --     5 C    0.958
    35   1 H    0.994 --     8 C    0.974
    36   1 H    0.993 --     8 C    0.977
    37   1 H    0.994 --     8 C    0.974
    38   1 H    0.994 --    11 C    0.974
    39   1 H    0.993 --    11 C    0.977
    40   1 H    0.994 --    11 C    0.974
    41   1 H    0.996 --    12 C    0.964
    42   1 H    0.998 --    13 C    0.963
    43   1 H    0.995 --    14 C    0.969
    44   1 H    0.996 --    14 C    0.973
    45   1 H    0.995 --    15 C    0.962
    46   1 H    0.970 --    15 C    0.930
    47   1 H    0.988 --     2 C    0.902
    48   1 H    0.995 --    16 C    0.957
    49   1 H    0.989 --    18 C    0.962
    50   1 H    0.994 --    18 C    0.967
    51   1 H    0.996 --    19 C    0.975
    52   1 H    0.996 --    19 C    0.972
    53   1 H    0.998 --    21 C    0.968
    54   1 H    0.988 --    29 C    0.973
    55   1 H    0.991 --    25 C    0.975
    56   1 H    0.992 --    25 C    0.975
    57   1 H    0.992 --    25 C    0.978
    58   1 H    0.992 --    28 C    0.977
    59   1 H    0.992 --    28 C    0.975
    60   1 H    0.991 --    28 C    0.975
    61   1 H    0.993 --    20 C    0.948
    62   1 H    0.985 --    30 C    0.967
    63   1 H    0.986 --    30 C    0.959
    64   1 H    0.994 --    30 C    0.978
    65   1 H    0.993 --    31 C    0.960
    66   1 H    0.992 --    32 C    0.975
    67   1 H    0.997 --    32 C    0.982
    68   1 H    0.995 --    32 C    0.982
    69   1 H    0.993 --    33 C    0.977
    70   1 H    0.997 --    33 C    0.983
    71   1 H    0.994 --    33 C    0.981
    72   1 H    0.971 --     1 N    0.943
 ---------------------------------------------------------------------------

molecular dipole:
                 x           y           z       tot (Debye)
 q only:        1.247      -0.239      -0.854
   full:        1.505      -0.352      -0.842       4.473

           -------------------------------------------------
          | TOTAL ENERGY             -101.929249231563 Eh   |
          | GRADIENT NORM               0.002280558489 Eh/α |
          | HOMO-LUMO GAP               1.405460883023 eV   |
           -------------------------------------------------

 * finished run on 2024/04/06 at 11:14:43.870
