   * xtb version 6.6.1 (8d0f1dd) compiled by 'conda@1efc2f54142f' on 2023-08-01
          program call               : xtb xtbopt.xyz --opt crude --input .xc2 --gfn2

   ID    Z sym.   atoms
    1    7 N      1, 17
    2    6 C      2-6, 8, 9, 11-16, 18-23, 25, 26, 28-33
    3    8 O      7, 10, 24, 27
    4    1 H      34-72
########################################################################
[WARNING] Please study the warnings concerning your input carefully
-1- readin_getIntValue: could not parse ''
########################################################################

          :  Hamiltonian                  GFN2-xTB          :
 * total energy  :   -99.1139330 Eh     change       -0.1236344E-11 Eh
 * total energy  :   -99.2721473 Eh     change       -0.1582142E+00 Eh
 * total energy  :   -99.2742466 Eh     change       -0.2099350E-02 Eh
 * total energy  :   -99.2748589 Eh     change       -0.6123088E-03 Eh
 * total energy  :   -99.2750373 Eh     change       -0.1783469E-03 Eh
   *** GEOMETRY OPTIMIZATION CONVERGED AFTER 5 ITERATIONS ***

 final structure:
================
72
 xtb: 6.6.1 (8d0f1dd)
N           -2.05218365445388        3.07881555813912        2.17631159590649
C           -1.91831400929553        2.30503700744368        1.20499426966672
C           -2.98674458377570        2.01680241879983        0.18671258670776
C           -3.41379411809489        0.56170714290194        0.29791443189659
C           -4.25710844322751        0.01130781586912       -0.66969775133479
C           -4.68853580182269       -1.30202386101302       -0.59171828889225
O           -5.51591850898740       -1.90358564288446       -1.47278639277893
C           -6.12017949858179       -1.13238540899596       -2.48435142223627
C           -4.24971536793551       -2.12022160399916        0.48346232931747
O           -4.70093940820474       -3.39175595689410        0.46813758477674
C           -4.37151463387030       -4.24617908509090        1.53791285571252
C           -3.41903106284467       -1.56666840041636        1.44384656738377
C           -3.01205144053692       -0.24059326752188        1.35385681362310
C           -2.33412961850774        2.27997051919826       -1.19687663696819
C           -1.36622357190851        1.18151113263040       -1.67821037321581
C           -0.10418059535334        1.12111918973460       -0.90871240415979
N            0.45891449767014        0.01065070426940       -0.43968519466613
C            1.74436529034472        0.05671533373601        0.21690851429662
C            2.86298059388477       -0.55374074732097       -0.63669589848869
C            4.20243577766180       -0.40519182711201        0.07442413720974
C            4.83863186889236        0.96598528304910        0.18678068784008
C            5.94585474229043        0.59037831198471       -0.50819190605545
C            7.29821763986730        0.10565251118080       -0.25599870974724
O            8.46659722463447        0.67933109185249        0.01747244830719
C            8.46489539492588        2.09412627934590        0.03786039172914
C            6.83591310782049       -1.19019760938895       -0.26000425505856
O            7.37273847995356       -2.34277574880683        0.14337641912843
C            6.58714550513480       -3.50230817516393       -0.04715682262387
C            5.45099812454851       -0.82150479130552       -0.78371789388637
C           -0.17982309461355       -1.27942899190307       -0.54653647252461
C           -4.25305258188607        2.90841751836464        0.35272619470904
C           -4.96942768547280        2.62029588700016        1.67014633434706
C           -3.95736158070721        4.40151073964093        0.24239284626056
H           -4.59231735889230        0.62605359739558       -1.48846859774752
H           -6.68398587232077       -0.29356959457968       -2.06521296076242
H           -6.80466284936613       -1.80655752839617       -2.99538526898676
H           -5.38265494185437       -0.75722665854353       -3.20149454175548
H           -4.73014627408619       -3.85059861690282        2.49272425101874
H           -4.87481620709708       -5.18728989780907        1.32562078402487
H           -3.29178037881479       -4.41870305213496        1.59615803836455
H           -3.08962364778326       -2.15592119755805        2.28417305405610
H           -2.39234292136590        0.16318709480010        2.13940446534591
H           -3.12263789326084        2.37751077985834       -1.94248445077956
H           -1.80077014679881        3.23058825634843       -1.15574630388958
H           -1.87814117584068        0.22121711969660       -1.68307343741973
H           -1.10891611110733        1.42951866795881       -2.71616226876642
H           -0.97535682162664        1.77794861166368        0.96195192730351
H            0.47867828436098        2.02697171810473       -0.83354232933293
H            1.67436687801394       -0.48334667670850        1.16707501271474
H            1.99799560878795        1.09615670933470        0.43193453339818
H            2.90657525606375       -0.03701577133840       -1.59690404693438
H            2.66543342156937       -1.61090981455383       -0.82472368138339
H            4.58283635095162        1.83724215601408        0.75778543895713
H            5.22785219794411       -1.15457835719279       -1.78437946738173
H            7.85814497429294        2.47122939641980        0.86585963247842
H            8.07739275824710        2.49690886308828       -0.90239474052769
H            9.50021547372172        2.39828998339375        0.17244566319178
H            7.15882483550840       -4.32688200881664        0.37254346139343
H            5.62688535184081       -3.41810630044575        0.47006954667250
H            6.40880966254176       -3.68373386957011       -1.11075917530840
H            4.16767075071106       -0.88833697516142        1.05667279785809
H           -0.22919493034839       -1.60839779312166       -1.58652499306772
H           -1.19328210083704       -1.24137576871435       -0.13988746742850
H            0.39075644209026       -2.00977034801283        0.02109848820769
H           -4.93163605806725        2.63751602941699       -0.46423553314951
H           -4.33784563904519        2.90165417534032        2.50645373389367
H           -5.22331290849594        1.56664077113601        1.75762529681869
H           -5.88817579326519        3.19874478816332        1.71923730299467
H           -3.26445334160674        4.70708988520056        1.02001997847404
H           -3.54619453023580        4.66370632478889       -0.72883336962481
H           -4.88193283781108        4.95759645948679        0.37366368901357
H           -1.25120089727307        3.21991503713424        2.78406379447993

          :  Hamiltonian                  GFN2-xTB          :
         :: total energy             -99.275037279330 Eh    ::
         :: gradient norm              0.008880786612 Eh/a0 ::
         :: HOMO-LUMO gap              1.405733996926 eV    ::
         :: SCC energy              -100.608568847125 Eh    ::
         :: -> dispersion             -0.074125931316 Eh    ::
         :: repulsion energy           1.332193523354 Eh    ::

    * Orbital Energies and Occupations

         #    Occupation            Energy/Eh            Energy/eV
      -------------------------------------------------------------
         1        2.0000           -0.8197698             -22.3071
       ...           ...                  ...                  ...
        78        1.9991           -0.5334157             -14.5150
        79        1.9985           -0.5256181             -14.3028
        80        1.9984           -0.5251523             -14.2901
        81        1.9983           -0.5240222             -14.2594
        82        1.9978           -0.5199484             -14.1485
        83        1.9964           -0.5118954             -13.9294
        84        1.9958           -0.5092267             -13.8568
        85        1.9950           -0.5065952             -13.7852
        86        1.9835           -0.4876456             -13.2695
        87        1.9762           -0.4817866             -13.1101
        88        1.9434           -0.4677683             -12.7286
        89        1.8907           -0.4569229             -12.4335
        90        1.7520           -0.4427395             -12.0476 (HOMO)
        91        0.4258           -0.3910797             -10.6418 (LUMO)
        92        0.0305           -0.3457756              -9.4090
        93        0.0158           -0.3352819              -9.1235
        94        0.0041           -0.3139441              -8.5429
        95        0.0034           -0.3106615              -8.4535
        96        0.0007           -0.2859845              -7.7820
        97        0.0000           -0.1881334              -5.1194
        98        0.0000           -0.1627878              -4.4297
        99                         -0.1300537              -3.5389
       100                         -0.0928787              -2.5274
       101                         -0.0760768              -2.0702
       ...                                ...                  ...
       171                          0.6251825              17.0121
      -------------------------------------------------------------
                  HL-Gap            0.0516598 Eh            1.4057 eV

     #   Z          covCN         q      C6AA      α(0)
     1   7 N        1.774    -0.271    27.855     7.815
     2   6 C        2.827     0.101    25.750     8.315
     3   6 C        3.907     0.006    20.417     6.423
     4   6 C        2.974     0.001    27.989     8.678
     5   6 C        2.921    -0.080    30.012     8.984
     6   6 C        2.863     0.128    25.190     8.227
     7   8 O        1.706    -0.233    17.864     5.707
     8   6 C        3.645     0.028    20.434     6.497
     9   6 C        2.864     0.127    25.218     8.231
    10   8 O        1.706    -0.232    17.843     5.703
    11   6 C        3.645     0.028    20.439     6.497
    12   6 C        2.914    -0.076    29.895     8.966
    13   6 C        2.921    -0.054    29.340     8.883
    14   6 C        3.812    -0.064    21.718     6.633
    15   6 C        3.802    -0.069    21.820     6.650
    16   6 C        2.842     0.004    27.925     8.660
    17   7 N        2.729     0.007    21.147     6.830
    18   6 C        3.755    -0.018    20.945     6.526
    19   6 C        3.801    -0.069    21.815     6.650
    20   6 C        4.158    -0.013    20.727     6.466
    21   6 C        3.134    -0.064    29.350     8.868
    22   6 C        3.722    -0.025    21.139     6.566
    23   6 C        3.091     0.126    25.140     8.218
    24   8 O        1.704    -0.213    17.540     5.655
    25   6 C        3.664     0.024    20.429     6.483
    26   6 C        3.325     0.116    23.405     7.691
    27   8 O        1.704    -0.210    17.491     5.647
    28   6 C        3.660     0.024    20.446     6.488
    29   6 C        4.332    -0.060    21.562     6.595
    30   6 C        3.699    -0.071    22.028     6.712
    31   6 C        3.853    -0.007    20.673     6.467
    32   6 C        3.756    -0.118    22.817     6.811
    33   6 C        3.755    -0.119    22.829     6.813
    34   1 H        0.926     0.051     2.304     2.374
    35   1 H        0.924     0.053     2.283     2.363
    36   1 H        0.925     0.080     1.979     2.200
    37   1 H        0.924     0.046     2.367     2.406
    38   1 H        0.924     0.054     2.269     2.356
    39   1 H        0.925     0.080     1.980     2.200
    40   1 H        0.924     0.046     2.373     2.409
    41   1 H        0.926     0.050     2.316     2.380
    42   1 H        0.926     0.038     2.482     2.464
    43   1 H        0.925     0.060     2.199     2.319
    44   1 H        0.924     0.053     2.285     2.364
    45   1 H        0.925     0.065     2.137     2.286
    46   1 H        0.924     0.078     2.003     2.214
    47   1 H        0.922     0.004     2.998     2.708
    48   1 H        0.926     0.068     2.113     2.273
    49   1 H        0.924     0.064     2.148     2.292
    50   1 H        0.924     0.072     2.068     2.249
    51   1 H        0.924     0.058     2.221     2.331
    52   1 H        0.924     0.052     2.293     2.368
    53   1 H        0.926     0.041     2.436     2.441
    54   1 H        0.926     0.053     2.283     2.363
    55   1 H        0.924     0.059     2.209     2.324
    56   1 H        0.924     0.060     2.200     2.320
    57   1 H        0.925     0.086     1.919     2.166
    58   1 H        0.925     0.087     1.905     2.159
    59   1 H        0.924     0.054     2.267     2.355
    60   1 H        0.924     0.060     2.195     2.317
    61   1 H        0.924     0.048     2.342     2.393
    62   1 H        0.924     0.075     2.032     2.229
    63   1 H        0.924     0.080     1.977     2.199
    64   1 H        0.925     0.077     2.008     2.216
    65   1 H        0.924     0.036     2.503     2.474
    66   1 H        0.925     0.068     2.109     2.271
    67   1 H        0.925     0.035     2.522     2.483
    68   1 H        0.925     0.050     2.319     2.382
    69   1 H        0.925     0.061     2.185     2.312
    70   1 H        0.925     0.034     2.530     2.488
    71   1 H        0.925     0.053     2.278     2.360
    72   1 H        0.860     0.155     1.368     1.833

Wiberg/Mayer (AO) data.
largest (>0.10) Wiberg bond orders for each atom

     #   Z sym  total        # sym  WBO       # sym  WBO       # sym  WBO
 ---------------------------------------------------------------------------
     1   7 N    3.038 --     2 C    1.955    72 H    0.943
     2   6 C    3.929 --     1 N    1.955     3 C    0.995    47 H    0.903
     3   6 C    3.977 --     2 C    0.995     4 C    0.971    14 C    0.956
                            31 C    0.943
     4   6 C    3.954 --    13 C    1.417     5 C    1.367     3 C    0.971
     5   6 C    3.964 --     6 C    1.403     4 C    1.367    34 H    0.958
     6   6 C    3.910 --     5 C    1.403     9 C    1.225     7 O    1.096
     7   8 O    2.253 --     6 C    1.096     8 C    0.978
     8   6 C    3.933 --     7 O    0.978    36 H    0.977    35 H    0.974
                            37 H    0.974
     9   6 C    3.906 --    12 C    1.395     6 C    1.225    10 O    1.097
    10   8 O    2.252 --     9 C    1.097    11 C    0.978
    11   6 C    3.933 --    10 O    0.978    39 H    0.977    40 H    0.974
                            38 H    0.974
    12   6 C    3.965 --    13 C    1.399     9 C    1.395    41 H    0.964
    13   6 C    3.958 --     4 C    1.417    12 C    1.399    42 H    0.963
    14   6 C    3.970 --    15 C    0.978    44 H    0.973    43 H    0.968
                             3 C    0.956
    15   6 C    3.987 --    16 C    1.060    14 C    0.978    45 H    0.962
                            46 H    0.930
    16   6 C    3.569 --    17 N    1.388    15 C    1.060    48 H    0.957
    17   7 N    3.462 --    16 C    1.388    30 C    0.998    18 C    0.989
    18   6 C    3.961 --    17 N    0.989    19 C    0.984    50 H    0.967
                            49 H    0.962
    19   6 C    3.976 --    20 C    0.989    18 C    0.984    51 H    0.975
                            52 H    0.971
    20   6 C    3.973 --    21 C    1.006    19 C    0.989    61 H    0.947
                            29 C    0.944
    21   6 C    3.836 --    22 C    1.672    20 C    1.006    53 H    0.968
    22   6 C    3.876 --    21 C    1.672    23 C    1.065    29 C    0.962
    23   6 C    3.853 --    26 C    1.463    24 O    1.123    22 C    1.065
    24   8 O    2.264 --    23 C    1.123    25 C    0.962
    25   6 C    3.920 --    57 H    0.978    55 H    0.975    56 H    0.975
                            24 O    0.962
    26   6 C    3.816 --    23 C    1.463    27 O    1.123    29 C    0.964
    27   8 O    2.269 --    26 C    1.123    28 C    0.965
    28   6 C    3.923 --    58 H    0.977    59 H    0.976    60 H    0.975
                            27 O    0.965
    29   6 C    3.951 --    26 C    0.964    22 C    0.962    54 H    0.960
                            20 C    0.944
    30   6 C    3.958 --    17 N    0.998    64 H    0.978    62 H    0.967
                            63 H    0.959
    31   6 C    3.974 --    33 C    1.009    32 C    1.008    65 H    0.960
                             3 C    0.943
    32   6 C    3.981 --    31 C    1.008    67 H    0.982    68 H    0.982
                            66 H    0.975
    33   6 C    3.984 --    31 C    1.009    70 H    0.983    71 H    0.981
                            69 H    0.977
    34   1 H    0.996 --     5 C    0.958
    35   1 H    0.994 --     8 C    0.974
    36   1 H    0.993 --     8 C    0.977
    37   1 H    0.994 --     8 C    0.974
    38   1 H    0.994 --    11 C    0.974
    39   1 H    0.993 --    11 C    0.977
    40   1 H    0.994 --    11 C    0.974
    41   1 H    0.996 --    12 C    0.964
    42   1 H    0.998 --    13 C    0.963
    43   1 H    0.995 --    14 C    0.968
    44   1 H    0.996 --    14 C    0.973
    45   1 H    0.995 --    15 C    0.962
    46   1 H    0.970 --    15 C    0.930
    47   1 H    0.988 --     2 C    0.903
    48   1 H    0.995 --    16 C    0.957
    49   1 H    0.989 --    18 C    0.962
    50   1 H    0.994 --    18 C    0.967
    51   1 H    0.996 --    19 C    0.975
    52   1 H    0.996 --    19 C    0.971
    53   1 H    0.997 --    21 C    0.968
    54   1 H    0.994 --    29 C    0.960
    55   1 H    0.991 --    25 C    0.975
    56   1 H    0.992 --    25 C    0.975
    57   1 H    0.992 --    25 C    0.978
    58   1 H    0.992 --    28 C    0.977
    59   1 H    0.993 --    28 C    0.976
    60   1 H    0.991 --    28 C    0.975
    61   1 H    0.993 --    20 C    0.947
    62   1 H    0.985 --    30 C    0.967
    63   1 H    0.986 --    30 C    0.959
    64   1 H    0.994 --    30 C    0.978
    65   1 H    0.993 --    31 C    0.960
    66   1 H    0.992 --    32 C    0.975
    67   1 H    0.997 --    32 C    0.982
    68   1 H    0.995 --    32 C    0.982
    69   1 H    0.993 --    33 C    0.977
    70   1 H    0.997 --    33 C    0.983
    71   1 H    0.994 --    33 C    0.981
    72   1 H    0.971 --     1 N    0.943
 ---------------------------------------------------------------------------

molecular dipole:
                 x           y           z       tot (Debye)
 q only:        1.254      -0.216      -0.777
   full:        1.508      -0.335      -0.792       4.413

           -------------------------------------------------
          | TOTAL ENERGY              -99.275037279330 Eh   |
          | GRADIENT NORM               0.008880786612 Eh/α |
          | HOMO-LUMO GAP               1.405733996926 eV   |
           -------------------------------------------------

 * finished run on 2024/04/06 at 11:14:44.991
