   * xtb version 6.6.1 (8d0f1dd) compiled by 'conda@1efc2f54142f' on 2023-08-01
          program call               : xtb struc.xyz --opt loose --input .xc1 --gfn2

   ID    Z sym.   atoms
    1    6 C      1, 3, 5-7, 10, 11, 14
    2    7 N      2, 4, 9, 13
    3    8 O      8, 12
    4    1 H      15-25
constraining bond 6 8 to    4.7600000 Å, actual value:    2.3687222 Å

          :  Hamiltonian                  GFN2-xTB          :
 * total energy  :   -32.0500035 Eh     change       -0.2401990E-09 Eh
 * total energy  :   -35.8768705 Eh     change       -0.3826867E+01 Eh
 * total energy  :   -38.7807024 Eh     change       -0.2903832E+01 Eh
 * total energy  :   -40.5587040 Eh     change       -0.1778002E+01 Eh
 * total energy  :   -41.3699618 Eh     change       -0.8112578E+00 Eh
 * total energy  :   -41.5316121 Eh     change       -0.1616503E+00 Eh
 * total energy  :   -41.5859162 Eh     change       -0.5430407E-01 Eh
 * total energy  :   -41.6437205 Eh     change       -0.5780434E-01 Eh
 * total energy  :   -41.6955411 Eh     change       -0.5182057E-01 Eh
 * total energy  :   -41.7255760 Eh     change       -0.3003497E-01 Eh
 * total energy  :   -42.0760227 Eh     change       -0.2937460E-03 Eh
 * total energy  :   -42.0764090 Eh     change       -0.3863390E-03 Eh
 * total energy  :   -42.0766567 Eh     change       -0.2476829E-03 Eh
 * total energy  :   -42.0768435 Eh     change       -0.1867808E-03 Eh
 * total energy  :   -42.0770283 Eh     change       -0.1847824E-03 Eh
 * total energy  :   -42.0771867 Eh     change       -0.1584604E-03 Eh
 * total energy  :   -42.0771734 Eh     change        0.1331385E-04 Eh
 * total energy  :   -42.0773175 Eh     change       -0.1441097E-03 Eh
 * total energy  :   -42.0773637 Eh     change       -0.4619117E-04 Eh
   *** GEOMETRY OPTIMIZATION CONVERGED AFTER 75 ITERATIONS ***

 final structure:
================
25
 xtb: 6.6.1 (8d0f1dd)
C            3.16886873665841        1.00843070756217        0.17776606385776
N            2.26727974229133       -0.10294564729377        0.07912001982891
C            2.57563742687404       -1.40083527675880       -0.01601368453301
N            1.43998380128295       -2.14648597933966       -0.06307135790622
C            0.37927276604992       -1.29793900273108        0.00699461210824
C            0.89430951910571        0.01148129041248        0.09638872629914
C            0.06395333967318        1.11019086663718        0.14122133699733
O           -0.91169990119955        4.38956336047795       -0.38360019260850
N           -1.27074313650672        0.86415606906014        0.12539432557488
C           -2.13153882868583        1.87887336998178        0.11511129012006
C           -1.84209136039872       -0.47151719391482        0.11105050782586
O           -3.03047068128214       -0.63049507283616        0.17349989018050
N           -0.95150133375640       -1.53539116223788        0.00450998191939
C           -1.48121544802672       -2.88334997546874       -0.09688457107877
H            3.43274857333975        1.19514030116419        1.22119416081834
H            4.07742570879904        0.81063945826188       -0.38777201240136
H            2.66929736745810        1.89496337734935       -0.21193212592741
H            3.56690410005403       -1.80374361591318       -0.04768153798992
H           -1.38922312628988        5.17117942579211       -0.66562288689063
H           -3.18690322913973        1.66688351371520        0.12011189145610
H           -1.71477571316673        2.89224588992945        0.04745317254190
H           -1.12293661711389       -3.49627042914450        0.73101960089380
H           -1.18936064661447       -3.33121890196786       -1.04814988962374
H           -2.56767247667890       -2.82279055106845       -0.05079869229204
H            1.41488293135444       -3.15252628006202       -0.14813701125746

          :  Hamiltonian                  GFN2-xTB          :
         :: total energy             -42.077363736488 Eh    ::
         :: gradient norm              0.003086810809 Eh/a0 ::
         :: HOMO-LUMO gap              0.604413872090 eV    ::
         :: SCC energy               -42.588961805416 Eh    ::
         :: -> dispersion             -0.021467935935 Eh    ::
         :: repulsion energy           0.511533731047 Eh    ::

    * Orbital Energies and Occupations

         #    Occupation            Energy/Eh            Energy/eV
      -------------------------------------------------------------
         1        2.0000           -0.9041534             -24.6033
       ...           ...                  ...                  ...
        25        1.9988           -0.6592032             -17.9378
        26        1.9986           -0.6558713             -17.8472
        27        1.9965           -0.6348152             -17.2742
        28        1.9958           -0.6302351             -17.1496
        29        1.9949           -0.6254006             -17.0180
        30        1.9946           -0.6241506             -16.9840
        31        1.9919           -0.6146000             -16.7241
        32        1.9845           -0.5990004             -16.2996
        33        1.9815           -0.5948095             -16.1856
        34        1.9453           -0.5686170             -15.4729
        35        1.6400           -0.5198073             -14.1447
        36        1.5950           -0.5163506             -14.0506
        37        1.5039           -0.5101378             -13.8816 (HOMO)
        38        1.0868           -0.4879260             -13.2771 (LUMO)
        39        0.2093           -0.4328044             -11.7772
        40        0.0609           -0.4016073             -10.9283
        41        0.0240           -0.3789831             -10.3127
        42        0.0005           -0.2878541              -7.8329
        43        0.0000           -0.2058251              -5.6008
        44        0.0000           -0.1937423              -5.2720
        45        0.0000           -0.1487167              -4.0468
        46        0.0000           -0.1187447              -3.2312
        47                         -0.0782305              -2.1288
        48                         -0.0531513              -1.4463
       ...                                ...                  ...
        67                          0.5202158              14.1558
      -------------------------------------------------------------
                  HL-Gap            0.0222118 Eh            0.6044 eV

     #   Z          covCN         q      C6AA      α(0)
     1   6 C        3.691    -0.089    22.400     6.773
     2   7 N        2.819     0.064    20.117     6.662
     3   6 C        3.037     0.045    26.957     8.516
     4   7 N        2.773    -0.060    22.395     7.029
     5   6 C        3.039     0.098    25.785     8.329
     6   6 C        3.096     0.032    27.181     8.545
     7   6 C        1.948    -0.081    33.296     9.318
     8   8 O        0.806    -0.505    23.928     6.557
     9   7 N        2.747     0.066    20.087     6.656
    10   6 C        2.826    -0.032    28.795     8.793
    11   6 C        2.735     0.299    21.923     7.666
    12   8 O        0.858    -0.335    20.431     6.060
    13   7 N        2.736    -0.035    21.924     6.954
    14   6 C        3.698    -0.072    22.052     6.717
    15   1 H        0.924     0.111     1.684     2.029
    16   1 H        0.925     0.104     1.750     2.069
    17   1 H        0.925     0.126     1.562     1.954
    18   1 H        0.926     0.118     1.630     1.996
    19   1 H        0.806     0.294     0.739     1.350
    20   1 H        0.926     0.131     1.531     1.935
    21   1 H        0.924     0.195     1.126     1.660
    22   1 H        0.924     0.088     1.898     2.154
    23   1 H        0.924     0.089     1.893     2.152
    24   1 H        0.925     0.126     1.562     1.955
    25   1 H        0.860     0.224     0.994     1.561

Wiberg/Mayer (AO) data.
largest (>0.10) Wiberg bond orders for each atom

     #   Z sym  total        # sym  WBO       # sym  WBO       # sym  WBO
 ---------------------------------------------------------------------------
     1   6 C    3.913 --     2 N    0.993    16 H    0.967    17 H    0.962
                            15 H    0.950
     2   7 N    3.599 --     3 C    1.345     6 C    1.126     1 C    0.993
     3   6 C    3.724 --     2 N    1.345     4 N    1.247    18 H    0.955
     4   7 N    3.549 --     3 C    1.247     5 C    1.198    25 H    0.920
     5   6 C    3.776 --     6 C    1.222     4 N    1.198    13 N    1.190
     6   6 C    3.884 --     7 C    1.332     5 C    1.222     2 N    1.126
     7   6 C    2.677 --     6 C    1.332     9 N    1.197
     8   8 O    0.990 --    19 H    0.906
     9   7 N    3.671 --    10 C    1.369     7 C    1.197    11 C    0.956
    10   6 C    3.306 --     9 N    1.369    20 H    0.952    21 H    0.866
    11   6 C    3.857 --    12 O    1.709    13 N    1.100     9 N    0.956
    12   8 O    1.994 --    11 C    1.709    13 N    0.129
    13   7 N    3.526 --     5 C    1.190    11 C    1.100    14 C    0.971
                            12 O    0.129
    14   6 C    3.912 --    13 N    0.971    22 H    0.967    23 H    0.966
                            24 H    0.963
    15   1 H    0.975 --     1 C    0.950
    16   1 H    0.984 --     1 C    0.967
    17   1 H    0.979 --     1 C    0.962
    18   1 H    0.985 --     3 C    0.955
    19   1 H    0.908 --     8 O    0.906
    20   1 H    0.973 --    10 C    0.952
    21   1 H    0.952 --    10 C    0.866
    22   1 H    0.985 --    14 C    0.967
    23   1 H    0.985 --    14 C    0.966
    24   1 H    0.981 --    14 C    0.963
    25   1 H    0.948 --     4 N    0.920
 ---------------------------------------------------------------------------

molecular dipole:
                 x           y           z       tot (Debye)
 q only:        2.263      -2.374      -0.020
   full:        2.329      -2.805      -0.126       9.272

           -------------------------------------------------
          | TOTAL ENERGY              -42.077363736488 Eh   |
          | GRADIENT NORM               0.003086810809 Eh/α |
          | HOMO-LUMO GAP               0.604413872090 eV   |
           -------------------------------------------------

 * finished run on 2024/06/05 at 19:58:49.193
