   * xtb version 6.6.1 (8d0f1dd) compiled by 'conda@1efc2f54142f' on 2023-08-01
          program call               : xtb xtbopt.xyz --opt crude --input .xc2 --gfn2

   ID    Z sym.   atoms
    1    6 C      1, 3, 5-7, 10, 11, 14
    2    7 N      2, 4, 9, 13
    3    8 O      8, 12
    4    1 H      15-25

          :  Hamiltonian                  GFN2-xTB          :
 * total energy  :   -42.0773638 Eh     change        0.3907985E-12 Eh
 * total energy  :   -42.0774432 Eh     change       -0.7935979E-04 Eh
   *** GEOMETRY OPTIMIZATION CONVERGED AFTER 2 ITERATIONS ***

 final structure:
================
25
 xtb: 6.6.1 (8d0f1dd)
C            3.16802675780173        1.01021043776808        0.17660571820010
N            2.26629693062248       -0.10108521614307        0.07742936629130
C            2.57512062865314       -1.39873887186370       -0.01649473821602
N            1.43985259229560       -2.14478940944484       -0.06281343566103
C            0.37903045459260       -1.29677247947020        0.00632369420443
C            0.89314825110388        0.01308877370003        0.09395196801472
C            0.06205011692908        1.11153302706532        0.13879155981108
O           -0.91015577451940        4.36998302701991       -0.38896400844715
N           -1.27231257666697        0.86407576940015        0.12172685854997
C           -2.13360991791617        1.87870630873714        0.11332545278840
C           -1.84305923139290       -0.47160156232465        0.10651003885788
O           -3.03200888240745       -0.63156344037602        0.16482776828615
N           -0.95151859026586       -1.53512046979732        0.00519613648239
C           -1.48079324501320       -2.88317301709272       -0.09326655819115
H            3.43148191120702        1.19658886346021        1.22019558267294
H            4.07707966776663        0.81229206816727       -0.38812675820869
H            2.66901639484046        1.89676359562087       -0.21339260941650
H            3.56682000739061       -1.80134413301277       -0.04923516472796
H           -1.37168841334615        5.17150998978884       -0.64362622308559
H           -3.18893432311989        1.66581124582363        0.11709367815565
H           -1.71932266815849        2.89300748821330        0.04524264184033
H           -1.12327298859448       -3.49392774333850        0.73621679763677
H           -1.18842859830450       -3.33356491742755       -1.04286192732992
H           -2.56727696898383       -2.82254315861044       -0.04780869476221
H            1.41488997956638       -3.15110763425763       -0.14567552583241

          :  Hamiltonian                  GFN2-xTB          :
         :: total energy             -42.077443181222 Eh    ::
         :: gradient norm              0.001889875475 Eh/a0 ::
         :: HOMO-LUMO gap              0.605810145859 eV    ::
         :: SCC energy               -42.588805464313 Eh    ::
         :: -> dispersion             -0.021478800345 Eh    ::
         :: repulsion energy           0.511297916290 Eh    ::

    * Orbital Energies and Occupations

         #    Occupation            Energy/Eh            Energy/eV
      -------------------------------------------------------------
         1        2.0000           -0.9041161             -24.6023
       ...           ...                  ...                  ...
        25        1.9988           -0.6591945             -17.9376
        26        1.9986           -0.6556270             -17.8405
        27        1.9965           -0.6347119             -17.2714
        28        1.9958           -0.6302251             -17.1493
        29        1.9949           -0.6252930             -17.0151
        30        1.9947           -0.6245493             -16.9949
        31        1.9919           -0.6145304             -16.7222
        32        1.9843           -0.5986783             -16.2909
        33        1.9811           -0.5941759             -16.1683
        34        1.9453           -0.5684933             -15.4695
        35        1.6424           -0.5198713             -14.1464
        36        1.5939           -0.5161411             -14.0449
        37        1.5040           -0.5100082             -13.8780 (HOMO)
        38        1.0857           -0.4877451             -13.2722 (LUMO)
        39        0.2094           -0.4326927             -11.7742
        40        0.0608           -0.4014399             -10.9237
        41        0.0240           -0.3788953             -10.3103
        42        0.0005           -0.2877296              -7.8295
        43        0.0000           -0.2055024              -5.5920
        44        0.0000           -0.1936159              -5.2686
        45        0.0000           -0.1485256              -4.0416
        46        0.0000           -0.1185698              -3.2264
        47                         -0.0780392              -2.1236
        48                         -0.0530935              -1.4447
       ...                                ...                  ...
        67                          0.5193527              14.1323
      -------------------------------------------------------------
                  HL-Gap            0.0222631 Eh            0.6058 eV

     #   Z          covCN         q      C6AA      α(0)
     1   6 C        3.691    -0.089    22.400     6.773
     2   7 N        2.819     0.064    20.117     6.662
     3   6 C        3.038     0.045    26.956     8.516
     4   7 N        2.773    -0.060    22.394     7.028
     5   6 C        3.039     0.098    25.783     8.328
     6   6 C        3.096     0.031    27.183     8.545
     7   6 C        1.949    -0.081    33.286     9.317
     8   8 O        0.805    -0.506    23.951     6.560
     9   7 N        2.747     0.067    20.082     6.656
    10   6 C        2.826    -0.033    28.801     8.794
    11   6 C        2.735     0.299    21.926     7.666
    12   8 O        0.858    -0.336    20.437     6.061
    13   7 N        2.736    -0.035    21.922     6.954
    14   6 C        3.698    -0.072    22.053     6.717
    15   1 H        0.924     0.111     1.685     2.030
    16   1 H        0.925     0.104     1.751     2.069
    17   1 H        0.925     0.127     1.562     1.954
    18   1 H        0.926     0.118     1.630     1.997
    19   1 H        0.805     0.294     0.739     1.350
    20   1 H        0.926     0.130     1.532     1.935
    21   1 H        0.924     0.196     1.119     1.654
    22   1 H        0.924     0.088     1.898     2.155
    23   1 H        0.924     0.089     1.893     2.152
    24   1 H        0.925     0.126     1.562     1.954
    25   1 H        0.860     0.224     0.994     1.561

Wiberg/Mayer (AO) data.
largest (>0.10) Wiberg bond orders for each atom

     #   Z sym  total        # sym  WBO       # sym  WBO       # sym  WBO
 ---------------------------------------------------------------------------
     1   6 C    3.914 --     2 N    0.992    16 H    0.967    17 H    0.962
                            15 H    0.950
     2   7 N    3.599 --     3 C    1.345     6 C    1.126     1 C    0.992
     3   6 C    3.724 --     2 N    1.345     4 N    1.247    18 H    0.955
     4   7 N    3.549 --     3 C    1.247     5 C    1.199    25 H    0.920
     5   6 C    3.776 --     6 C    1.222     4 N    1.199    13 N    1.190
     6   6 C    3.883 --     7 C    1.332     5 C    1.222     2 N    1.126
     7   6 C    2.677 --     6 C    1.332     9 N    1.197
     8   8 O    0.993 --    19 H    0.906
     9   7 N    3.671 --    10 C    1.369     7 C    1.197    11 C    0.956
    10   6 C    3.303 --     9 N    1.369    20 H    0.952    21 H    0.862
    11   6 C    3.857 --    12 O    1.708    13 N    1.100     9 N    0.956
    12   8 O    1.993 --    11 C    1.708    13 N    0.129
    13   7 N    3.526 --     5 C    1.190    11 C    1.100    14 C    0.971
                            12 O    0.129
    14   6 C    3.912 --    13 N    0.971    22 H    0.967    23 H    0.966
                            24 H    0.963
    15   1 H    0.975 --     1 C    0.950
    16   1 H    0.984 --     1 C    0.967
    17   1 H    0.979 --     1 C    0.962
    18   1 H    0.985 --     3 C    0.955
    19   1 H    0.908 --     8 O    0.906
    20   1 H    0.973 --    10 C    0.952
    21   1 H    0.952 --    10 C    0.862
    22   1 H    0.985 --    14 C    0.967
    23   1 H    0.985 --    14 C    0.966
    24   1 H    0.981 --    14 C    0.963
    25   1 H    0.948 --     4 N    0.920
 ---------------------------------------------------------------------------

molecular dipole:
                 x           y           z       tot (Debye)
 q only:        2.269      -2.353       0.001
   full:        2.339      -2.781      -0.099       9.239

           -------------------------------------------------
          | TOTAL ENERGY              -42.077443181222 Eh   |
          | GRADIENT NORM               0.001889875475 Eh/α |
          | HOMO-LUMO GAP               0.605810145859 eV   |
           -------------------------------------------------

 * finished run on 2024/06/05 at 19:58:49.359
