   * xtb version 6.6.1 (8d0f1dd) compiled by 'conda@1efc2f54142f' on 2023-08-01
          program call               : xtb struc.xyz --opt loose --input .xc1 --gfn2

   ID    Z sym.   atoms
    1    6 C      1, 3, 5-7, 10, 11, 14
    2    7 N      2, 4, 9, 13
    3    8 O      8, 12
    4    1 H      15-25
constraining bond 1 18 to    5.1400000 Å, actual value:    2.8227330 Å

          :  Hamiltonian                  GFN2-xTB          :
 * total energy  :   -32.6574647 Eh     change       -0.6633627E-10 Eh
 * total energy  :   -36.6092384 Eh     change       -0.3951774E+01 Eh
 * total energy  :   -39.4349565 Eh     change       -0.2825718E+01 Eh
 * total energy  :   -41.1261161 Eh     change       -0.1691160E+01 Eh
 * total energy  :   -41.7792738 Eh     change       -0.6531577E+00 Eh
 * total energy  :   -41.8724795 Eh     change       -0.9320566E-01 Eh
 * total energy  :   -41.8881831 Eh     change       -0.1570357E-01 Eh
 * total energy  :   -41.9302204 Eh     change       -0.4203738E-01 Eh
 * total energy  :   -41.9393882 Eh     change       -0.9167777E-02 Eh
 * total energy  :   -41.9511005 Eh     change       -0.1171233E-01 Eh
 * total energy  :   -42.0550515 Eh     change       -0.2022213E-02 Eh
 * total energy  :   -42.0561009 Eh     change       -0.1049424E-02 Eh
 * total energy  :   -42.0564718 Eh     change       -0.3708690E-03 Eh
 * total energy  :   -42.0566904 Eh     change       -0.2186145E-03 Eh
 * total energy  :   -42.0567733 Eh     change       -0.8295821E-04 Eh
 * total energy  :   -42.0568732 Eh     change       -0.9983913E-04 Eh
 * total energy  :   -42.0569232 Eh     change       -0.5006801E-04 Eh
 * total energy  :   -42.0569523 Eh     change       -0.2909011E-04 Eh
 * total energy  :   -42.0569806 Eh     change       -0.2824333E-04 Eh
   *** GEOMETRY OPTIMIZATION CONVERGED AFTER 34 ITERATIONS ***

 final structure:
================
25
 xtb: 6.6.1 (8d0f1dd)
C            3.16789312868508        1.30822366945112        0.01827605889932
N            2.25512757833294        0.19364541178575        0.00209489542003
C            2.57494520401126       -1.10715113599419       -0.00526888866928
N            1.42514599707875       -1.81837551370023       -0.00670708249597
C            0.36006564307707       -0.96665589462805        0.00072751715206
C            0.88886359955528        0.31999595215818        0.00717247417096
C            0.02421667070705        1.48660814506074       -0.00151678479033
O            0.38445282579550        2.63795637276919       -0.01434065835985
N           -1.32251128780467        1.12017199012332        0.00209776773606
C           -2.30983799043700        2.19239048580730       -0.00116644012319
C           -1.86273653488176       -0.15185292802300        0.00512529780644
O           -3.04468298523147       -0.35126187745776        0.00910075612374
N           -0.95268467420951       -1.23434842762163        0.00156691377447
C           -1.46892449759048       -2.58494387372959       -0.00285743671005
H            3.66220449668342        1.36749318810182        0.98948410871902
H            3.93243260939112        1.17183995891094       -0.74560496307348
H            2.61776124828903        2.22954144398692       -0.16029248487394
H            3.95429766541814       -3.76978349005413       -0.03626767577298
H           -1.78351115308658        3.14338104657055        0.00893745845697
H           -2.93547398771912        2.11523552383486       -0.89052029644304
H           -2.95195213907099        2.10404828106907        0.87516656287803
H           -1.13353786740566       -3.12387917222374        0.88438194953032
H           -1.14598874849442       -3.11346410867329       -0.90101432255243
H           -2.55682942732965       -2.52409930473178        0.00491304739868
H            1.38169614033665       -2.82647720119238       -0.01231615630163

          :  Hamiltonian                  GFN2-xTB          :
         :: total energy             -42.056980565703 Eh    ::
         :: gradient norm              0.003290141679 Eh/a0 ::
         :: HOMO-LUMO gap              0.443744422991 eV    ::
         :: SCC energy               -42.563168532113 Eh    ::
         :: -> dispersion             -0.022562097604 Eh    ::
         :: repulsion energy           0.506084790261 Eh    ::

    * Orbital Energies and Occupations

         #    Occupation            Energy/Eh            Energy/eV
      -------------------------------------------------------------
         1        2.0000           -0.8998675             -24.4866
       ...           ...                  ...                  ...
        25        2.0000           -0.6678914             -18.1742
        26        2.0000           -0.6655592             -18.1108
        27        2.0000           -0.6388503             -17.3840
        28        2.0000           -0.6349135             -17.2769
        29        1.9999           -0.6247084             -16.9992
        30        1.9999           -0.6191237             -16.8472
        31        1.9994           -0.6073997             -16.5282
        32        1.9994           -0.6065137             -16.5041
        33        1.9957           -0.5913494             -16.0914
        34        1.9719           -0.5764136             -15.6850
        35        1.9438           -0.5708235             -15.5329
        36        1.7157           -0.5569992             -15.1567
        37        1.6398           -0.5547682             -15.0960 (HOMO)
        38        0.7345           -0.5384609             -14.6523 (LUMO)
        39        0.0000           -0.4229514             -11.5091
        40                         -0.3945037             -10.7350
        41                         -0.3760722             -10.2334
        42                         -0.2952598              -8.0344
        43                         -0.2103540              -5.7240
        44                         -0.1715047              -4.6669
        45                         -0.1442559              -3.9254
        46                         -0.1321489              -3.5960
        47                         -0.0731228              -1.9898
        48                         -0.0411498              -1.1197
       ...                                ...                  ...
        67                          0.5474436              14.8967
      -------------------------------------------------------------
                  HL-Gap            0.0163073 Eh            0.4437 eV

     #   Z          covCN         q      C6AA      α(0)
     1   6 C        3.691    -0.086    22.329     6.762
     2   7 N        2.844     0.082    19.821     6.612
     3   6 C        2.076    -0.046    32.161     9.161
     4   7 N        2.809    -0.063    22.463     7.039
     5   6 C        3.021     0.117    25.401     8.267
     6   6 C        3.097    -0.009    28.125     8.691
     7   6 C        2.764     0.275    22.350     7.742
     8   8 O        0.858    -0.338    20.473     6.066
     9   7 N        2.745    -0.078    22.760     7.085
    10   6 C        3.711    -0.063    21.844     6.679
    11   6 C        2.730     0.319    21.577     7.605
    12   8 O        0.859    -0.341    20.532     6.075
    13   7 N        2.738    -0.043    22.064     6.976
    14   6 C        3.697    -0.071    22.041     6.715
    15   1 H        0.924     0.110     1.698     2.038
    16   1 H        0.925     0.110     1.696     2.037
    17   1 H        0.925     0.123     1.591     1.973
    18   1 H        0.000     0.145     3.548     3.444
    19   1 H        0.925     0.116     1.644     2.005
    20   1 H        0.925     0.105     1.742     2.064
    21   1 H        0.925     0.105     1.739     2.062
    22   1 H        0.924     0.092     1.856     2.130
    23   1 H        0.924     0.093     1.854     2.129
    24   1 H        0.925     0.129     1.540     1.941
    25   1 H        0.860     0.216     1.029     1.589

Wiberg/Mayer (AO) data.
largest (>0.10) Wiberg bond orders for each atom

     #   Z sym  total        # sym  WBO       # sym  WBO       # sym  WBO
 ---------------------------------------------------------------------------
     1   6 C    3.910 --     2 N    0.994    17 H    0.961    16 H    0.959
                            15 H    0.950
     2   7 N    3.651 --     3 C    1.355     6 C    1.183     1 C    0.994
     3   6 C    2.906 --     2 N    1.355     4 N    1.293
     4   7 N    3.585 --     3 C    1.293     5 C    1.189    25 H    0.924
     5   6 C    3.904 --     6 C    1.311    13 N    1.227     4 N    1.189
     6   6 C    3.815 --     5 C    1.311     2 N    1.183     7 C    1.059
     7   6 C    3.952 --     8 O    1.697     9 N    1.100     6 C    1.059
     8   8 O    2.013 --     7 C    1.697     9 N    0.137
     9   7 N    3.535 --    11 C    1.127     7 C    1.100    10 C    0.969
                             8 O    0.137    12 O    0.131
    10   6 C    3.897 --     9 N    0.969    19 H    0.968    21 H    0.957
                            20 H    0.957
    11   6 C    3.955 --    12 O    1.708     9 N    1.127    13 N    1.029
    12   8 O    2.025 --    11 C    1.708     9 N    0.131    13 N    0.106
    13   7 N    3.488 --     5 C    1.227    11 C    1.029    14 C    0.980
                            12 O    0.106
    14   6 C    3.912 --    13 N    0.980    24 H    0.963    22 H    0.961
                            23 H    0.961
    15   1 H    0.977 --     1 C    0.950
    16   1 H    0.980 --     1 C    0.959
    17   1 H    0.981 --     1 C    0.961
    18   1 H    0.101
    19   1 H    0.985 --    10 C    0.968
    20   1 H    0.976 --    10 C    0.957
    21   1 H    0.976 --    10 C    0.957
    22   1 H    0.978 --    14 C    0.961
    23   1 H    0.978 --    14 C    0.961
    24   1 H    0.983 --    14 C    0.963
    25   1 H    0.952 --     4 N    0.924
 ---------------------------------------------------------------------------

molecular dipole:
                 x           y           z       tot (Debye)
 q only:        2.106      -2.163       0.000
   full:        1.933      -2.455       0.006       7.941

           -------------------------------------------------
          | TOTAL ENERGY              -42.056980565703 Eh   |
          | GRADIENT NORM               0.003290141679 Eh/α |
          | HOMO-LUMO GAP               0.443744422991 eV   |
           -------------------------------------------------

 * finished run on 2024/06/05 at 19:57:52.929
