   * xtb version 6.6.1 (8d0f1dd) compiled by 'conda@1efc2f54142f' on 2023-08-01
          program call               : xtb struc.xyz --opt loose --input .xc1 --gfn2

   ID    Z sym.   atoms
    1    6 C      1, 3, 5-7, 10, 11, 14
    2    7 N      2, 4, 9, 13
    3    8 O      8, 12
    4    1 H      15-25
constraining bond 11 19 to    5.1400000 Å, actual value:    3.2966745 Å

          :  Hamiltonian                  GFN2-xTB          :
 * total energy  :   -30.1139215 Eh     change       -0.6650680E-10 Eh
 * total energy  :   -36.5084496 Eh     change       -0.6394528E+01 Eh
 * total energy  :   -40.1673380 Eh     change       -0.3658888E+01 Eh
 * total energy  :   -41.6530686 Eh     change       -0.1485731E+01 Eh
 * total energy  :   -41.9203033 Eh     change       -0.2672347E+00 Eh
 * total energy  :   -41.9312503 Eh     change       -0.1094704E-01 Eh
 * total energy  :   -41.9439116 Eh     change       -0.1266134E-01 Eh
 * total energy  :   -41.9617824 Eh     change       -0.1787077E-01 Eh
 * total energy  :   -41.9739813 Eh     change       -0.1219886E-01 Eh
 * total energy  :   -41.9816118 Eh     change       -0.7630498E-02 Eh
 * total energy  :   -42.1031445 Eh     change       -0.2229446E-02 Eh
 * total energy  :   -42.1045663 Eh     change       -0.1421826E-02 Eh
 * total energy  :   -42.1053317 Eh     change       -0.7653396E-03 Eh
 * total energy  :   -42.1055844 Eh     change       -0.2526874E-03 Eh
 * total energy  :   -42.1058091 Eh     change       -0.2247589E-03 Eh
 * total energy  :   -42.1059115 Eh     change       -0.1023412E-03 Eh
 * total energy  :   -42.1059692 Eh     change       -0.5773001E-04 Eh
 * total energy  :   -42.1060159 Eh     change       -0.4665756E-04 Eh
 * total energy  :   -42.1060397 Eh     change       -0.2381851E-04 Eh
   *** GEOMETRY OPTIMIZATION CONVERGED AFTER 53 ITERATIONS ***

 final structure:
================
25
 xtb: 6.6.1 (8d0f1dd)
C            3.13028617186462        1.15424164300155       -0.04889940022357
N            2.21939709841708        0.04160164924858       -0.03182906307054
C            2.53500050445519       -1.25055730187862       -0.00355529353038
N            1.40691717157358       -1.99834128524975        0.02220163835401
C            0.33948909787509       -1.15115092437129        0.01036843550085
C            0.84384468299917        0.14217502104753       -0.02245543319335
C           -0.00390930656183        1.29665576066647       -0.05304584201578
O            0.33107947477626        2.45956123980593       -0.10457871745272
N           -1.39234667379994        0.92542185912181       -0.01714939455499
C           -2.29072626166254        1.91986179072745       -0.02314097312768
C           -1.90791616663491       -0.40642890474193        0.01115889224045
O           -3.08970104789041       -0.61467287603002        0.02944413590344
N           -0.97763872547705       -1.44076233879560        0.02223088038902
C           -1.44884107636890       -2.81303359500014        0.05352826757082
H            3.62291170658164        1.25618757162643        0.91934565879424
H            3.89047487243361        1.00979548420151       -0.81572396861251
H            2.56738980031322        2.06388298140557       -0.25364791991463
H            3.53056883142081       -1.64700870701406       -0.00223785638336
H           -1.51219096214095        4.71658959977220        0.13076025277052
H           -1.93104273987440        2.94831764424159       -0.01619148242582
H           -3.33531922747779        1.66851944144528       -0.00239029614848
H           -1.10944997893313       -3.31025505145554        0.96237990071646
H           -1.09947374401755       -3.35374973301018       -0.82642628984089
H           -2.53749527892760       -2.79110830956858        0.04755067840872
H            1.37912329115423       -3.00750411759511        0.04347480774599

          :  Hamiltonian                  GFN2-xTB          :
         :: total energy             -42.106039682421 Eh    ::
         :: gradient norm              0.002836411162 Eh/a0 ::
         :: HOMO-LUMO gap              0.089389797317 eV    ::
         :: SCC energy               -42.624282670067 Eh    ::
         :: -> dispersion             -0.022900831184 Eh    ::
         :: repulsion energy           0.518154007310 Eh    ::

    * Orbital Energies and Occupations

         #    Occupation            Energy/Eh            Energy/eV
      -------------------------------------------------------------
         1        2.0000           -0.9109379             -24.7879
       ...           ...                  ...                  ...
        25        2.0000           -0.6715836             -18.2747
        26        2.0000           -0.6689637             -18.2034
        27        2.0000           -0.6628087             -18.0359
        28        1.9999           -0.6328451             -17.2206
        29        1.9999           -0.6299397             -17.1415
        30        1.9999           -0.6280018             -17.0888
        31        1.9998           -0.6187646             -16.8374
        32        1.9997           -0.6141150             -16.7109
        33        1.9997           -0.6138457             -16.7036
        34        1.9982           -0.5852908             -15.9266
        35        1.9943           -0.5666435             -15.4192
        36        1.9905           -0.5585638             -15.1993
        37        0.9910           -0.4736805             -12.8895 (HOMO)
        38        0.8877           -0.4703955             -12.8001 (LUMO)
        39        0.1185           -0.4301816             -11.7058
        40        0.0177           -0.3992925             -10.8653
        41        0.0032           -0.3721843             -10.1277
        42        0.0000           -0.2876225              -7.8266
        43        0.0000           -0.2084778              -5.6730
        44                         -0.1964307              -5.3452
        45                         -0.1510031              -4.1090
        46                         -0.1456644              -3.9637
        47                         -0.0783689              -2.1325
        48                         -0.0543610              -1.4792
       ...                                ...                  ...
        67                          0.5466450              14.8750
      -------------------------------------------------------------
                  HL-Gap            0.0032850 Eh            0.0894 eV

     #   Z          covCN         q      C6AA      α(0)
     1   6 C        3.691    -0.094    22.484     6.785
     2   7 N        2.830     0.077    19.901     6.626
     3   6 C        3.049     0.047    26.902     8.507
     4   7 N        2.791    -0.058    22.364     7.024
     5   6 C        3.043     0.105    25.631     8.304
     6   6 C        3.108    -0.023    28.438     8.737
     7   6 C        2.775     0.254    22.739     7.810
     8   8 O        0.857    -0.364    20.975     6.140
     9   7 N        2.740    -0.031    21.845     6.942
    10   6 C        2.813    -0.021    28.526     8.751
    11   6 C        2.737     0.308    21.760     7.637
    12   8 O        0.859    -0.350    20.714     6.102
    13   7 N        2.737    -0.049    22.184     6.995
    14   6 C        3.699    -0.073    22.075     6.720
    15   1 H        0.924     0.108     1.717     2.049
    16   1 H        0.925     0.104     1.748     2.067
    17   1 H        0.925     0.134     1.504     1.918
    18   1 H        0.926     0.123     1.586     1.969
    19   1 H        0.000     0.013     7.097     4.871
    20   1 H        0.925     0.137     1.483     1.905
    21   1 H        0.926     0.130     1.536     1.938
    22   1 H        0.925     0.084     1.938     2.177
    23   1 H        0.924     0.084     1.941     2.179
    24   1 H        0.925     0.127     1.557     1.951
    25   1 H        0.860     0.229     0.970     1.543

Wiberg/Mayer (AO) data.
largest (>0.10) Wiberg bond orders for each atom

     #   Z sym  total        # sym  WBO       # sym  WBO       # sym  WBO
 ---------------------------------------------------------------------------
     1   6 C    3.917 --     2 N    0.987    16 H    0.964    17 H    0.961
                            15 H    0.956
     2   7 N    3.648 --     3 C    1.378     6 C    1.145     1 C    0.987
     3   6 C    3.820 --     2 N    1.378     4 N    1.267    18 H    0.953
     4   7 N    3.579 --     3 C    1.267     5 C    1.193    25 H    0.919
     5   6 C    3.899 --     6 C    1.329     4 N    1.193    13 N    1.189
     6   6 C    3.909 --     5 C    1.329     2 N    1.145     7 C    1.116
     7   6 C    3.867 --     8 O    1.671     6 C    1.116     9 N    0.988
     8   8 O    1.954 --     7 C    1.671     9 N    0.107
     9   7 N    3.614 --    10 C    1.348    11 C    1.010     7 C    0.988
                             8 O    0.107
    10   6 C    3.304 --     9 N    1.348    21 H    0.958    20 H    0.911
    11   6 C    3.902 --    12 O    1.709    13 N    1.090     9 N    1.010
    12   8 O    2.020 --    11 C    1.709    13 N    0.135
    13   7 N    3.566 --     5 C    1.189    11 C    1.090    14 C    0.971
                            12 O    0.135
    14   6 C    3.924 --    23 H    0.972    22 H    0.971    13 N    0.971
                            24 H    0.965
    15   1 H    0.983 --     1 C    0.956
    16   1 H    0.986 --     1 C    0.964
    17   1 H    0.982 --     1 C    0.961
    18   1 H    0.984 --     3 C    0.953
    19   1 H    0.055
    20   1 H    0.980 --    10 C    0.911
    21   1 H    0.980 --    10 C    0.958
    22   1 H    0.991 --    14 C    0.971
    23   1 H    0.991 --    14 C    0.972
    24   1 H    0.983 --    14 C    0.965
    25   1 H    0.947 --     4 N    0.919
 ---------------------------------------------------------------------------

molecular dipole:
                 x           y           z       tot (Debye)
 q only:        2.298      -1.984       0.043
   full:        2.542      -2.432       0.063       8.942

           -------------------------------------------------
          | TOTAL ENERGY              -42.106039682421 Eh   |
          | GRADIENT NORM               0.002836411162 Eh/α |
          | HOMO-LUMO GAP               0.089389797317 eV   |
           -------------------------------------------------

 * finished run on 2024/06/05 at 19:59:19.085
