   * xtb version 6.6.1 (8d0f1dd) compiled by 'conda@1efc2f54142f' on 2023-08-01
          program call               : xtb struc.xyz --opt loose --input .xc1 --gfn2

   ID    Z sym.   atoms
    1    7 N      1, 17
    2    6 C      2-6, 8, 9, 11-16, 18-23, 25, 26, 28-33
    3    8 O      7, 10, 24, 27
    4    1 H      34-72
constraining bond 16 49 to    5.1400000 Å, actual value:    3.1811537 Å

          :  Hamiltonian                  GFN2-xTB          :
 * total energy  :   -98.7190082 Eh     change       -0.4035485E-08 Eh
 * total energy  :   -98.9576955 Eh     change       -0.2386873E+00 Eh
 * total energy  :   -99.0867829 Eh     change       -0.1290874E+00 Eh
 * total energy  :   -99.1512372 Eh     change       -0.6445430E-01 Eh
 * total energy  :   -99.1845178 Eh     change       -0.3328063E-01 Eh
 * total energy  :   -99.2086035 Eh     change       -0.2408571E-01 Eh
 * total energy  :   -99.2332356 Eh     change       -0.2463203E-01 Eh
 * total energy  :   -99.2578034 Eh     change       -0.2456780E-01 Eh
 * total energy  :   -99.2739652 Eh     change       -0.1616179E-01 Eh
 * total energy  :   -99.2959595 Eh     change       -0.2199432E-01 Eh
 * total energy  :   -99.3471317 Eh     change       -0.8133342E-04 Eh
 * total energy  :   -99.3472495 Eh     change       -0.1178093E-03 Eh
 * total energy  :   -99.3473528 Eh     change       -0.1032724E-03 Eh
 * total energy  :   -99.3474791 Eh     change       -0.1263137E-03 Eh
 * total energy  :   -99.3475924 Eh     change       -0.1133802E-03 Eh
 * total energy  :   -99.3476956 Eh     change       -0.1031485E-03 Eh
 * total energy  :   -99.3477188 Eh     change       -0.2320263E-04 Eh
 * total energy  :   -99.3478047 Eh     change       -0.8595038E-04 Eh
 * total energy  :   -99.3478405 Eh     change       -0.3573317E-04 Eh
   *** GEOMETRY OPTIMIZATION CONVERGED AFTER 54 ITERATIONS ***

 final structure:
================
72
 xtb: 6.6.1 (8d0f1dd)
N           -1.44761263642448        2.70047907623379        2.13322459613451
C           -1.67781991990698        1.82247779565289        1.27190489530324
C           -2.93463278791343        1.77284445808012        0.44552956706490
C           -3.49100458623103        0.35880720079501        0.46443492463877
C           -4.42682752547603       -0.04772426487158       -0.48807865623750
C           -4.98064087179412       -1.31717528316340       -0.46370957747132
O           -5.89227124466422       -1.78720462805049       -1.34302650222290
C           -6.42212517516362       -0.91931577220033       -2.31615390001945
C           -4.58905250188121       -2.23327596964197        0.54841485431583
O           -5.16593106896319       -3.45150189273662        0.48594519955239
C           -4.88434988316688       -4.39245302248065        1.49523077597255
C           -3.67618677535065       -1.81665414378316        1.50423899147274
C           -3.14135087018317       -0.53701630391295        1.46427803282974
C           -2.51218817801049        2.18915904386294       -0.98967138815893
C           -1.66400508995351        1.15850544959645       -1.74234234388728
C           -0.22595216660731        1.19052992880758       -1.36526785277842
N            0.65015585541037        0.25183934046488       -1.72377019119830
C            1.93138786010127        0.27958945379379       -1.35335174182625
C            2.98406058724794       -0.68287589079714       -1.80490300246057
C            4.30478533784654       -0.33550072857448       -1.17747365878992
C            5.09071929508456        0.66445902037272       -1.64585934806695
C            6.30174710728849        1.02227713575140       -1.02928594274229
C            6.74988351899844        0.35127430532756        0.10928899170428
O            7.89893989872975        0.62138097302029        0.77092784616653
C            8.73473885846079        1.65275848718134        0.29587087604232
C            5.99169876498269       -0.69633572427110        0.64166228075189
O            6.49197088380399       -1.31023492600410        1.72291770139386
C            5.83553593499355       -2.42494731629639        2.27719769237144
C            4.69446179294198       -1.11114117371242        0.03756856652685
C            0.15594396827247       -0.85222650231822       -2.52740918064944
C           -4.06190776797321        2.72277404563673        0.95140349068108
C           -4.46958591863578        2.39198961403924        2.38533858205274
C           -3.70827027988670        4.20446571553457        0.85280908059180
H           -4.73700732450408        0.64324991533869       -1.25429381090610
H           -6.90779267020014       -0.05186943764392       -1.85877335622951
H           -7.16484934793555       -1.50449007613895       -2.85498105637561
H           -5.65243374692061       -0.58071795643979       -3.01769381476574
H           -5.16871686724630       -4.01831903571996        2.48312741447483
H           -5.48443288333118       -5.26766192123441        1.25441468724053
H           -3.82526872678781       -4.66998764046213        1.50112487113406
H           -3.38066746981743       -2.47982425203529        2.30095047266411
H           -2.45994491699437       -0.23879437306929        2.24601258790389
H           -3.41771267033054        2.37891398435860       -1.56560346590118
H           -1.96213279858624        3.12814875035938       -0.93066269420516
H           -2.08550351836222        0.16099245125089       -1.58135087884103
H           -1.76171794434281        1.37253686633362       -2.81671383049294
H           -0.96154405676252        1.03056757708346        0.99938082848145
H            0.16657627242112        2.05237096205406       -0.85233483829287
H            3.89097617373951       -1.01942504162019        0.78686421678618
H            2.24370406559501        1.12661281441154       -0.76559988667116
H            3.09081082301974       -0.63901092948345       -2.89685071339015
H            2.71676030062905       -1.71301700579714       -1.54039863674729
H            4.78820908165067        1.21311093161256       -2.52524993955605
H            6.88351988021690        1.82101892742143       -1.45449953952695
H            8.22423040477619        2.62007811044927        0.30480767238505
H            9.10110657686718        1.43945374713691       -0.71260981632845
H            9.57602594970208        1.68292024328331        0.98549003098291
H            6.43979508830044       -2.72617915034511        3.13068930858739
H            4.82675294482607       -2.17541114984047        2.61915430599636
H            5.78138746664147       -3.25403866335449        1.56503720725938
H            4.73555111238052       -2.18288714119388       -0.21294213477904
H           -0.40168597246711       -0.46549059466569       -3.37917827423643
H           -0.50843554015669       -1.48258536615932       -1.93488617367148
H            0.97691339952610       -1.45655352502889       -2.89615594536303
H           -4.92803721530855        2.53486710115926        0.30498185493576
H           -3.65037105245966        2.60694035416441        3.06477421670108
H           -4.74949795673892        1.34600903461502        2.48523791813778
H           -5.32267528059559        3.00137958180833        2.67191812056582
H           -2.80502345483399        4.41099410507638        1.41792676818835
H           -3.57177738844157        4.52367667402711       -0.17679780443137
H           -4.51986848464970        4.79105906746643        1.27622012149899
H           -0.55302107148114        2.66547408201390        2.61284519034903

          :  Hamiltonian                  GFN2-xTB          :
         :: total energy             -99.347840508827 Eh    ::
         :: gradient norm              0.001478101839 Eh/a0 ::
         :: HOMO-LUMO gap              0.852738780410 eV    ::
         :: SCC energy              -100.714118743100 Eh    ::
         :: -> dispersion             -0.072488955680 Eh    ::
         :: repulsion energy           1.365002578846 Eh    ::

    * Orbital Energies and Occupations

         #    Occupation            Energy/Eh            Energy/eV
      -------------------------------------------------------------
         1        2.0000           -0.8276316             -22.5210
       ...           ...                  ...                  ...
        78        1.9989           -0.5289748             -14.3941
        79        1.9987           -0.5274096             -14.3515
        80        1.9982           -0.5218356             -14.1999
        81        1.9982           -0.5214403             -14.1891
        82        1.9970           -0.5137358             -13.9795
        83        1.9952           -0.5062698             -13.7763
        84        1.9947           -0.5046490             -13.7322
        85        1.9936           -0.5015510             -13.6479
        86        1.9784           -0.4822674             -13.1232
        87        1.9513           -0.4691701             -12.7668
        88        1.9242           -0.4619290             -12.5697
        89        1.8602           -0.4517130             -12.2917
        90        1.5859           -0.4319887             -11.7550 (HOMO)
        91        0.6921           -0.4006511             -10.9023 (LUMO)
        92        0.0197           -0.3377099              -9.1896
        93        0.0102           -0.3272966              -8.9062
        94        0.0046           -0.3146976              -8.5634
        95        0.0030           -0.3080022              -8.3812
        96        0.0025           -0.3048514              -8.2954
        97        0.0000           -0.2276436              -6.1945
        98        0.0000           -0.1823260              -4.9613
        99                         -0.1026282              -2.7927
       100                         -0.0824765              -2.2443
       101                         -0.0720636              -1.9610
       ...                                ...                  ...
       171                          0.5798537              15.7786
      -------------------------------------------------------------
                  HL-Gap            0.0313376 Eh            0.8527 eV

     #   Z          covCN         q      C6AA      α(0)
     1   7 N        1.774    -0.276    27.985     7.834
     2   6 C        2.828     0.103    25.710     8.309
     3   6 C        3.907     0.006    20.415     6.422
     4   6 C        2.975     0.001    27.990     8.678
     5   6 C        2.920    -0.079    29.981     8.979
     6   6 C        2.862     0.129    25.181     8.225
     7   8 O        1.706    -0.233    17.855     5.705
     8   6 C        3.644     0.029    20.427     6.496
     9   6 C        2.864     0.129    25.174     8.224
    10   8 O        1.706    -0.230    17.816     5.699
    11   6 C        3.645     0.028    20.436     6.497
    12   6 C        2.914    -0.072    29.785     8.949
    13   6 C        2.922    -0.049    29.224     8.865
    14   6 C        3.813    -0.064    21.725     6.634
    15   6 C        3.801    -0.063    21.706     6.633
    16   6 C        2.872    -0.048    29.193     8.857
    17   7 N        2.730     0.080    19.862     6.619
    18   6 C        2.869    -0.054    29.343     8.880
    19   6 C        3.807    -0.065    21.735     6.637
    20   6 C        2.958    -0.007    28.200     8.710
    21   6 C        2.906    -0.043    29.064     8.840
    22   6 C        2.913    -0.071    29.762     8.946
    23   6 C        2.850     0.130    25.159     8.221
    24   8 O        1.706    -0.237    17.933     5.718
    25   6 C        3.644     0.026    20.476     6.504
    26   6 C        2.851     0.125    25.248     8.235
    27   8 O        1.706    -0.197    17.291     5.614
    28   6 C        3.643     0.021    20.569     6.520
    29   6 C        3.811    -0.075    21.918     6.664
    30   6 C        3.717    -0.077    22.101     6.716
    31   6 C        3.854    -0.007    20.669     6.466
    32   6 C        3.756    -0.115    22.764     6.803
    33   6 C        3.755    -0.120    22.864     6.818
    34   1 H        0.926     0.051     2.307     2.375
    35   1 H        0.924     0.053     2.288     2.365
    36   1 H        0.925     0.079     1.986     2.204
    37   1 H        0.924     0.046     2.376     2.410
    38   1 H        0.924     0.054     2.272     2.357
    39   1 H        0.925     0.079     1.986     2.204
    40   1 H        0.924     0.048     2.346     2.395
    41   1 H        0.926     0.051     2.301     2.372
    42   1 H        0.926     0.042     2.425     2.435
    43   1 H        0.925     0.055     2.258     2.350
    44   1 H        0.925     0.056     2.244     2.343
    45   1 H        0.924     0.059     2.214     2.327
    46   1 H        0.923     0.059     2.214     2.327
    47   1 H        0.923     0.008     2.927     2.676
    48   1 H        0.926     0.053     2.283     2.363
    49   1 H        0.923     0.080     1.978     2.199
    50   1 H        0.926     0.049     2.329     2.387
    51   1 H        0.923     0.067     2.121     2.277
    52   1 H        0.924     0.055     2.257     2.350
    53   1 H        0.926     0.056     2.246     2.343
    54   1 H        0.926     0.063     2.159     2.298
    55   1 H        0.924     0.053     2.283     2.363
    56   1 H        0.924     0.054     2.266     2.354
    57   1 H        0.925     0.082     1.962     2.190
    58   1 H        0.925     0.091     1.866     2.136
    59   1 H        0.924     0.057     2.232     2.336
    60   1 H        0.924     0.060     2.196     2.317
    61   1 H        0.923     0.081     1.971     2.195
    62   1 H        0.925     0.084     1.943     2.180
    63   1 H        0.924     0.079     1.987     2.205
    64   1 H        0.925     0.086     1.914     2.164
    65   1 H        0.924     0.035     2.510     2.478
    66   1 H        0.925     0.061     2.190     2.314
    67   1 H        0.925     0.034     2.529     2.487
    68   1 H        0.925     0.049     2.330     2.387
    69   1 H        0.925     0.068     2.111     2.272
    70   1 H        0.925     0.036     2.506     2.476
    71   1 H        0.925     0.052     2.290     2.366
    72   1 H        0.860     0.151     1.394     1.849

Wiberg/Mayer (AO) data.
largest (>0.10) Wiberg bond orders for each atom

     #   Z sym  total        # sym  WBO       # sym  WBO       # sym  WBO
 ---------------------------------------------------------------------------
     1   7 N    3.014 --     2 C    1.949    72 H    0.944
     2   6 C    3.938 --     1 N    1.949     3 C    0.994    47 H    0.925
     3   6 C    3.974 --     2 C    0.994     4 C    0.978    14 C    0.950
                            31 C    0.944
     4   6 C    3.946 --    13 C    1.409     5 C    1.371     3 C    0.978
     5   6 C    3.961 --     6 C    1.400     4 C    1.371    34 H    0.958
     6   6 C    3.901 --     5 C    1.400     9 C    1.225     7 O    1.094
     7   8 O    2.247 --     6 C    1.094     8 C    0.980
     8   6 C    3.934 --     7 O    0.980    36 H    0.977    35 H    0.974
                            37 H    0.974
     9   6 C    3.897 --    12 C    1.389     6 C    1.225    10 O    1.098
    10   8 O    2.247 --     9 C    1.098    11 C    0.978
    11   6 C    3.932 --    10 O    0.978    39 H    0.977    40 H    0.974
                            38 H    0.973
    12   6 C    3.962 --    13 C    1.411     9 C    1.389    41 H    0.964
    13   6 C    3.951 --    12 C    1.411     4 C    1.409    42 H    0.962
    14   6 C    3.986 --    15 C    1.003    44 H    0.971    43 H    0.968
                             3 C    0.950
    15   6 C    3.987 --    16 C    1.049    14 C    1.003    45 H    0.948
                            46 H    0.937
    16   6 C    3.650 --    17 N    1.338    15 C    1.049    48 H    0.960
                            18 C    0.214
    17   7 N    3.726 --    16 C    1.338    18 C    1.330    30 C    0.987
    18   6 C    3.615 --    17 N    1.330    19 C    1.022    50 H    0.963
                            16 C    0.214
    19   6 C    3.989 --    18 C    1.022    20 C    1.012    52 H    0.951
                            51 H    0.937
    20   6 C    3.784 --    21 C    1.612    29 C    1.029    19 C    1.012
    21   6 C    3.980 --    20 C    1.612    22 C    1.294    53 H    0.964
    22   6 C    3.737 --    23 C    1.335    21 C    1.294    54 H    0.965
    23   6 C    3.911 --    22 C    1.335    26 C    1.322    24 O    1.089
    24   8 O    2.243 --    23 C    1.089    25 C    0.976
    25   6 C    3.929 --    57 H    0.977    24 O    0.976    55 H    0.974
                            56 H    0.974
    26   6 C    3.668 --    23 C    1.322    27 O    1.147    29 C    1.034
    27   8 O    2.268 --    26 C    1.147    28 C    0.976
    28   6 C    3.924 --    58 H    0.976    27 O    0.976    59 H    0.970
                            60 H    0.968
    29   6 C    3.985 --    26 C    1.034    20 C    1.029    61 H    0.918
                            49 H    0.917
    30   6 C    3.956 --    17 N    0.987    64 H    0.973    62 H    0.970
                            63 H    0.966
    31   6 C    3.975 --    32 C    1.009    33 C    1.008    65 H    0.961
                             3 C    0.944
    32   6 C    3.982 --    31 C    1.009    68 H    0.982    67 H    0.981
                            66 H    0.977
    33   6 C    3.979 --    31 C    1.008    70 H    0.983    71 H    0.980
                            69 H    0.974
    34   1 H    0.996 --     5 C    0.958
    35   1 H    0.993 --     8 C    0.974
    36   1 H    0.993 --     8 C    0.977
    37   1 H    0.994 --     8 C    0.974
    38   1 H    0.993 --    11 C    0.973
    39   1 H    0.993 --    11 C    0.977
    40   1 H    0.993 --    11 C    0.974
    41   1 H    0.996 --    12 C    0.964
    42   1 H    0.997 --    13 C    0.962
    43   1 H    0.996 --    14 C    0.968
    44   1 H    0.996 --    14 C    0.971
    45   1 H    0.986 --    15 C    0.948
    46   1 H    0.975 --    15 C    0.937
    47   1 H    0.982 --     2 C    0.925
    48   1 H    0.997 --    16 C    0.960
    49   1 H    0.955 --    29 C    0.917
    50   1 H    0.997 --    18 C    0.963
    51   1 H    0.974 --    19 C    0.937
    52   1 H    0.982 --    19 C    0.951
    53   1 H    0.996 --    21 C    0.964
    54   1 H    0.995 --    22 C    0.965
    55   1 H    0.994 --    25 C    0.974
    56   1 H    0.994 --    25 C    0.974
    57   1 H    0.993 --    25 C    0.977
    58   1 H    0.991 --    28 C    0.976
    59   1 H    0.991 --    28 C    0.970
    60   1 H    0.989 --    28 C    0.968
    61   1 H    0.957 --    29 C    0.918
    62   1 H    0.992 --    30 C    0.970
    63   1 H    0.993 --    30 C    0.966
    64   1 H    0.992 --    30 C    0.973
    65   1 H    0.992 --    31 C    0.961
    66   1 H    0.993 --    32 C    0.977
    67   1 H    0.997 --    32 C    0.981
    68   1 H    0.995 --    32 C    0.982
    69   1 H    0.991 --    33 C    0.974
    70   1 H    0.997 --    33 C    0.983
    71   1 H    0.994 --    33 C    0.980
    72   1 H    0.971 --     1 N    0.944
 ---------------------------------------------------------------------------

molecular dipole:
                 x           y           z       tot (Debye)
 q only:        1.847      -0.737      -1.156
   full:        2.057      -1.004      -1.302       6.695

           -------------------------------------------------
          | TOTAL ENERGY              -99.347840508827 Eh   |
          | GRADIENT NORM               0.001478101839 Eh/α |
          | HOMO-LUMO GAP               0.852738780410 eV   |
           -------------------------------------------------

 * finished run on 2024/04/06 at 11:13:28.774
