   * xtb version 6.6.1 (8d0f1dd) compiled by 'conda@1efc2f54142f' on 2023-08-01
          program call               : xtb struc.xyz --opt loose --input .xc1 --gfn2

   ID    Z sym.   atoms
    1    6 C      1, 3, 5-7, 10, 11, 14
    2    7 N      2, 4, 9, 13
    3    8 O      8, 12
    4    1 H      15-25
constraining bond 5 17 to    4.7133300 Å, actual value:    3.9116783 Å

          :  Hamiltonian                  GFN2-xTB          :
 * total energy  :   -43.3927473 Eh     change       -0.6633627E-10 Eh
 * total energy  :   -46.2497999 Eh     change       -0.2857053E+01 Eh
 * total energy  :   -50.4858930 Eh     change       -0.4236093E+01 Eh
 * total energy  :   -56.1809181 Eh     change       -0.5695025E+01 Eh
 * total energy  :   -63.2268731 Eh     change       -0.7045955E+01 Eh
 * total energy  :   -71.0239287 Eh     change       -0.7797056E+01 Eh
 * total energy  :   -64.8507632 Eh     change        0.6173166E+01 Eh
 * total energy  :   -71.6075015 Eh     change       -0.6756738E+01 Eh
 * total energy  :   -72.4034891 Eh     change       -0.7959876E+00 Eh
 * total energy  :   -72.5758878 Eh     change       -0.1723988E+00 Eh
 * total energy  :   -73.2406399 Eh     change        0.1303461E-02 Eh
 * total energy  :   -73.2401860 Eh     change        0.4538697E-03 Eh
 * total energy  :   -73.2390229 Eh     change        0.1163175E-02 Eh
 * total energy  :   -73.2407960 Eh     change       -0.1773153E-02 Eh
 * total energy  :   -73.2407203 Eh     change        0.7574857E-04 Eh
 * total energy  :   -73.2420776 Eh     change       -0.1357314E-02 Eh
 * total energy  :   -73.2420241 Eh     change        0.5348427E-04 Eh
 * total energy  :   -73.2423135 Eh     change       -0.2893779E-03 Eh
 * total energy  :   -73.2423308 Eh     change       -0.1727881E-04 Eh
   *** GEOMETRY OPTIMIZATION CONVERGED AFTER 103 ITERATIONS ***

 final structure:
================
25
 xtb: 6.6.1 (8d0f1dd)
C            4.86816343645953       -0.55905666034722        0.23310138175121
N            3.69983961155850       -0.92484342214886        0.01849322595670
C            2.47893150031720       -1.18677321571203        0.33817355077672
N            1.45146306736202       -0.39801903202286        0.13319029645170
C            1.61894399035582        0.98610283187852       -0.31869401542572
C            0.41107527317499        1.57949821556245       -0.43566077245040
C           -0.97494779007380        1.75884631018523       -0.41116374815099
O           -0.09740997448004        2.80476481225544       -0.77933717183678
N           -2.13565762943054        1.41434573070312       -0.24999243873803
C           -3.28092864075372        2.25682382929979       -0.41756902807287
C           -1.71238082436588       -1.05523150218656        1.40950284424547
O           -2.14409490092859       -0.40514782301514        2.25471975055220
N           -1.04669419814405       -1.59411155081854        0.56672912884759
C           -1.16764849521405       -2.67806903932450       -0.36321977607507
H            5.19539726219414       -0.16548914501910        1.19314737085796
H            5.59754103587772       -0.63103499427887       -0.56537153174635
H            1.96831626585235        1.12700699914829       -0.38985176739932
H            2.27500212929417       -2.20335834220253        0.66523821411019
H           -3.04147332432553        3.26426684578769       -0.76295550891433
H           -3.94787023336347        1.76336091463547       -1.12381794240112
H           -3.78860031075273        2.30148161686098        0.54612681541806
H           -0.69556040718111       -3.56979318193091        0.05317969237989
H           -0.65846286858926       -2.39772658994092       -1.28500335127552
H           -2.20898778062113       -2.90220305572163       -0.58772738613980
H            0.49647565314298       -0.76740222355867        0.30993386745081

          :  Hamiltonian                  GFN2-xTB          :
         :: total energy             -73.242330752127 Eh    ::
         :: gradient norm              0.002740682553 Eh/a0 ::
         :: HOMO-LUMO gap              1.895195485378 eV    ::
         :: SCC energy               -42.685068555464 Eh    ::
         :: -> dispersion             -0.018806471969 Eh    ::
         :: repulsion energy           2.918637366457 Eh    ::

    * Orbital Energies and Occupations

         #    Occupation            Energy/Eh            Energy/eV
      -------------------------------------------------------------
         1        2.0000           -0.8886640             -24.1818
       ...           ...                  ...                  ...
        25        2.0000           -0.6579325             -17.9033
        26        2.0000           -0.6504513             -17.6997
        27        2.0000           -0.6377996             -17.3554
        28        2.0000           -0.6354641             -17.2919
        29        2.0000           -0.6335095             -17.2387
        30        2.0000           -0.6297975             -17.1377
        31        2.0000           -0.6083878             -16.5551
        32        2.0000           -0.5880519             -16.0017
        33        1.9998           -0.5594775             -15.2242
        34        1.9997           -0.5578955             -15.1811
        35        1.9991           -0.5491847             -14.9441
        36        1.9987           -0.5466642             -14.8755
        37        1.9762           -0.5232927             -14.2395 (HOMO)
        38        0.0248           -0.4536456             -12.3443 (LUMO)
        39        0.0017           -0.4321460             -11.7593
        40        0.0000           -0.3887711             -10.5790
        41                         -0.3387650              -9.2183
        42                         -0.3131349              -8.5208
        43                         -0.2988655              -8.1325
        44                         -0.2456143              -6.6835
        45                         -0.1509491              -4.1075
        46                         -0.1073105              -2.9201
        47                         -0.0900347              -2.4500
        48                         -0.0786564              -2.1403
       ...                                ...                  ...
        67                         14.1662769             385.4840
      -------------------------------------------------------------
                  HL-Gap            0.0696472 Eh            1.8952 eV

     #   Z          covCN         q      C6AA      α(0)
     1   6 C        2.766     0.038    27.129     8.530
     2   7 N        1.830    -0.004    22.041     6.957
     3   6 C        2.763     0.118    25.390     8.252
     4   7 N        2.713    -0.099    23.184     7.151
     5   6 C        2.829    -0.092    30.298     9.020
     6   6 C        2.905     0.125    25.259     8.241
     7   6 C        2.768     0.227    23.225     7.893
     8   8 O        1.702    -0.235    17.900     5.712
     9   7 N        1.819    -0.181    25.729     7.516
    10   6 C        3.710    -0.037    21.373     6.607
    11   6 C        1.773     0.319    24.071     7.932
    12   8 O        0.856    -0.225    18.482     5.764
    13   7 N        1.820    -0.220    26.623     7.645
    14   6 C        3.689    -0.036    21.405     6.622
    15   1 H        0.925     0.129     1.543     1.942
    16   1 H        0.925     0.144     1.434     1.872
    17   1 H        1.004     0.189     1.151     1.676
    18   1 H        0.925     0.129     1.542     1.942
    19   1 H        0.924     0.063     2.163     2.300
    20   1 H        0.925     0.091     1.869     2.138
    21   1 H        0.925     0.096     1.818     2.109
    22   1 H        0.924     0.074     2.038     2.233
    23   1 H        0.925     0.071     2.071     2.250
    24   1 H        0.925     0.078     1.996     2.210
    25   1 H        0.859     0.236     0.940     1.519

Wiberg/Mayer (AO) data.
largest (>0.10) Wiberg bond orders for each atom

     #   Z sym  total        # sym  WBO       # sym  WBO       # sym  WBO
 ---------------------------------------------------------------------------
     1   6 C    3.876 --     2 N    1.896    16 H    0.937    15 H    0.927
     2   7 N    3.567 --     1 C    1.896     3 C    1.459     4 N    0.159
     3   6 C    3.959 --     2 N    1.459     4 N    1.425    18 H    0.909
     4   7 N    3.586 --     3 C    1.425     5 C    1.008    25 H    0.838
                             2 N    0.159
     5   6 C    3.872 --     6 C    1.698     4 N    1.008    17 H    0.940
                             8 O    0.135
     6   6 C    3.889 --     5 C    1.698     7 C    1.014     8 O    1.012
     7   6 C    3.907 --     9 N    1.912     6 C    1.014     8 O    0.870
     8   8 O    2.260 --     6 C    1.012     7 C    0.870     9 N    0.182
                             5 C    0.135
     9   7 N    3.175 --     7 C    1.912    10 C    1.009     8 O    0.182
    10   6 C    3.953 --     9 N    1.009    19 H    0.976    20 H    0.955
                            21 H    0.950
    11   6 C    3.939 --    12 O    1.963    13 N    1.899
    12   8 O    2.388 --    11 C    1.963    13 N    0.365
    13   7 N    3.361 --    11 C    1.899    14 C    0.986    12 O    0.365
    14   6 C    3.951 --    13 N    0.986    23 H    0.976    24 H    0.972
                            22 H    0.969
    15   1 H    0.978 --     1 C    0.927
    16   1 H    0.977 --     1 C    0.937
    17   1 H    0.964 --     5 C    0.940
    18   1 H    0.981 --     3 C    0.909
    19   1 H    0.991 --    10 C    0.976
    20   1 H    0.989 --    10 C    0.955
    21   1 H    0.988 --    10 C    0.950
    22   1 H    0.994 --    14 C    0.969
    23   1 H    0.995 --    14 C    0.976
    24   1 H    0.994 --    14 C    0.972
    25   1 H    0.944 --     4 N    0.838
 ---------------------------------------------------------------------------

molecular dipole:
                 x           y           z       tot (Debye)
 q only:        3.413      -1.608      -0.155
   full:        3.378      -1.468      -0.125       9.368

           -------------------------------------------------
          | TOTAL ENERGY              -73.242330752127 Eh   |
          | GRADIENT NORM               0.002740682553 Eh/α |
          | HOMO-LUMO GAP               1.895195485378 eV   |
           -------------------------------------------------

 * finished run on 2024/06/05 at 19:58:12.382
