   * xtb version 6.6.1 (8d0f1dd) compiled by 'conda@1efc2f54142f' on 2023-08-01
          program call               : xtb xtbopt.xyz --opt crude --input .xc2 --gfn2

   ID    Z sym.   atoms
    1    6 C      1, 3, 5-7, 10, 11, 14
    2    7 N      2, 4, 9, 13
    3    8 O      8, 12
    4    1 H      15-25

          :  Hamiltonian                  GFN2-xTB          :
 * total energy  :   -39.7663051 Eh     change        0.2842171E-13 Eh
 * total energy  :   -42.0029415 Eh     change       -0.2236636E+01 Eh
 * total energy  :   -42.0358164 Eh     change       -0.3287490E-01 Eh
 * total energy  :   -42.0404722 Eh     change       -0.4655820E-02 Eh
 * total energy  :   -42.0369005 Eh     change        0.3571762E-02 Eh
 * total energy  :   -42.0427862 Eh     change       -0.5885691E-02 Eh
 * total energy  :   -42.0435022 Eh     change       -0.7160735E-03 Eh
 * total energy  :   -42.0431344 Eh     change        0.3678660E-03 Eh
 * total energy  :   -42.0442571 Eh     change       -0.1122767E-02 Eh
 * total energy  :   -42.0443091 Eh     change       -0.5192093E-04 Eh
 * total energy  :   -42.0448664 Eh     change       -0.5573170E-03 Eh
 * total energy  :   -42.0452685 Eh     change       -0.4021432E-03 Eh
 * total energy  :   -42.0455721 Eh     change       -0.3035430E-03 Eh
 * total energy  :   -42.0456951 Eh     change       -0.1230488E-03 Eh
   *** GEOMETRY OPTIMIZATION CONVERGED AFTER 14 ITERATIONS ***

 final structure:
================
25
 xtb: 6.6.1 (8d0f1dd)
C            4.90572192106398       -0.50026875266055        0.24118373773925
N            3.75080348064440       -0.90234241701304        0.01295505675440
C            2.54320339442631       -1.21892191170958        0.34932973558627
N            1.47369485357771       -0.48371085223683        0.15865538074524
C            1.47564253059661        0.84894812041018       -0.26107190957077
C            0.33256587983785        1.49325504772510       -0.41328338614700
C           -1.04178391297139        1.73620817042446       -0.41032441108107
O           -0.12105914205109        2.74243415401220       -0.76741158197131
N           -2.21440110570989        1.42464858003313       -0.26672278203772
C           -3.33417903260552        2.29693997415854       -0.45125586677633
C           -1.67268576751945       -1.06676121751908        1.44670839515482
O           -2.05286003237646       -0.41275976516499        2.31371214162160
N           -1.04955206349087       -1.62672335815457        0.58509633783184
C           -1.25425419913042       -2.67036893671473       -0.37703051788138
H            5.21715475403816       -0.11099899335759        1.20874693746901
H            5.64098175101270       -0.53463469194656       -0.55487355957458
H            2.44370844674720        1.28446139112413       -0.45485108430253
H            2.39033958249755       -2.24531234869404        0.67210738429682
H           -3.06113436843498        3.30276080593082       -0.77604663687668
H           -3.99454858257554        1.83106352380277       -1.18227451899922
H           -3.86631039712491        2.34142668046633        0.49913211202912
H           -0.79609855764422       -3.59216979823584       -0.01426264028740
H           -0.77680765872503       -2.37503528774651       -1.31106682888874
H           -2.31284349535139       -2.84842808017809       -0.55938433974483
H            0.53513356863369       -0.89547170866758        0.34340454508356

          :  Hamiltonian                  GFN2-xTB          :
         :: total energy             -42.045695123029 Eh    ::
         :: gradient norm              0.006198472280 Eh/a0 ::
         :: HOMO-LUMO gap              1.809753714141 eV    ::
         :: SCC energy               -42.679418413427 Eh    ::
         :: -> dispersion             -0.018691158638 Eh    ::
         :: repulsion energy           0.633607116092 Eh    ::

    * Orbital Energies and Occupations

         #    Occupation            Energy/Eh            Energy/eV
      -------------------------------------------------------------
         1        2.0000           -0.8829661             -24.0267
       ...           ...                  ...                  ...
        25        2.0000           -0.6564896             -17.8640
        26        2.0000           -0.6477416             -17.6259
        27        2.0000           -0.6375948             -17.3498
        28        2.0000           -0.6329073             -17.2223
        29        2.0000           -0.6302961             -17.1512
        30        2.0000           -0.6275348             -17.0761
        31        2.0000           -0.6084752             -16.5575
        32        2.0000           -0.5850651             -15.9204
        33        1.9998           -0.5600061             -15.2385
        34        1.9996           -0.5544000             -15.0860
        35        1.9990           -0.5471625             -14.8890
        36        1.9984           -0.5432512             -14.7826
        37        1.9710           -0.5199877             -14.1496 (HOMO)
        38        0.0301           -0.4534804             -12.3398 (LUMO)
        39        0.0020           -0.4319562             -11.7541
        40        0.0000           -0.3769556             -10.2575
        41                         -0.3399531              -9.2506
        42                         -0.2997569              -8.1568
        43                         -0.2979916              -8.1088
        44                         -0.2240619              -6.0970
        45                         -0.1461856              -3.9779
        46                         -0.1051042              -2.8600
        47                         -0.0872285              -2.3736
        48                         -0.0846353              -2.3030
       ...                                ...                  ...
        67                          1.1535618              31.3900
      -------------------------------------------------------------
                  HL-Gap            0.0665072 Eh            1.8098 eV

     #   Z          covCN         q      C6AA      α(0)
     1   6 C        2.766     0.037    27.145     8.533
     2   7 N        1.829    -0.010    22.146     6.973
     3   6 C        2.767     0.111    25.524     8.274
     4   7 N        2.698    -0.061    22.420     7.032
     5   6 C        2.831    -0.023    28.568     8.759
     6   6 C        2.826     0.125    25.251     8.234
     7   6 C        2.768     0.233    23.110     7.873
     8   8 O        1.703    -0.240    17.980     5.725
     9   7 N        1.819    -0.184    25.793     7.525
    10   6 C        3.709    -0.036    21.357     6.605
    11   6 C        1.773     0.319    24.069     7.931
    12   8 O        0.856    -0.225    18.478     5.763
    13   7 N        1.820    -0.220    26.631     7.646
    14   6 C        3.688    -0.036    21.405     6.622
    15   1 H        0.925     0.127     1.560     1.953
    16   1 H        0.925     0.143     1.442     1.878
    17   1 H        0.926     0.095     1.830     2.115
    18   1 H        0.925     0.130     1.536     1.938
    19   1 H        0.924     0.062     2.173     2.305
    20   1 H        0.925     0.090     1.883     2.146
    21   1 H        0.925     0.094     1.841     2.122
    22   1 H        0.924     0.076     2.023     2.224
    23   1 H        0.925     0.072     2.067     2.248
    24   1 H        0.925     0.078     1.995     2.209
    25   1 H        0.859     0.242     0.917     1.500

Wiberg/Mayer (AO) data.
largest (>0.10) Wiberg bond orders for each atom

     #   Z sym  total        # sym  WBO       # sym  WBO       # sym  WBO
 ---------------------------------------------------------------------------
     1   6 C    3.872 --     2 N    1.892    16 H    0.938    15 H    0.928
     2   7 N    3.551 --     1 C    1.892     3 C    1.444     4 N    0.151
     3   6 C    3.957 --     2 N    1.444     4 N    1.416    18 H    0.911
     4   7 N    3.614 --     3 C    1.416     5 C    1.073    25 H    0.830
                             2 N    0.151
     5   6 C    3.929 --     6 C    1.704     4 N    1.073    17 H    0.946
                             8 O    0.123
     6   6 C    3.893 --     5 C    1.704     7 C    1.014     8 O    0.996
     7   6 C    3.908 --     9 N    1.908     6 C    1.014     8 O    0.878
     8   8 O    2.242 --     6 C    0.996     7 C    0.878     9 N    0.180
                             5 C    0.123
     9   7 N    3.168 --     7 C    1.908    10 C    1.009     8 O    0.180
    10   6 C    3.952 --     9 N    1.009    19 H    0.975    20 H    0.956
                            21 H    0.952
    11   6 C    3.939 --    12 O    1.964    13 N    1.898
    12   8 O    2.389 --    11 C    1.964    13 N    0.365
    13   7 N    3.361 --    11 C    1.898    14 C    0.985    12 O    0.365
    14   6 C    3.951 --    13 N    0.985    23 H    0.975    24 H    0.973
                            22 H    0.969
    15   1 H    0.977 --     1 C    0.928
    16   1 H    0.977 --     1 C    0.938
    17   1 H    0.989 --     5 C    0.946
    18   1 H    0.980 --     3 C    0.911
    19   1 H    0.990 --    10 C    0.975
    20   1 H    0.989 --    10 C    0.956
    21   1 H    0.988 --    10 C    0.952
    22   1 H    0.994 --    14 C    0.969
    23   1 H    0.995 --    14 C    0.975
    24   1 H    0.994 --    14 C    0.973
    25   1 H    0.942 --     4 N    0.830
 ---------------------------------------------------------------------------

molecular dipole:
                 x           y           z       tot (Debye)
 q only:        3.385      -1.690      -0.137
   full:        3.452      -1.504      -0.118       9.576

           -------------------------------------------------
          | TOTAL ENERGY              -42.045695123029 Eh   |
          | GRADIENT NORM               0.006198472280 Eh/α |
          | HOMO-LUMO GAP               1.809753714141 eV   |
           -------------------------------------------------

 * finished run on 2024/06/05 at 19:58:12.894
