   * xtb version 6.6.1 (8d0f1dd) compiled by 'conda@1efc2f54142f' on 2023-08-01
          program call               : xtb struc.xyz --opt loose --input .xc1 --gfn2

   ID    Z sym.   atoms
    1    6 C      1, 3, 5-7, 10, 11, 14
    2    7 N      2, 4, 9, 13
    3    8 O      8, 12
    4    1 H      15-25
constraining bond 2 7 to    4.9200000 Å, actual value:    2.5746944 Å

          :  Hamiltonian                  GFN2-xTB          :
 * total energy  :   -32.4240389 Eh     change       -0.6633627E-10 Eh
 * total energy  :   -36.1670361 Eh     change       -0.3742997E+01 Eh
 * total energy  :   -39.0577677 Eh     change       -0.2890732E+01 Eh
 * total energy  :   -40.7924198 Eh     change       -0.1734652E+01 Eh
 * total energy  :   -41.5581240 Eh     change       -0.7657042E+00 Eh
 * total energy  :   -41.6842463 Eh     change       -0.1261223E+00 Eh
 * total energy  :   -41.7109689 Eh     change       -0.2672262E-01 Eh
 * total energy  :   -41.7520931 Eh     change       -0.4112417E-01 Eh
 * total energy  :   -41.7832394 Eh     change       -0.3114634E-01 Eh
 * total energy  :   -41.8156253 Eh     change       -0.3238590E-01 Eh
 * total energy  :   -42.1457557 Eh     change       -0.1708857E-02 Eh
 * total energy  :   -42.1463158 Eh     change       -0.5600295E-03 Eh
 * total energy  :   -42.1473190 Eh     change       -0.1003276E-02 Eh
 * total energy  :   -42.1476949 Eh     change       -0.3758323E-03 Eh
 * total energy  :   -42.1481108 Eh     change       -0.4159471E-03 Eh
 * total energy  :   -42.1481287 Eh     change       -0.1785546E-04 Eh
 * total energy  :   -42.1481180 Eh     change        0.1066346E-04 Eh
 * total energy  :   -42.1483825 Eh     change       -0.2645368E-03 Eh
 * total energy  :   -42.1484129 Eh     change       -0.3033902E-04 Eh
   *** GEOMETRY OPTIMIZATION CONVERGED AFTER 47 ITERATIONS ***

 final structure:
================
25
 xtb: 6.6.1 (8d0f1dd)
C            4.57096798646417        0.18235856269879       -0.05545543606189
N            3.69362686501399       -0.67190047077507        0.16753141448577
C            2.75780747031474       -1.52332092688359        0.02660040583645
N            1.43013228892039       -1.42403621355891        0.06874790174702
C            0.43410669098471       -0.41362635974114        0.06768964665334
C            0.62296785575906        0.92362260678642        0.11919714861157
C           -0.51074209213141        1.86881748013199        0.09358641835988
O           -0.37180425405564        3.06496367329300        0.13800968277511
N           -1.74977284332433        1.25830237530227        0.00627988524319
C           -2.93464705144416        2.10186588517690       -0.04169174058493
C           -1.97429553875589       -0.09026350482509       -0.03523282304539
O           -3.07792657716458       -0.56223296907708       -0.10202145354162
N           -0.83755255574199       -0.92875689829361       -0.00005432262703
C           -1.12446431449937       -2.35330501660467       -0.04088983035832
H            5.15415708605548        0.57487008374375        0.77076979803155
H            4.79354215363963        0.53503808228737       -1.05987314437587
H            1.60190955853490        1.36579231587652        0.18362254389833
H            3.11318648617310       -2.55399467406364       -0.02612188940303
H           -2.60629914505195        3.13819415904461       -0.03575943254560
H           -3.50175512862091        1.88540269023466       -0.94606484116351
H           -3.56775774863962        1.89982245347058        0.82159020946035
H           -0.80203225276453       -2.85923433195946        0.87223394011999
H           -0.71248226168756       -2.82729094314932       -0.93467251173161
H           -2.21231781824110       -2.43960558765560       -0.09635411600502
H            0.97187665436924       -2.33324392986652        0.06950416412041

          :  Hamiltonian                  GFN2-xTB          :
         :: total energy             -42.148412880090 Eh    ::
         :: gradient norm              0.001760547022 Eh/a0 ::
         :: HOMO-LUMO gap              1.628366757114 eV    ::
         :: SCC energy               -42.705186978918 Eh    ::
         :: -> dispersion             -0.021137252622 Eh    ::
         :: repulsion energy           0.556650280183 Eh    ::

    * Orbital Energies and Occupations

         #    Occupation            Energy/Eh            Energy/eV
      -------------------------------------------------------------
         1        2.0000           -0.8945898             -24.3430
       ...           ...                  ...                  ...
        25        2.0000           -0.6543479             -17.8057
        26        2.0000           -0.6503762             -17.6976
        27        2.0000           -0.6378584             -17.3570
        28        2.0000           -0.6363998             -17.3173
        29        2.0000           -0.6312051             -17.1760
        30        2.0000           -0.6130863             -16.6829
        31        2.0000           -0.6090464             -16.5730
        32        2.0000           -0.5922293             -16.1154
        33        1.9999           -0.5789238             -15.7533
        34        1.9982           -0.5560561             -15.1311
        35        1.9854           -0.5395227             -14.6812
        36        1.9791           -0.5366928             -14.6042
        37        1.9692           -0.5335813             -14.5195 (HOMO)
        38        0.0646           -0.4737400             -12.8911 (LUMO)
        39        0.0036           -0.4507217             -12.2648
        40        0.0000           -0.3781117             -10.2889
        41                         -0.3548739              -9.6566
        42                         -0.2673219              -7.2742
        43                         -0.2065393              -5.6202
        44                         -0.1697564              -4.6193
        45                         -0.1309711              -3.5639
        46                         -0.1175063              -3.1975
        47                         -0.0948769              -2.5817
        48                         -0.0382776              -1.0416
       ...                                ...                  ...
        67                          0.6690582              18.2060
      -------------------------------------------------------------
                  HL-Gap            0.0598414 Eh            1.6284 eV

     #   Z          covCN         q      C6AA      α(0)
     1   6 C        2.765     0.033    27.239     8.547
     2   7 N        1.824     0.019    21.591     6.885
     3   6 C        2.751     0.118    25.384     8.250
     4   7 N        2.691    -0.089    22.987     7.121
     5   6 C        2.822     0.120    25.352     8.250
     6   6 C        2.905    -0.107    30.698     9.085
     7   6 C        2.768     0.278    22.299     7.734
     8   8 O        0.858    -0.358    20.852     6.122
     9   7 N        2.741    -0.078    22.749     7.084
    10   6 C        3.709    -0.059    21.778     6.670
    11   6 C        2.725     0.320    21.565     7.602
    12   8 O        0.860    -0.386    21.393     6.201
    13   7 N        2.750    -0.081    22.809     7.093
    14   6 C        3.698    -0.078    22.166     6.734
    15   1 H        0.925     0.156     1.349     1.817
    16   1 H        0.925     0.147     1.414     1.859
    17   1 H        0.926     0.084     1.934     2.174
    18   1 H        0.924     0.139     1.472     1.897
    19   1 H        0.925     0.109     1.707     2.043
    20   1 H        0.925     0.093     1.854     2.129
    21   1 H        0.925     0.092     1.856     2.130
    22   1 H        0.924     0.073     2.055     2.242
    23   1 H        0.924     0.072     2.062     2.246
    24   1 H        0.924     0.138     1.476     1.900
    25   1 H        0.860     0.244     0.909     1.493

Wiberg/Mayer (AO) data.
largest (>0.10) Wiberg bond orders for each atom

     #   Z sym  total        # sym  WBO       # sym  WBO       # sym  WBO
 ---------------------------------------------------------------------------
     1   6 C    3.826 --     2 N    1.855    15 H    0.928    16 H    0.920
     2   7 N    3.602 --     1 C    1.855     3 C    1.541     4 N    0.150
     3   6 C    3.948 --     2 N    1.541     4 N    1.341    18 H    0.904
     4   7 N    3.562 --     3 C    1.341     5 C    1.037    25 H    0.883
                             2 N    0.150
     5   6 C    3.941 --     6 C    1.598    13 N    1.166     4 N    1.037
     6   6 C    3.954 --     5 C    1.598     7 C    1.054    17 H    0.962
     7   6 C    3.956 --     8 O    1.712     9 N    1.107     6 C    1.054
     8   8 O    2.039 --     7 C    1.712     9 N    0.144
     9   7 N    3.569 --    11 C    1.147     7 C    1.107    10 C    0.969
                             8 O    0.144    12 O    0.137
    10   6 C    3.921 --    19 H    0.970     9 N    0.969    20 H    0.967
                            21 H    0.966
    11   6 C    3.961 --    12 O    1.684     9 N    1.147    13 N    1.042
    12   8 O    2.051 --    11 C    1.684     9 N    0.137    13 N    0.126
    13   7 N    3.534 --     5 C    1.166    11 C    1.042    14 C    0.984
                            12 O    0.126
    14   6 C    3.937 --    13 N    0.984    23 H    0.966    22 H    0.965
                            24 H    0.949
    15   1 H    0.974 --     1 C    0.928
    16   1 H    0.977 --     1 C    0.920
    17   1 H    0.992 --     6 C    0.962
    18   1 H    0.976 --     3 C    0.904
    19   1 H    0.988 --    10 C    0.970
    20   1 H    0.988 --    10 C    0.967
    21   1 H    0.988 --    10 C    0.966
    22   1 H    0.992 --    14 C    0.965
    23   1 H    0.992 --    14 C    0.966
    24   1 H    0.980 --    14 C    0.949
    25   1 H    0.940 --     4 N    0.883
 ---------------------------------------------------------------------------

molecular dipole:
                 x           y           z       tot (Debye)
 q only:        4.492      -2.372      -0.067
   full:        4.825      -2.672      -0.116      14.021

           -------------------------------------------------
          | TOTAL ENERGY              -42.148412880090 Eh   |
          | GRADIENT NORM               0.001760547022 Eh/α |
          | HOMO-LUMO GAP               1.628366757114 eV   |
           -------------------------------------------------

 * finished run on 2024/06/05 at 19:57:53.352
