   * xtb version 6.6.1 (8d0f1dd) compiled by 'conda@1efc2f54142f' on 2023-08-01
          program call               : xtb xtbopt.xyz --opt crude --input .xc2 --gfn2

   ID    Z sym.   atoms
    1    6 C      1, 3, 5-7, 10, 11, 14
    2    7 N      2, 4, 9, 13
    3    8 O      8, 12
    4    1 H      15-25
########################################################################
[WARNING] Please study the warnings concerning your input carefully
-1- readin_getIntValue: could not parse ''
########################################################################

          :  Hamiltonian                  GFN2-xTB          :
 * total energy  :   -42.1485007 Eh     change        0.1421085E-13 Eh
 * total energy  :   -42.1512830 Eh     change       -0.2782285E-02 Eh
 * total energy  :   -42.1531841 Eh     change       -0.1901146E-02 Eh
 * total energy  :   -42.1489505 Eh     change        0.4233634E-02 Eh
 * total energy  :   -42.1544795 Eh     change       -0.5529049E-02 Eh
 * total energy  :   -42.1549368 Eh     change       -0.4572878E-03 Eh
 * total energy  :   -42.1555314 Eh     change       -0.5945886E-03 Eh
 * total energy  :   -42.1556889 Eh     change       -0.1574661E-03 Eh
   *** GEOMETRY OPTIMIZATION CONVERGED AFTER 8 ITERATIONS ***

 final structure:
================
25
 xtb: 6.6.1 (8d0f1dd)
C            4.31929530828023        0.42572394288361       -0.05305635115940
N            3.42775082511207       -0.42194747789762        0.16566426342974
C            2.71608896461496       -1.47021751220739        0.04602054606829
N            1.39353102395627       -1.58196374992612        0.05318498149355
C            0.41198197433278       -0.57329718724526        0.04157245660054
C            0.70409380335076        0.74512527347433        0.09395196765677
C           -0.34555573785503        1.75172694193451        0.08051821669514
O           -0.13869138263684        2.94009017731304        0.12319915175190
N           -1.63288526122017        1.22734168732538        0.00861761258361
C           -2.75637481349712        2.15202154425145       -0.02264766397356
C           -1.95744549061701       -0.10174712257885       -0.03524925308678
O           -3.08991646392243       -0.49874871926268       -0.08937522063493
N           -0.87717628042315       -1.01324979843531       -0.01510483875518
C           -1.22950611531708       -2.42136679180847       -0.05301160787418
H            4.75888379605228        0.98319564784897        0.77170864632469
H            4.63640502263080        0.67328569112841       -1.05891430661345
H            1.70741782752241        1.12013724412491        0.15122763013372
H            3.26113810025265       -2.41546114490160        0.05124821628211
H           -2.35765546796803        3.16376884174792       -0.00963602890865
H           -3.34441662069191        1.98413648267044       -0.92453666589297
H           -3.39671566763219        1.98528935553545        0.84296749413331
H           -0.90435202555057       -2.93928980355520        0.85138183304051
H           -0.84262014913358       -2.90749370440648       -0.95058674489915
H           -2.31994455825342       -2.46421650099647       -0.09073950376837
H            1.01710090271987       -2.52460477542377        0.05276678727169

          :  Hamiltonian                  GFN2-xTB          :
         :: total energy             -42.155688892265 Eh    ::
         :: gradient norm              0.006705808280 Eh/a0 ::
         :: HOMO-LUMO gap              1.566196993425 eV    ::
         :: SCC energy               -42.717328594060 Eh    ::
         :: -> dispersion             -0.021560618595 Eh    ::
         :: repulsion energy           0.561588927663 Eh    ::

    * Orbital Energies and Occupations

         #    Occupation            Energy/Eh            Energy/eV
      -------------------------------------------------------------
         1        2.0000           -0.8982734             -24.4433
       ...           ...                  ...                  ...
        25        2.0000           -0.6556381             -17.8408
        26        2.0000           -0.6510969             -17.7172
        27        2.0000           -0.6380998             -17.3636
        28        2.0000           -0.6359778             -17.3058
        29        2.0000           -0.6325974             -17.2139
        30        2.0000           -0.6134681             -16.6933
        31        2.0000           -0.6097196             -16.5913
        32        2.0000           -0.5931079             -16.1393
        33        1.9999           -0.5794161             -15.7667
        34        1.9978           -0.5570935             -15.1593
        35        1.9815           -0.5399893             -14.6939
        36        1.9763           -0.5379971             -14.6396
        37        1.9656           -0.5350188             -14.5586 (HOMO)
        38        0.0765           -0.4774621             -12.9924 (LUMO)
        39        0.0024           -0.4498964             -12.2423
        40        0.0000           -0.3795669             -10.3285
        41                         -0.3548358              -9.6556
        42                         -0.2667097              -7.2575
        43                         -0.1954711              -5.3190
        44                         -0.1689435              -4.5972
        45                         -0.1238987              -3.3715
        46                         -0.1126700              -3.0659
        47                         -0.0915791              -2.4920
        48                         -0.0361626              -0.9840
       ...                                ...                  ...
        67                          0.6352771              17.2868
      -------------------------------------------------------------
                  HL-Gap            0.0575567 Eh            1.5662 eV

     #   Z          covCN         q      C6AA      α(0)
     1   6 C        2.765     0.030    27.308     8.558
     2   7 N        1.826     0.018    21.610     6.888
     3   6 C        2.756     0.119    25.375     8.249
     4   7 N        2.695    -0.077    22.750     7.084
     5   6 C        2.833     0.122    25.304     8.243
     6   6 C        2.909    -0.114    30.886     9.113
     7   6 C        2.769     0.277    22.318     7.737
     8   8 O        0.859    -0.363    20.947     6.136
     9   7 N        2.742    -0.081    22.813     7.094
    10   6 C        3.709    -0.059    21.778     6.670
    11   6 C        2.724     0.320    21.568     7.603
    12   8 O        0.860    -0.382    21.318     6.190
    13   7 N        2.748    -0.073    22.664     7.071
    14   6 C        3.697    -0.075    22.117     6.727
    15   1 H        0.925     0.157     1.348     1.816
    16   1 H        0.925     0.147     1.412     1.858
    17   1 H        0.926     0.083     1.948     2.182
    18   1 H        0.924     0.140     1.462     1.891
    19   1 H        0.925     0.109     1.705     2.042
    20   1 H        0.925     0.093     1.853     2.129
    21   1 H        0.925     0.093     1.852     2.128
    22   1 H        0.924     0.072     2.059     2.244
    23   1 H        0.924     0.072     2.060     2.244
    24   1 H        0.924     0.134     1.505     1.919
    25   1 H        0.860     0.238     0.930     1.510

Wiberg/Mayer (AO) data.
largest (>0.10) Wiberg bond orders for each atom

     #   Z sym  total        # sym  WBO       # sym  WBO       # sym  WBO
 ---------------------------------------------------------------------------
     1   6 C    3.819 --     2 N    1.837    15 H    0.928    16 H    0.921
     2   7 N    3.598 --     1 C    1.837     3 C    1.544     4 N    0.147
     3   6 C    3.952 --     2 N    1.544     4 N    1.340    18 H    0.902
     4   7 N    3.572 --     3 C    1.340     5 C    1.047    25 H    0.896
                             2 N    0.147
     5   6 C    3.945 --     6 C    1.573    13 N    1.185     4 N    1.047
     6   6 C    3.950 --     5 C    1.573     7 C    1.077    17 H    0.955
     7   6 C    3.957 --     8 O    1.701     9 N    1.095     6 C    1.077
     8   8 O    2.036 --     7 C    1.701     9 N    0.142
     9   7 N    3.564 --    11 C    1.149     7 C    1.095    10 C    0.971
                             8 O    0.142    12 O    0.140
    10   6 C    3.920 --     9 N    0.971    19 H    0.970    20 H    0.966
                            21 H    0.965
    11   6 C    3.960 --    12 O    1.688     9 N    1.149    13 N    1.036
    12   8 O    2.052 --    11 C    1.688     9 N    0.140    13 N    0.124
    13   7 N    3.544 --     5 C    1.185    11 C    1.036    14 C    0.983
                            12 O    0.124
    14   6 C    3.935 --    13 N    0.983    23 H    0.969    22 H    0.968
                            24 H    0.954
    15   1 H    0.974 --     1 C    0.928
    16   1 H    0.976 --     1 C    0.921
    17   1 H    0.992 --     6 C    0.955
    18   1 H    0.974 --     3 C    0.902
    19   1 H    0.988 --    10 C    0.970
    20   1 H    0.987 --    10 C    0.966
    21   1 H    0.987 --    10 C    0.965
    22   1 H    0.992 --    14 C    0.968
    23   1 H    0.992 --    14 C    0.969
    24   1 H    0.981 --    14 C    0.954
    25   1 H    0.942 --     4 N    0.896
 ---------------------------------------------------------------------------

molecular dipole:
                 x           y           z       tot (Debye)
 q only:        4.317      -2.320      -0.051
   full:        4.652      -2.687      -0.105      13.659

           -------------------------------------------------
          | TOTAL ENERGY              -42.155688892265 Eh   |
          | GRADIENT NORM               0.006705808280 Eh/α |
          | HOMO-LUMO GAP               1.566196993425 eV   |
           -------------------------------------------------

 * finished run on 2024/06/05 at 19:57:53.852
