   * xtb version 6.6.1 (8d0f1dd) compiled by 'conda@1efc2f54142f' on 2023-08-01
          program call               : xtb xtbopt.xyz --opt crude --input .xc2 --gfn2

   ID    Z sym.   atoms
    1    6 C      1, 3, 5-7, 10, 11, 14
    2    7 N      2, 4, 9, 13
    3    8 O      8, 12
    4    1 H      15-25

          :  Hamiltonian                  GFN2-xTB          :
 * total energy  :   -42.0287018 Eh     change       -0.7389644E-12 Eh
   *** GEOMETRY OPTIMIZATION CONVERGED AFTER 1 ITERATIONS ***

 final structure:
================
25
 xtb: 6.6.1 (8d0f1dd)
C            4.01766241747406       -0.09944978330323       -0.71385531244441
N            2.73365858414132       -0.71107867138556       -0.50108041534085
C            1.91788690591663       -0.42957222627792        0.51941247230259
N            0.80767403998288       -1.15557933779318        0.39999445443901
C            0.94492593114675       -1.91647426633065       -0.74794184302103
C            2.18003342748113       -1.63943700788634       -1.32852663801065
C            1.67472123482421        2.70592494471993        0.19569459531637
O            1.20596904336559        3.73122862049387        0.19523408573444
N           -2.84167180828451        1.75000492263799        1.00928026200915
C           -3.88818103386017        2.68870187168035        0.93742519703259
C           -2.41004068057622        0.65952840775069        1.09285729680737
O           -1.77094578395393       -0.31887712578660        1.17455169997339
N            0.01190471861576       -2.79979133843814       -1.20719650033538
C           -1.14809319436484       -3.10776810761827       -0.68573190234737
H            4.72751523354884       -0.42032331636845        0.04909352862818
H            4.38491696769108       -0.40264390475480       -1.69147917925226
H            3.92254649831628        0.98582407591358       -0.67565732841114
H            2.12450882756025        0.27036869467064        1.30391053382907
H           -3.44233311927990        3.66750810775869        0.75901397299641
H           -4.56554257766229        2.44674873240604        0.11601477079635
H           -4.44597635250324        2.71364903340495        1.87504737050177
H           -1.49679148944865       -2.63513894500328        0.21534506997220
H            0.30550267433412       -3.26365928071119       -2.06507581310523
H           -1.76676829067267       -3.83797995729419       -1.17274378828075
H           -0.02265065958985       -1.06347560067460        0.97758502812979

          :  Hamiltonian                  GFN2-xTB          :
         :: total energy             -42.028701753371 Eh    ::
         :: gradient norm              0.003940636251 Eh/a0 ::
         :: HOMO-LUMO gap              1.532174345660 eV    ::
         :: SCC energy               -42.631282454034 Eh    ::
         :: -> dispersion             -0.017097041592 Eh    ::
         :: repulsion energy           0.602471800411 Eh    ::

    * Orbital Energies and Occupations

         #    Occupation            Energy/Eh            Energy/eV
      -------------------------------------------------------------
         1        2.0000           -0.8952267             -24.3604
       ...           ...                  ...                  ...
        25        2.0000           -0.6536019             -17.7854
        26        2.0000           -0.6388316             -17.3835
        27        1.9999           -0.6359765             -17.3058
        28        1.9999           -0.6282593             -17.0958
        29        1.9999           -0.6255024             -17.0208
        30        1.9999           -0.6217823             -16.9196
        31        1.9994           -0.5983040             -16.2807
        32        1.9980           -0.5777415             -15.7211
        33        1.9973           -0.5728669             -15.5885
        34        1.9851           -0.5460318             -14.8583
        35        1.9808           -0.5419469             -14.7471
        36        1.9723           -0.5361035             -14.5881
        37        1.7343           -0.4982477             -13.5580 (HOMO)
        38        0.3142           -0.4419413             -12.0258 (LUMO)
        39        0.0079           -0.3808767             -10.3642
        40        0.0076           -0.3804590             -10.3528
        41        0.0032           -0.3668254              -9.9818
        42        0.0001           -0.3122897              -8.4978
        43        0.0001           -0.3008881              -8.1876
        44        0.0000           -0.2937747              -7.9940
        45                         -0.1429441              -3.8897
        46                         -0.1348355              -3.6691
        47                         -0.0878203              -2.3897
        48                         -0.0609147              -1.6576
       ...                                ...                  ...
        67                          1.2255547              33.3490
      -------------------------------------------------------------
                  HL-Gap            0.0563064 Eh            1.5322 eV

     #   Z          covCN         q      C6AA      α(0)
     1   6 C        3.695    -0.086    22.317     6.758
     2   7 N        2.887     0.079    19.859     6.619
     3   6 C        3.032     0.059    26.657     8.469
     4   7 N        2.779    -0.073    22.653     7.069
     5   6 C        3.078     0.082    26.093     8.375
     6   6 C        2.053    -0.163    35.600     9.637
     7   6 C        0.856     0.025    34.347     9.779
     8   8 O        0.856    -0.035    15.591     5.294
     9   7 N        1.820    -0.139    24.792     7.378
    10   6 C        3.685    -0.032    21.354     6.616
    11   6 C        1.769     0.304    24.366     7.981
    12   8 O        0.856    -0.343    20.576     6.082
    13   7 N        2.683     0.008    21.119     6.825
    14   6 C        2.777    -0.041    29.008     8.821
    15   1 H        0.924     0.091     1.867     2.137
    16   1 H        0.925     0.110     1.698     2.038
    17   1 H        0.925     0.091     1.872     2.140
    18   1 H        0.926     0.103     1.758     2.073
    19   1 H        0.924     0.095     1.831     2.116
    20   1 H        0.924     0.083     1.946     2.182
    21   1 H        0.924     0.088     1.901     2.156
    22   1 H        0.926     0.115     1.653     2.010
    23   1 H        0.860     0.238     0.933     1.513
    24   1 H        0.926     0.107     1.723     2.053
    25   1 H        0.860     0.235     0.945     1.523

Wiberg/Mayer (AO) data.
largest (>0.10) Wiberg bond orders for each atom

     #   Z sym  total        # sym  WBO       # sym  WBO       # sym  WBO
 ---------------------------------------------------------------------------
     1   6 C    3.940 --     2 N    0.995    16 H    0.974    17 H    0.967
                            15 H    0.964
     2   7 N    3.707 --     3 C    1.342     6 C    1.244     1 C    0.995
     3   6 C    3.877 --     4 N    1.358     2 N    1.342    18 H    0.953
     4   7 N    3.582 --     3 C    1.358     5 C    1.135    25 H    0.885
     5   6 C    3.864 --     6 C    1.374    13 N    1.138     4 N    1.135
     6   6 C    2.853 --     5 C    1.374     2 N    1.244
     7   6 C    2.621 --     8 O    2.613
     8   8 O    2.614 --     7 C    2.613
     9   7 N    3.473 --    11 C    2.088    10 C    1.015    12 O    0.367
    10   6 C    3.937 --     9 N    1.015    19 H    0.964    20 H    0.959
                            21 H    0.958
    11   6 C    3.947 --     9 N    2.088    12 O    1.772
    12   8 O    2.224 --    11 C    1.772     9 N    0.367
    13   7 N    3.593 --    14 C    1.505     5 C    1.138    23 H    0.908
    14   6 C    3.646 --    13 N    1.505    24 H    0.968    22 H    0.960
    15   1 H    0.990 --     1 C    0.964
    16   1 H    0.987 --     1 C    0.974
    17   1 H    0.991 --     1 C    0.967
    18   1 H    0.988 --     3 C    0.953
    19   1 H    0.987 --    10 C    0.964
    20   1 H    0.989 --    10 C    0.959
    21   1 H    0.988 --    10 C    0.958
    22   1 H    0.987 --    14 C    0.960
    23   1 H    0.943 --    13 N    0.908
    24   1 H    0.988 --    14 C    0.968
    25   1 H    0.943 --     4 N    0.885
 ---------------------------------------------------------------------------

molecular dipole:
                 x           y           z       tot (Debye)
 q only:        0.354      -1.462      -0.513
   full:       -0.295      -0.951      -0.030       2.532

           -------------------------------------------------
          | TOTAL ENERGY              -42.028701753371 Eh   |
          | GRADIENT NORM               0.003940636251 Eh/α |
          | HOMO-LUMO GAP               1.532174345660 eV   |
           -------------------------------------------------

 * finished run on 2024/06/05 at 19:58:06.101
