   * xtb version 6.6.1 (8d0f1dd) compiled by 'conda@1efc2f54142f' on 2023-08-01
          program call               : xtb xtbopt.xyz --opt crude --input .xc2 --gfn2

   ID    Z sym.   atoms
    1    6 C      1, 3, 5-7, 10, 11, 14
    2    7 N      2, 4, 9, 13
    3    8 O      8, 12
    4    1 H      15-25
########################################################################
[WARNING] Please study the warnings concerning your input carefully
-1- readin_getIntValue: could not parse ''
########################################################################

          :  Hamiltonian                  GFN2-xTB          :
 * total energy  :   -42.1920813 Eh     change       -0.1243450E-11 Eh
   *** GEOMETRY OPTIMIZATION CONVERGED AFTER 1 ITERATIONS ***

 final structure:
================
25
 xtb: 6.6.1 (8d0f1dd)
C            3.28792911482765        0.92696646230271        0.10307312575440
N            2.37900505536295       -0.04377060887596        0.02610236425816
C            2.58790928522714       -1.37111102130603       -0.12238248307134
N            1.38768782900444       -2.03841016346319       -0.14272807959057
C            0.39772608317074       -1.14417253907830       -0.00143617337099
C            0.99088906928279        0.12986488072698        0.07760423002469
C            0.19107603922655        1.26526770594638        0.03074205607292
O            0.63683701252016        2.50985088748066       -0.06513124619378
N           -1.15683836064006        1.06438422916852        0.04593287187815
C           -2.07258139901235        2.19459635373163       -0.00061762992162
C           -1.78133287589721       -0.18915782747028        0.07456671715915
O           -2.97341227093738       -0.29202152342692        0.11285782556427
N           -0.94444413880006       -1.31091370632908        0.03379153919970
C           -1.54136523636458       -2.63249015584454        0.02097945089338
H            3.04844962633289        1.87696522067335        0.53342817958325
H            4.31537966027953        0.68882771249283       -0.04861747406416
H            1.59979089675497        2.52119820545103       -0.22042993594167
H            3.54515110366578       -1.83393571499407       -0.21609447740267
H           -1.50475329899355        3.11888009016702        0.00165772394507
H           -2.68379995970903        2.12995372711166       -0.90086348267063
H           -2.73706470776975        2.15670305673829        0.86205745829214
H           -1.21613146743915       -3.20118285370760        0.89248148649363
H           -1.27450165599000       -3.16226196869690       -0.89365484465380
H           -2.62229602133978       -2.50720791881276        0.05874349149497
H            1.30112213133861       -3.03858398838580       -0.23089107583544

          :  Hamiltonian                  GFN2-xTB          :
         :: total energy             -42.192081311019 Eh    ::
         :: gradient norm              0.007011662133 Eh/a0 ::
         :: HOMO-LUMO gap              1.540160492558 eV    ::
         :: SCC energy               -42.718599652845 Eh    ::
         :: -> dispersion             -0.023078541656 Eh    ::
         :: repulsion energy           0.526395868645 Eh    ::

    * Orbital Energies and Occupations

         #    Occupation            Energy/Eh            Energy/eV
      -------------------------------------------------------------
         1        2.0000           -0.9017663             -24.5383
       ...           ...                  ...                  ...
        25        2.0000           -0.6700245             -18.2323
        26        2.0000           -0.6684804             -18.1903
        27        2.0000           -0.6575861             -17.8938
        28        2.0000           -0.6465639             -17.5939
        29        2.0000           -0.6392322             -17.3944
        30        1.9999           -0.6218004             -16.9200
        31        1.9999           -0.6158045             -16.7569
        32        1.9999           -0.6120091             -16.6536
        33        1.9998           -0.6089033             -16.5691
        34        1.9992           -0.5843025             -15.8997
        35        1.9987           -0.5763095             -15.6822
        36        1.9956           -0.5569263             -15.1547
        37        1.7043           -0.4879163             -13.2769 (HOMO)
        38        0.2781           -0.4313164             -11.7367 (LUMO)
        39        0.0208           -0.3880609             -10.5597
        40        0.0038           -0.3608293              -9.8187
        41        0.0001           -0.2936636              -7.9910
        42        0.0000           -0.2046524              -5.5689
        43                         -0.1716270              -4.6702
        44                         -0.1437397              -3.9114
        45                         -0.1300751              -3.5395
        46                         -0.1084538              -2.9512
        47                         -0.0676896              -1.8419
        48                         -0.0349107              -0.9500
       ...                                ...                  ...
        67                          0.5370705              14.6144
      -------------------------------------------------------------
                  HL-Gap            0.0565999 Eh            1.5402 eV

     #   Z          covCN         q      C6AA      α(0)
     1   6 C        2.788    -0.130    31.294     9.163
     2   7 N        2.794     0.103    19.469     6.553
     3   6 C        3.037    -0.004    28.081     8.692
     4   7 N        2.774    -0.062    22.443     7.036
     5   6 C        3.016     0.105    25.663     8.310
     6   6 C        3.106    -0.038    28.788     8.791
     7   6 C        2.775     0.202    23.706     7.974
     8   8 O        1.659    -0.327    19.492     5.960
     9   7 N        2.746    -0.048    22.174     6.994
    10   6 C        3.706    -0.070    21.986     6.703
    11   6 C        2.727     0.312    21.694     7.625
    12   8 O        0.859    -0.356    20.812     6.116
    13   7 N        2.737    -0.059    22.373     7.025
    14   6 C        3.698    -0.072    22.047     6.716
    15   1 H        0.927     0.071     2.078     2.254
    16   1 H        0.927     0.082     1.955     2.187
    17   1 H        0.804     0.353     0.582     1.199
    18   1 H        0.927     0.105     1.741     2.063
    19   1 H        0.925     0.109     1.702     2.040
    20   1 H        0.925     0.103     1.754     2.071
    21   1 H        0.925     0.108     1.716     2.049
    22   1 H        0.924     0.085     1.930     2.172
    23   1 H        0.925     0.083     1.948     2.183
    24   1 H        0.925     0.125     1.576     1.963
    25   1 H        0.860     0.219     1.014     1.578

Wiberg/Mayer (AO) data.
largest (>0.10) Wiberg bond orders for each atom

     #   Z sym  total        # sym  WBO       # sym  WBO       # sym  WBO
 ---------------------------------------------------------------------------
     1   6 C    3.568 --     2 N    1.306    16 H    0.971    15 H    0.955
                             3 C    0.177
     2   7 N    3.721 --     1 C    1.306     3 C    1.249     6 C    1.071
     3   6 C    3.709 --     2 N    1.249     4 N    1.176    18 H    0.960
                             1 C    0.177
     4   7 N    3.556 --     5 C    1.260     3 C    1.176    25 H    0.924
     5   6 C    3.867 --     4 N    1.260     6 C    1.233    13 N    1.179
     6   6 C    3.905 --     7 C    1.295     5 C    1.233     2 N    1.071
     7   6 C    3.782 --     6 C    1.295     9 N    1.202     8 O    1.160
     8   8 O    2.179 --     7 C    1.160    17 H    0.826
     9   7 N    3.537 --     7 C    1.202    11 C    1.071    10 C    0.969
                            12 O    0.126
    10   6 C    3.916 --    19 H    0.972     9 N    0.969    20 H    0.964
                            21 H    0.963
    11   6 C    3.946 --    12 O    1.715     9 N    1.071    13 N    1.070
    12   8 O    2.068 --    11 C    1.715    13 N    0.135     9 N    0.126
    13   7 N    3.516 --     5 C    1.179    11 C    1.070    14 C    0.974
                            12 O    0.135
    14   6 C    3.926 --    13 N    0.974    22 H    0.970    23 H    0.970
                            24 H    0.965
    15   1 H    0.994 --     1 C    0.955
    16   1 H    0.992 --     1 C    0.971
    17   1 H    0.874 --     8 O    0.826
    18   1 H    0.988 --     3 C    0.960
    19   1 H    0.987 --    10 C    0.972
    20   1 H    0.984 --    10 C    0.964
    21   1 H    0.983 --    10 C    0.963
    22   1 H    0.989 --    14 C    0.970
    23   1 H    0.989 --    14 C    0.970
    24   1 H    0.984 --    14 C    0.965
    25   1 H    0.952 --     4 N    0.924
 ---------------------------------------------------------------------------

molecular dipole:
                 x           y           z       tot (Debye)
 q only:        1.780      -0.775      -0.204
   full:        2.262      -1.063      -0.215       6.376

           -------------------------------------------------
          | TOTAL ENERGY              -42.192081311019 Eh   |
          | GRADIENT NORM               0.007011662133 Eh/α |
          | HOMO-LUMO GAP               1.540160492558 eV   |
           -------------------------------------------------

 * finished run on 2024/06/05 at 20:00:19.990
