   * xtb version 6.6.1 (8d0f1dd) compiled by 'conda@1efc2f54142f' on 2023-08-01
          program call               : xtb struc.xyz --opt loose --input .xc1 --gfn2

   ID    Z sym.   atoms
    1    6 C      1, 3, 5-7, 10, 11, 14
    2    7 N      2, 4, 9, 13
    3    8 O      8, 12
    4    1 H      15-25
constraining bond 3 25 to    4.1400000 Å, actual value:    2.1044033 Å

          :  Hamiltonian                  GFN2-xTB          :
 * total energy  :   -34.8492317 Eh     change       -0.6650680E-10 Eh
 * total energy  :   -37.9358467 Eh     change       -0.3086615E+01 Eh
 * total energy  :   -40.3069562 Eh     change       -0.2371110E+01 Eh
 * total energy  :   -41.5336167 Eh     change       -0.1226661E+01 Eh
 * total energy  :   -41.8862850 Eh     change       -0.3526682E+00 Eh
 * total energy  :   -41.9111861 Eh     change       -0.2490112E-01 Eh
 * total energy  :   -41.9177729 Eh     change       -0.6586826E-02 Eh
 * total energy  :   -41.9346030 Eh     change       -0.1683007E-01 Eh
 * total energy  :   -41.9415598 Eh     change       -0.6956818E-02 Eh
 * total energy  :   -41.9514891 Eh     change       -0.9929258E-02 Eh
 * total energy  :   -42.0783240 Eh     change       -0.3398953E-03 Eh
 * total energy  :   -42.0786543 Eh     change       -0.3302952E-03 Eh
 * total energy  :   -42.0788587 Eh     change       -0.2043544E-03 Eh
 * total energy  :   -42.0790227 Eh     change       -0.1640186E-03 Eh
 * total energy  :   -42.0792136 Eh     change       -0.1909062E-03 Eh
 * total energy  :   -42.0793175 Eh     change       -0.1038985E-03 Eh
 * total energy  :   -42.0793995 Eh     change       -0.8196085E-04 Eh
 * total energy  :   -42.0794251 Eh     change       -0.2567438E-04 Eh
 * total energy  :   -42.0794672 Eh     change       -0.4203433E-04 Eh
   *** GEOMETRY OPTIMIZATION CONVERGED AFTER 58 ITERATIONS ***

 final structure:
================
25
 xtb: 6.6.1 (8d0f1dd)
C            3.07182483254650        0.99212415901540        0.75759982428331
N            2.44738400768377        0.21929251810183       -0.29385425998561
C            3.07017985413163       -0.16036307375955       -1.31619158967675
N            1.24080290615371       -2.28198183368097        0.20091766042086
C            0.47146200694247       -1.26817376423301        0.05170199021212
C            1.03088884455714        0.02387360077644       -0.18180142484815
C            0.22032795352630        1.20833033924872       -0.30811186547705
O            0.68329637613168        2.32223879391536       -0.47950902296139
N           -1.14762195522682        0.99495890285670       -0.21913624305584
C           -2.03461769803772        2.13273499770737       -0.35351097642899
C           -1.75076716315934       -0.23038128334316       -0.00466892260221
O           -2.94922356862982       -0.33319335559863        0.05650117552422
N           -0.91417720796165       -1.32816507736997        0.14173271330092
C           -1.54943034737276       -2.60492640828681        0.40659321168645
H            2.83610070573963        0.54813847394536        1.72643315617193
H            4.14999034996240        1.00805921121104        0.60185587119524
H            2.68175109146387        2.01408493886119        0.72739875785178
H            2.70096690502673       -0.72115504949462       -2.15951270297702
H           -1.43283168289865        3.03974149470358       -0.36722311059297
H           -2.60904697682383        2.05394444722017       -1.27969896866136
H           -2.74257142319393        2.14681373164789        0.47684877134221
H           -1.28068256934985       -2.96914778027406        1.40069153913228
H           -1.26198536873507       -3.34028428848053       -0.34681162903997
H           -2.62827616154808       -2.45684175762041        0.36661891052458
H            0.85668780317262       -3.19148339546559        0.42630875256096

          :  Hamiltonian                  GFN2-xTB          :
         :: total energy             -42.079467165314 Eh    ::
         :: gradient norm              0.003635221616 Eh/a0 ::
         :: HOMO-LUMO gap              0.523900335599 eV    ::
         :: SCC energy               -42.595163782743 Eh    ::
         :: -> dispersion             -0.022565751713 Eh    ::
         :: repulsion energy           0.515488609605 Eh    ::

    * Orbital Energies and Occupations

         #    Occupation            Energy/Eh            Energy/eV
      -------------------------------------------------------------
         1        2.0000           -0.8969310             -24.4067
       ...           ...                  ...                  ...
        25        1.9992           -0.6663308             -18.1318
        26        1.9983           -0.6546023             -17.8126
        27        1.9981           -0.6527401             -17.7620
        28        1.9964           -0.6425978             -17.4860
        29        1.9939           -0.6343007             -17.2602
        30        1.9929           -0.6318120             -17.1925
        31        1.9879           -0.6234371             -16.9646
        32        1.9541           -0.6020506             -16.3826
        33        1.9044           -0.5900368             -16.0557
        34        1.8961           -0.5886537             -16.0181
        35        1.8413           -0.5814773             -15.8228
        36        1.7761           -0.5754516             -15.6588
        37        1.5883           -0.5640379             -15.3483 (HOMO)
        38        1.0669           -0.5447849             -14.8244 (LUMO)
        39        0.0065           -0.4518939             -12.2967
        40        0.0004           -0.4072131             -11.0808
        41        0.0002           -0.3971954             -10.8082
        42        0.0000           -0.3092415              -8.4149
        43                         -0.2193749              -5.9695
        44                         -0.1681846              -4.5765
        45                         -0.1403130              -3.8181
        46                         -0.1022992              -2.7837
        47                         -0.0905714              -2.4646
        48                         -0.0509564              -1.3866
       ...                                ...                  ...
        67                          0.5107249              13.8975
      -------------------------------------------------------------
                  HL-Gap            0.0192530 Eh            0.5239 eV

     #   Z          covCN         q      C6AA      α(0)
     1   6 C        3.713    -0.096    22.477     6.774
     2   7 N        2.731     0.171    18.389     6.369
     3   6 C        1.895    -0.011    31.409     9.051
     4   7 N        1.788    -0.277    28.026     7.841
     5   6 C        2.820     0.167    24.393     8.093
     6   6 C        2.940    -0.023    28.574     8.767
     7   6 C        2.768     0.266    22.506     7.769
     8   8 O        0.859    -0.351    20.718     6.103
     9   7 N        2.743    -0.061    22.426     7.033
    10   6 C        3.706    -0.062    21.839     6.680
    11   6 C        2.718     0.322    21.534     7.596
    12   8 O        0.860    -0.334    20.405     6.056
    13   7 N        2.744    -0.066    22.511     7.047
    14   6 C        3.702    -0.065    21.908     6.693
    15   1 H        0.924     0.114     1.665     2.018
    16   1 H        0.925     0.128     1.554     1.949
    17   1 H        0.924     0.140     1.459     1.889
    18   1 H        0.926     0.146     1.419     1.863
    19   1 H        0.925     0.125     1.575     1.962
    20   1 H        0.924     0.119     1.623     1.992
    21   1 H        0.924     0.120     1.613     1.986
    22   1 H        0.924     0.099     1.793     2.094
    23   1 H        0.924     0.098     1.806     2.102
    24   1 H        0.925     0.127     1.557     1.951
    25   1 H        0.860     0.205     1.081     1.629

Wiberg/Mayer (AO) data.
largest (>0.10) Wiberg bond orders for each atom

     #   Z sym  total        # sym  WBO       # sym  WBO       # sym  WBO
 ---------------------------------------------------------------------------
     1   6 C    3.877 --     2 N    0.963    16 H    0.963    15 H    0.955
                            17 H    0.932
     2   7 N    3.752 --     3 C    1.795     1 C    0.963     6 C    0.960
     3   6 C    2.922 --     2 N    1.795    18 H    0.919
     4   7 N    2.685 --     5 C    1.590    25 H    0.917
     5   6 C    3.957 --     4 N    1.590     6 C    1.180    13 N    1.093
     6   6 C    3.494 --     5 C    1.180     7 C    1.122     2 N    0.960
     7   6 C    3.939 --     8 O    1.622     6 C    1.122     9 N    1.096
     8   8 O    1.885 --     7 C    1.622     9 N    0.114
     9   7 N    3.463 --    11 C    1.102     7 C    1.096    10 C    0.982
                             8 O    0.114    12 O    0.106
    10   6 C    3.858 --     9 N    0.982    19 H    0.958    21 H    0.942
                            20 H    0.934
    11   6 C    3.954 --    12 O    1.671     9 N    1.102    13 N    1.098
    12   8 O    1.971 --    11 C    1.671    13 N    0.113     9 N    0.106
    13   7 N    3.446 --    11 C    1.098     5 C    1.093    14 C    0.983
                            12 O    0.113
    14   6 C    3.891 --    13 N    0.983    24 H    0.956    23 H    0.954
                            22 H    0.951
    15   1 H    0.983 --     1 C    0.955
    16   1 H    0.977 --     1 C    0.963
    17   1 H    0.974 --     1 C    0.932
    18   1 H    0.944 --     3 C    0.919
    19   1 H    0.976 --    10 C    0.958
    20   1 H    0.951 --    10 C    0.934
    21   1 H    0.958 --    10 C    0.942
    22   1 H    0.968 --    14 C    0.951
    23   1 H    0.971 --    14 C    0.954
    24   1 H    0.978 --    14 C    0.956
    25   1 H    0.946 --     4 N    0.917
 ---------------------------------------------------------------------------

molecular dipole:
                 x           y           z       tot (Debye)
 q only:        1.496      -0.689       0.136
   full:        1.166      -1.005       0.076       3.916

           -------------------------------------------------
          | TOTAL ENERGY              -42.079467165314 Eh   |
          | GRADIENT NORM               0.003635221616 Eh/α |
          | HOMO-LUMO GAP               0.523900335599 eV   |
           -------------------------------------------------

 * finished run on 2024/06/05 at 20:00:10.088
