   * xtb version 6.6.1 (8d0f1dd) compiled by 'conda@1efc2f54142f' on 2023-08-01
          program call               : xtb struc.xyz --opt loose --input .xc1 --gfn2

   ID    Z sym.   atoms
    1    6 C      1, 3, 5-7, 10, 11, 14
    2    7 N      2, 4, 9, 13
    3    8 O      8, 12
    4    1 H      15-25
constraining bond 5 23 to    5.1400000 Å, actual value:    2.7817644 Å

          :  Hamiltonian                  GFN2-xTB          :
 * total energy  :   -22.3881880 Eh     change       -0.6650680E-10 Eh
 * total energy  :   -31.2353532 Eh     change       -0.8847165E+01 Eh
 * total energy  :   -36.8319122 Eh     change       -0.5596559E+01 Eh
 * total energy  :   -40.1244799 Eh     change       -0.3292568E+01 Eh
 * total energy  :   -41.5005667 Eh     change       -0.1376087E+01 Eh
 * total energy  :   -41.7603501 Eh     change       -0.2597835E+00 Eh
 * total energy  :   -41.7772818 Eh     change       -0.1693167E-01 Eh
 * total energy  :   -41.7912889 Eh     change       -0.1400713E-01 Eh
 * total energy  :   -41.8285712 Eh     change       -0.3728224E-01 Eh
 * total energy  :   -41.8407138 Eh     change       -0.1214268E-01 Eh
 * total energy  :   -42.0986888 Eh     change       -0.9105989E-02 Eh
 * total energy  :   -42.1006928 Eh     change       -0.2004052E-02 Eh
 * total energy  :   -42.1021618 Eh     change       -0.1469010E-02 Eh
 * total energy  :   -42.1025904 Eh     change       -0.4285714E-03 Eh
 * total energy  :   -42.1027719 Eh     change       -0.1814813E-03 Eh
 * total energy  :   -42.1028701 Eh     change       -0.9818009E-04 Eh
 * total energy  :   -42.1029535 Eh     change       -0.8344843E-04 Eh
 * total energy  :   -42.1029949 Eh     change       -0.4132825E-04 Eh
 * total energy  :   -42.1030274 Eh     change       -0.3255926E-04 Eh
   *** GEOMETRY OPTIMIZATION CONVERGED AFTER 31 ITERATIONS ***

 final structure:
================
25
 xtb: 6.6.1 (8d0f1dd)
C            3.25278186354433        1.23771921587037        0.01691452266174
N            2.31754096959724        0.14492315890993        0.05086211821740
C            2.60789231054343       -1.15067717055253        0.08800168401515
N            1.47352958739291       -1.87860239656048        0.12487940321583
C            0.41246158736101       -1.00650895390118        0.11405183823562
C            0.94967402660066        0.27489919541463        0.06609838732699
C            0.12180289462287        1.46015984806139        0.02105332406204
O            0.51908045988224        2.60193987406817       -0.02228319477930
N           -1.23710485349768        1.12585912836208        0.02697796222200
C           -2.19200757819697        2.22929923218637       -0.02617469045880
C           -1.81201933953596       -0.11416144295053        0.07389450242646
O           -2.99319323343038       -0.30429639684209        0.06853878257690
N           -0.91592933759318       -1.26630572982465        0.13491319350712
C           -1.47522190567919       -2.48336526286429        0.21058389394668
H            3.75441727311190        1.33685372183363        0.98052300578339
H            4.00387860465892        1.06887063297053       -0.75385229870226
H            2.70904708059966        2.15858220339007       -0.19124834044169
H            3.59852085974684       -1.56243360632107        0.08062751893062
H           -1.63029665882131        3.16001444309605       -0.02016090511057
H           -2.79105470176068        2.15643746284580       -0.93290904030068
H           -2.85726904998269        2.18193372747368        0.83461779361046
H           -0.87209727468620       -3.36642955519856        0.26986843607390
H           -2.66309046783341       -4.77076865308290       -1.55684506255147
H           -2.54766667633597       -2.52809511620252        0.22232838421367
H            1.42675507379157       -2.88760901858192        0.14991039921876

          :  Hamiltonian                  GFN2-xTB          :
         :: total energy             -42.103027415719 Eh    ::
         :: gradient norm              0.002495385505 Eh/a0 ::
         :: HOMO-LUMO gap              0.209239145504 eV    ::
         :: SCC energy               -42.626205881970 Eh    ::
         :: -> dispersion             -0.022638649674 Eh    ::
         :: repulsion energy           0.523090914305 Eh    ::

    * Orbital Energies and Occupations

         #    Occupation            Energy/Eh            Energy/eV
      -------------------------------------------------------------
         1        2.0000           -0.9188813             -25.0040
       ...           ...                  ...                  ...
        25        2.0000           -0.6704946             -18.2451
        26        2.0000           -0.6701102             -18.2346
        27        2.0000           -0.6611553             -17.9910
        28        1.9999           -0.6374328             -17.3454
        29        1.9998           -0.6333551             -17.2345
        30        1.9998           -0.6295437             -17.1308
        31        1.9996           -0.6211101             -16.9013
        32        1.9986           -0.6001470             -16.3308
        33        1.9976           -0.5912617             -16.0890
        34        1.9968           -0.5868039             -15.9677
        35        1.9878           -0.5657394             -15.3946
        36        1.9868           -0.5643705             -15.3573
        37        1.0835           -0.4876813             -13.2705 (HOMO)
        38        0.8422           -0.4799919             -13.0612 (LUMO)
        39        0.0960           -0.4377295             -11.9112
        40        0.0099           -0.4010095             -10.9120
        41        0.0019           -0.3752023             -10.2098
        42        0.0000           -0.2903761              -7.9015
        43                         -0.2154157              -5.8618
        44                         -0.2026063              -5.5132
        45                         -0.1527874              -4.1576
        46                         -0.1365531              -3.7158
        47                         -0.0697657              -1.8984
        48                         -0.0419776              -1.1423
       ...                                ...                  ...
        67                          0.5548283              15.0976
      -------------------------------------------------------------
                  HL-Gap            0.0076894 Eh            0.2092 eV

     #   Z          covCN         q      C6AA      α(0)
     1   6 C        3.691    -0.096    22.535     6.793
     2   7 N        2.831     0.086    19.758     6.602
     3   6 C        3.051     0.055    26.727     8.479
     4   7 N        2.790    -0.056    22.321     7.017
     5   6 C        3.038     0.093    25.907     8.348
     6   6 C        3.114    -0.016    28.252     8.707
     7   6 C        2.763     0.267    22.493     7.767
     8   8 O        0.858    -0.364    20.980     6.141
     9   7 N        2.744    -0.078    22.756     7.085
    10   6 C        3.713    -0.065    21.872     6.682
    11   6 C        2.734     0.311    21.722     7.630
    12   8 O        0.859    -0.336    20.436     6.061
    13   7 N        2.735     0.009    21.101     6.822
    14   6 C        2.797    -0.057    29.395     8.882
    15   1 H        0.924     0.111     1.685     2.030
    16   1 H        0.925     0.107     1.724     2.053
    17   1 H        0.925     0.139     1.466     1.894
    18   1 H        0.926     0.128     1.548     1.945
    19   1 H        0.925     0.117     1.641     2.004
    20   1 H        0.925     0.099     1.797     2.096
    21   1 H        0.925     0.100     1.789     2.092
    22   1 H        0.926     0.090     1.881     2.145
    23   1 H        0.000    -0.007     7.947     5.155
    24   1 H        0.926     0.135     1.497     1.913
    25   1 H        0.860     0.230     0.965     1.539

Wiberg/Mayer (AO) data.
largest (>0.10) Wiberg bond orders for each atom

     #   Z sym  total        # sym  WBO       # sym  WBO       # sym  WBO
 ---------------------------------------------------------------------------
     1   6 C    3.912 --     2 N    0.984    16 H    0.963    17 H    0.959
                            15 H    0.954
     2   7 N    3.674 --     3 C    1.386     6 C    1.165     1 C    0.984
     3   6 C    3.844 --     2 N    1.386     4 N    1.290    18 H    0.951
     4   7 N    3.555 --     3 C    1.290     5 C    1.166    25 H    0.918
     5   6 C    3.886 --     6 C    1.339     4 N    1.166    13 N    1.164
     6   6 C    3.858 --     5 C    1.339     2 N    1.165     7 C    1.074
     7   6 C    3.917 --     8 O    1.676     9 N    1.081     6 C    1.074
     8   8 O    1.989 --     7 C    1.676     9 N    0.138
     9   7 N    3.569 --    11 C    1.170     7 C    1.081    10 C    0.962
                            12 O    0.151     8 O    0.138
    10   6 C    3.910 --    19 H    0.967    21 H    0.966    20 H    0.965
                             9 N    0.962
    11   6 C    3.925 --    12 O    1.730     9 N    1.170    13 N    0.930
    12   8 O    2.058 --    11 C    1.730     9 N    0.151
    13   7 N    3.623 --    14 C    1.303     5 C    1.164    11 C    0.930
    14   6 C    3.349 --    13 N    1.303    22 H    0.969    24 H    0.957
    15   1 H    0.984 --     1 C    0.954
    16   1 H    0.986 --     1 C    0.963
    17   1 H    0.980 --     1 C    0.959
    18   1 H    0.982 --     3 C    0.951
    19   1 H    0.985 --    10 C    0.967
    20   1 H    0.986 --    10 C    0.965
    21   1 H    0.986 --    10 C    0.966
    22   1 H    0.991 --    14 C    0.969
    23   1 H    0.014
    24   1 H    0.981 --    14 C    0.957
    25   1 H    0.946 --     4 N    0.918
 ---------------------------------------------------------------------------

molecular dipole:
                 x           y           z       tot (Debye)
 q only:        2.696      -1.638       0.215
   full:        2.971      -2.224       0.238       9.452

           -------------------------------------------------
          | TOTAL ENERGY              -42.103027415719 Eh   |
          | GRADIENT NORM               0.002495385505 Eh/α |
          | HOMO-LUMO GAP               0.209239145504 eV   |
           -------------------------------------------------

 * finished run on 2024/06/05 at 19:59:12.197
