   * xtb version 6.6.1 (8d0f1dd) compiled by 'conda@1efc2f54142f' on 2023-08-01
          program call               : xtb xtbopt.xyz --opt crude --input .xc2 --gfn2

   ID    Z sym.   atoms
    1    6 C      1, 3, 5-7, 10, 11, 14
    2    7 N      2, 4, 9, 13
    3    8 O      8, 12
    4    1 H      15-25
########################################################################
[WARNING] Please study the warnings concerning your input carefully
-1- readin_getIntValue: could not parse ''
########################################################################

          :  Hamiltonian                  GFN2-xTB          :
 * total energy  :   -42.0392474 Eh     change       -0.6750156E-11 Eh
   *** GEOMETRY OPTIMIZATION CONVERGED AFTER 1 ITERATIONS ***

 final structure:
================
25
 xtb: 6.6.1 (8d0f1dd)
C            3.40889342359198        0.83556037063267        0.52487492760221
N            2.09062252688395        1.25569992880523        0.42875113335806
C            1.86482001294513       -2.39160418296638       -0.98615619934051
N            1.63385767164359       -1.71618977943200        0.07948099096816
C            0.62511718447846       -0.70362452069419        0.12643816756429
C            0.96600777608623        0.69553637660592        0.21900866503891
C           -0.17251841790994        1.68676017361163        0.07822149513531
O            0.01582076665659        2.86674884048068        0.09923037527536
N           -1.42828433310562        1.13448803765545       -0.11649337462450
C           -2.55829140616981        2.04250244126028       -0.29903459315560
C           -1.74598093093680       -0.18949540173878       -0.11563614536754
O           -2.85453289308572       -0.62189043664043       -0.22935296009266
N           -0.64357767153280       -1.10055156600556        0.05074493965004
C           -1.00777527622110       -2.50125501456979        0.10934523712072
H            3.76821702194861        1.10721093649150        1.52569165708983
H            3.62143322256400       -0.22047770206057        0.31278306449071
H            3.98857195862713        1.47307953406816       -0.15586945458313
H            1.23958809703296       -2.19183005149306       -1.85609286383667
H           -2.17666230952243        3.05938632450963       -0.33336965896563
H           -3.07335316090057        1.79820173739201       -1.22692180917074
H           -3.25836345492527        1.93133224535628        0.52816140700016
H           -0.43542891747065       -3.01938429095238        0.87650867343671
H           -0.84137675028922       -2.98789614809078       -0.85410505352154
H           -2.07285757329062       -2.56004122481103        0.33375854505035
H            2.20648494700208       -1.86402808581419        0.91120445177691

          :  Hamiltonian                  GFN2-xTB          :
         :: total energy             -42.039247435678 Eh    ::
         :: gradient norm              0.004951856000 Eh/a0 ::
         :: HOMO-LUMO gap              0.723901919835 eV    ::
         :: SCC energy               -42.555930552027 Eh    ::
         :: -> dispersion             -0.022415448747 Eh    ::
         :: repulsion energy           0.516519928000 Eh    ::

    * Orbital Energies and Occupations

         #    Occupation            Energy/Eh            Energy/eV
      -------------------------------------------------------------
         1        2.0000           -0.9061918             -24.6587
       ...           ...                  ...                  ...
        25        2.0000           -0.6809263             -18.5289
        26        2.0000           -0.6767416             -18.4151
        27        2.0000           -0.6588571             -17.9284
        28        2.0000           -0.6521992             -17.7472
        29        2.0000           -0.6450055             -17.5515
        30        2.0000           -0.6412676             -17.4498
        31        1.9999           -0.6127141             -16.6728
        32        1.9999           -0.6117908             -16.6477
        33        1.9998           -0.6064008             -16.5010
        34        1.9964           -0.5826629             -15.8551
        35        1.9948           -0.5797424             -15.7756
        36        1.8944           -0.5554713             -15.1151
        37        1.7389           -0.5476280             -14.9017 (HOMO)
        38        0.3757           -0.5210251             -14.1778 (LUMO)
        39        0.0002           -0.4574794             -12.4486
        40        0.0000           -0.4275216             -11.6335
        41                         -0.3942522             -10.7281
        42                         -0.3126317              -8.5071
        43                         -0.2292535              -6.2383
        44                         -0.1927649              -5.2454
        45                         -0.1615157              -4.3951
        46                         -0.1193495              -3.2477
        47                         -0.0955588              -2.6003
        48                         -0.0418370              -1.1384
       ...                                ...                  ...
        67                          0.5752021              15.6520
      -------------------------------------------------------------
                  HL-Gap            0.0266029 Eh            0.7239 eV

     #   Z          covCN         q      C6AA      α(0)
     1   6 C        3.687    -0.055    21.757     6.677
     2   7 N        1.839    -0.091    23.767     7.225
     3   6 C        1.859    -0.071    33.087     9.291
     4   7 N        2.684    -0.006    21.378     6.867
     5   6 C        2.848     0.103    25.723     8.312
     6   6 C        2.881     0.048    26.926     8.507
     7   6 C        2.777     0.273    22.394     7.751
     8   8 O        0.859    -0.288    19.557     5.929
     9   7 N        2.736    -0.071    22.625     7.065
    10   6 C        3.711    -0.067    21.921     6.691
    11   6 C        2.722     0.320    21.565     7.602
    12   8 O        0.859    -0.330    20.325     6.045
    13   7 N        2.740    -0.015    21.539     6.893
    14   6 C        3.702    -0.075    22.094     6.721
    15   1 H        0.924     0.136     1.487     1.907
    16   1 H        0.924     0.062     2.176     2.307
    17   1 H        0.923     0.142     1.445     1.880
    18   1 H        0.925     0.096     1.821     2.110
    19   1 H        0.925     0.118     1.629     1.996
    20   1 H        0.925     0.102     1.763     2.077
    21   1 H        0.925     0.102     1.766     2.078
    22   1 H        0.925     0.094     1.839     2.121
    23   1 H        0.924     0.107     1.724     2.053
    24   1 H        0.925     0.135     1.496     1.913
    25   1 H        0.860     0.229     0.968     1.541

Wiberg/Mayer (AO) data.
largest (>0.10) Wiberg bond orders for each atom

     #   Z sym  total        # sym  WBO       # sym  WBO       # sym  WBO
 ---------------------------------------------------------------------------
     1   6 C    3.934 --     2 N    1.116    16 H    0.949    15 H    0.900
                            17 H    0.897
     2   7 N    2.963 --     6 C    1.650     1 C    1.116
     3   6 C    2.876 --     4 N    1.685    18 H    0.937     5 C    0.102
     4   7 N    3.649 --     3 C    1.685     5 C    0.993    25 H    0.899
     5   6 C    3.747 --    13 N    1.360     6 C    1.134     4 N    0.993
                             3 C    0.102
     6   6 C    3.948 --     2 N    1.650     5 C    1.134     7 C    0.936
     7   6 C    3.938 --     8 O    1.794     9 N    1.109     6 C    0.936
     8   8 O    2.114 --     7 C    1.794     9 N    0.141
     9   7 N    3.580 --    11 C    1.164     7 C    1.109    10 C    0.955
                            12 O    0.147     8 O    0.141
    10   6 C    3.907 --    19 H    0.969    20 H    0.967    21 H    0.965
                             9 N    0.955
    11   6 C    3.947 --    12 O    1.732     9 N    1.164    13 N    0.964
    12   8 O    2.078 --    11 C    1.732     9 N    0.147
    13   7 N    3.572 --     5 C    1.360    14 C    0.982    11 C    0.964
    14   6 C    3.913 --    13 N    0.982    22 H    0.965    24 H    0.957
                            23 H    0.946
    15   1 H    0.960 --     1 C    0.900
    16   1 H    0.972 --     1 C    0.949
    17   1 H    0.951 --     1 C    0.897
    18   1 H    0.971 --     3 C    0.937
    19   1 H    0.986 --    10 C    0.969
    20   1 H    0.987 --    10 C    0.967
    21   1 H    0.987 --    10 C    0.965
    22   1 H    0.986 --    14 C    0.965
    23   1 H    0.976 --    14 C    0.946
    24   1 H    0.980 --    14 C    0.957
    25   1 H    0.937 --     4 N    0.899
 ---------------------------------------------------------------------------

molecular dipole:
                 x           y           z       tot (Debye)
 q only:        1.695      -1.418       0.450
   full:        1.723      -1.654       0.508       6.207

           -------------------------------------------------
          | TOTAL ENERGY              -42.039247435678 Eh   |
          | GRADIENT NORM               0.004951856000 Eh/α |
          | HOMO-LUMO GAP               0.723901919835 eV   |
           -------------------------------------------------

 * finished run on 2024/06/05 at 19:57:54.664
