   * xtb version 6.6.1 (8d0f1dd) compiled by 'conda@1efc2f54142f' on 2023-08-01
          program call               : xtb xtbopt.xyz --opt crude --input .xc2 --gfn2

   ID    Z sym.   atoms
    1    6 C      1, 3, 5-7, 10, 11, 14
    2    7 N      2, 4, 9, 13
    3    8 O      8, 12
    4    1 H      15-25
########################################################################
[WARNING] Please study the warnings concerning your input carefully
-1- readin_getIntValue: could not parse ''
########################################################################

          :  Hamiltonian                  GFN2-xTB          :
 * total energy  :   -40.4272287 Eh     change       -0.9237056E-13 Eh
 * total energy  :   -42.1329113 Eh     change       -0.1705683E+01 Eh
 * total energy  :   -42.1520227 Eh     change       -0.1911139E-01 Eh
 * total energy  :   -42.1552479 Eh     change       -0.3225199E-02 Eh
 * total energy  :   -42.1564991 Eh     change       -0.1251230E-02 Eh
 * total energy  :   -42.1570218 Eh     change       -0.5227325E-03 Eh
 * total energy  :   -42.1574906 Eh     change       -0.4687642E-03 Eh
 * total energy  :   -42.1577418 Eh     change       -0.2512302E-03 Eh
 * total energy  :   -42.1579416 Eh     change       -0.1997754E-03 Eh
 * total energy  :   -42.1580619 Eh     change       -0.1202831E-03 Eh
   *** GEOMETRY OPTIMIZATION CONVERGED AFTER 10 ITERATIONS ***

 final structure:
================
25
 xtb: 6.6.1 (8d0f1dd)
C            3.26238302784482        1.19168327574989       -0.02066596791720
N            2.19165723812710        0.27858081802215       -0.03163802767608
C            3.47674651301334       -0.28657910621889       -0.06811669347664
N            1.15220044579146       -2.20597968265866       -0.07771412598095
C            0.33879460256079       -1.22972196362125       -0.04266986829132
C            0.91136529545110        0.10998140706698       -0.01688332201215
C            0.05795003614691        1.31618020358043        0.03656500324359
O            0.53643732737922        2.42831156960693        0.05578386279161
N           -1.29016403432613        1.06213817483180        0.06255023344419
C           -2.20748858717042        2.18731107725089        0.12063545415207
C           -1.88305913996924       -0.19686471629655        0.03376477921592
O           -3.07854495164611       -0.31451812720050        0.05624788035976
N           -1.03866184664160       -1.30075414195365       -0.02184391872573
C           -1.66703922522195       -2.61112954874044       -0.04805219673748
H            3.43993631167606        1.73293898922536        0.90337793484515
H            3.39162956834068        1.80344638004358       -0.90699687047291
H            3.79056821748659       -0.76937198640677       -0.98134336771085
H            3.79784360630881       -0.80747963427406        0.82759631266448
H           -1.62400440264266        3.10509735891553        0.13435204319308
H           -2.86907688225248        2.17022217795469       -0.74638230165632
H           -2.82412189078401        2.11531940774043        1.01742723275904
H           -1.37302688022167       -3.19046816822398        0.82897300532858
H           -1.38738739530471       -3.14717871708645       -0.95644274493735
H           -2.74640340255632       -2.46966244779309       -0.03512565655680
H            0.80189796270951       -3.15326405791521       -0.09222706194478

          :  Hamiltonian                  GFN2-xTB          :
         :: total energy             -42.158061874357 Eh    ::
         :: gradient norm              0.005343078532 Eh/a0 ::
         :: HOMO-LUMO gap              1.717441272101 eV    ::
         :: SCC energy               -42.687711776179 Eh    ::
         :: -> dispersion             -0.021769095431 Eh    ::
         :: repulsion energy           0.529542036235 Eh    ::

    * Orbital Energies and Occupations

         #    Occupation            Energy/Eh            Energy/eV
      -------------------------------------------------------------
         1        2.0000           -0.8942607             -24.3341
       ...           ...                  ...                  ...
        25        1.9994           -0.6563595             -17.8605
        26        1.9993           -0.6551246             -17.8268
        27        1.9988           -0.6460017             -17.5786
        28        1.9988           -0.6454813             -17.5644
        29        1.9978           -0.6363178             -17.3151
        30        1.9966           -0.6291645             -17.1204
        31        1.9962           -0.6276813             -17.0801
        32        1.9924           -0.6164567             -16.7746
        33        1.9711           -0.5951900             -16.1959
        34        1.9502           -0.5864156             -15.9572
        35        1.9414           -0.5837703             -15.8852
        36        1.8924           -0.5737547             -15.6127
        37        1.8627           -0.5696506             -15.5010 (HOMO)
        38        0.4026           -0.5065358             -13.7835 (LUMO)
        39        0.0006           -0.3995452             -10.8722
        40        0.0003           -0.3888081             -10.5800
        41        0.0000           -0.3011834              -8.1956
        42        0.0000           -0.2765013              -7.5240
        43                         -0.2118399              -5.7645
        44                         -0.1675229              -4.5585
        45                         -0.1359144              -3.6984
        46                         -0.0958609              -2.6085
        47                         -0.0641956              -1.7469
        48                         -0.0493811              -1.3437
       ...                                ...                  ...
        67                          0.5601788              15.2432
      -------------------------------------------------------------
                  HL-Gap            0.0631148 Eh            1.7174 eV

     #   Z          covCN         q      C6AA      α(0)
     1   6 C        3.737    -0.017    20.967     6.534
     2   7 N        2.745     0.103    19.473     6.554
     3   6 C        3.738    -0.021    21.035     6.545
     4   7 N        1.791    -0.288    28.296     7.879
     5   6 C        2.826     0.165    24.442     8.101
     6   6 C        2.899     0.038    27.156     8.544
     7   6 C        2.772     0.268    22.484     7.766
     8   8 O        0.858    -0.338    20.480     6.068
     9   7 N        2.740    -0.066    22.523     7.048
    10   6 C        3.707    -0.063    21.852     6.682
    11   6 C        2.716     0.323    21.513     7.593
    12   8 O        0.860    -0.336    20.440     6.062
    13   7 N        2.741    -0.070    22.597     7.060
    14   6 C        3.703    -0.064    21.890     6.690
    15   1 H        0.925     0.130     1.537     1.939
    16   1 H        0.925     0.130     1.533     1.936
    17   1 H        0.926     0.129     1.544     1.943
    18   1 H        0.925     0.128     1.551     1.947
    19   1 H        0.925     0.118     1.630     1.997
    20   1 H        0.924     0.112     1.679     2.026
    21   1 H        0.924     0.112     1.680     2.027
    22   1 H        0.924     0.092     1.855     2.130
    23   1 H        0.924     0.092     1.855     2.130
    24   1 H        0.925     0.123     1.587     1.970
    25   1 H        0.860     0.201     1.100     1.643

Wiberg/Mayer (AO) data.
largest (>0.10) Wiberg bond orders for each atom

     #   Z sym  total        # sym  WBO       # sym  WBO       # sym  WBO
 ---------------------------------------------------------------------------
     1   6 C    3.885 --     3 C    0.975     2 N    0.967    15 H    0.940
                            16 H    0.940
     2   7 N    3.529 --     6 C    1.504     1 C    0.967     3 C    0.967
     3   6 C    3.886 --     1 C    0.975     2 N    0.967    17 H    0.941
                            18 H    0.940
     4   7 N    2.845 --     5 C    1.677    25 H    0.921    13 N    0.122
     5   6 C    3.947 --     4 N    1.677    13 N    1.123     6 C    1.057
     6   6 C    3.784 --     2 N    1.504     5 C    1.057     7 C    1.002
     7   6 C    3.930 --     8 O    1.683     9 N    1.151     6 C    1.002
     8   8 O    1.972 --     7 C    1.683     9 N    0.148
     9   7 N    3.523 --     7 C    1.151    11 C    1.080    10 C    0.974
                             8 O    0.148    12 O    0.104
    10   6 C    3.882 --     9 N    0.974    19 H    0.964    21 H    0.950
                            20 H    0.950
    11   6 C    3.949 --    12 O    1.696    13 N    1.090     9 N    1.080
    12   8 O    2.014 --    11 C    1.696    13 N    0.113     9 N    0.104
    13   7 N    3.492 --     5 C    1.123    11 C    1.090    14 C    0.978
                             4 N    0.122    12 O    0.113
    14   6 C    3.905 --    13 N    0.978    24 H    0.961    23 H    0.960
                            22 H    0.959
    15   1 H    0.972 --     1 C    0.940
    16   1 H    0.972 --     1 C    0.940
    17   1 H    0.972 --     3 C    0.941
    18   1 H    0.972 --     3 C    0.940
    19   1 H    0.981 --    10 C    0.964
    20   1 H    0.968 --    10 C    0.950
    21   1 H    0.968 --    10 C    0.950
    22   1 H    0.978 --    14 C    0.959
    23   1 H    0.978 --    14 C    0.960
    24   1 H    0.981 --    14 C    0.961
    25   1 H    0.951 --     4 N    0.921
 ---------------------------------------------------------------------------

molecular dipole:
                 x           y           z       tot (Debye)
 q only:        2.111      -0.653      -0.040
   full:        1.842      -0.889      -0.043       5.199

           -------------------------------------------------
          | TOTAL ENERGY              -42.158061874357 Eh   |
          | GRADIENT NORM               0.005343078532 Eh/α |
          | HOMO-LUMO GAP               1.717441272101 eV   |
           -------------------------------------------------

 * finished run on 2024/06/05 at 20:00:18.086
