   * xtb version 6.6.1 (8d0f1dd) compiled by 'conda@1efc2f54142f' on 2023-08-01
          program call               : xtb xtbopt.xyz --opt crude --input .xc2 --gfn2

   ID    Z sym.   atoms
    1    6 C      1, 3, 5-7, 10, 11, 14
    2    7 N      2, 4, 9, 13
    3    8 O      8, 12
    4    1 H      15-25
########################################################################
[WARNING] Please study the warnings concerning your input carefully
-1- readin_getIntValue: could not parse ''
########################################################################

          :  Hamiltonian                  GFN2-xTB          :
 * total energy  :   -42.1643978 Eh     change       -0.6110668E-12 Eh
   *** GEOMETRY OPTIMIZATION CONVERGED AFTER 1 ITERATIONS ***

 final structure:
================
25
 xtb: 6.6.1 (8d0f1dd)
C            3.02643579861718        1.36330671215490        0.18931311181892
N            2.13392519856564        0.19839125648995        0.11455492487578
C            2.49962792434291       -1.07153155732201       -0.04572950446864
N            1.40361452422025       -1.86066903727485       -0.13210087894154
C            0.30560637160365       -1.06357944731699       -0.03086960657412
C            0.75516453490600        0.25185368424696        0.11715549330757
C           -0.13644086381487        1.33229060189090        0.24522573903906
O            3.35425294970974        1.81489266702408       -1.06674863094079
N           -1.41693179359767        0.96750204816550        0.21349560091470
C           -2.43112857604407        1.99973886525467        0.33696443052121
C           -1.93989528272389       -0.32855848754440        0.08333679289196
O           -3.11833785090410       -0.54673403088037        0.08462588395807
N           -1.00078836166017       -1.37016815883546       -0.05265505323952
C           -1.47898474870622       -2.73282434499860       -0.18589365209074
H            2.51177357202222        2.11044504386506        0.80485832772054
H            3.95402035760280        1.03582852823098        0.67180804801544
H            2.71209843427285        2.44978887430059       -1.40678994361539
H            3.51127749878107       -1.41986452597545       -0.10258688426386
H           -1.93232132135426        2.95863521661966        0.44089308513451
H           -3.07119818220060        1.99820595916743       -0.54531785178853
H           -3.05876709327061        1.80143529159791        1.20629046227655
H           -1.12098298976109       -3.34450878209530        0.64275962211466
H           -1.15498122885364       -3.15956306252126       -1.13543805967738
H           -2.56775984462813       -2.70199933175476       -0.16173056855226
H            1.42115248697295       -2.86407544088787       -0.25424927053534

          :  Hamiltonian                  GFN2-xTB          :
         :: total energy             -42.164397797161 Eh    ::
         :: gradient norm              0.002138171043 Eh/a0 ::
         :: HOMO-LUMO gap              1.736956893549 eV    ::
         :: SCC energy               -42.671591466756 Eh    ::
         :: -> dispersion             -0.022171310861 Eh    ::
         :: repulsion energy           0.507083635210 Eh    ::

    * Orbital Energies and Occupations

         #    Occupation            Energy/Eh            Energy/eV
      -------------------------------------------------------------
         1        2.0000           -0.9052834             -24.6340
       ...           ...                  ...                  ...
        25        2.0000           -0.6739836             -18.3400
        26        2.0000           -0.6495653             -17.6756
        27        2.0000           -0.6468497             -17.6017
        28        1.9999           -0.6405342             -17.4298
        29        1.9998           -0.6249811             -17.0066
        30        1.9998           -0.6242278             -16.9861
        31        1.9995           -0.6092618             -16.5789
        32        1.9992           -0.6016553             -16.3719
        33        1.9984           -0.5898037             -16.0494
        34        1.9976           -0.5833428             -15.8736
        35        1.9976           -0.5830839             -15.8665
        36        1.9850           -0.5542388             -15.0816
        37        1.7636           -0.5087287             -13.8432 (HOMO)
        38        0.2339           -0.4448967             -12.1063 (LUMO)
        39        0.0226           -0.4061113             -11.0509
        40        0.0030           -0.3742085             -10.1827
        41        0.0000           -0.2857752              -7.7763
        42                         -0.2020496              -5.4981
        43                         -0.1975983              -5.3769
        44                         -0.1442432              -3.9251
        45                         -0.1161073              -3.1594
        46                         -0.0771137              -2.0984
        47                         -0.0633471              -1.7238
        48                         -0.0454681              -1.2373
       ...                                ...                  ...
        67                          0.5363464              14.5947
      -------------------------------------------------------------
                  HL-Gap            0.0638320 Eh            1.7370 eV

     #   Z          covCN         q      C6AA      α(0)
     1   6 C        3.613     0.119    19.098     6.308
     2   7 N        2.828     0.021    20.880     6.787
     3   6 C        3.046     0.064    26.521     8.446
     4   7 N        2.783    -0.058    22.369     7.025
     5   6 C        3.049     0.114    25.452     8.274
     6   6 C        3.114     0.025    27.280     8.556
     7   6 C        1.925    -0.124    34.575     9.496
     8   8 O        1.658    -0.392    20.688     6.140
     9   7 N        2.759     0.012    21.053     6.815
    10   6 C        3.718    -0.070    21.971     6.696
    11   6 C        2.732     0.309    21.753     7.636
    12   8 O        0.859    -0.360    20.901     6.130
    13   7 N        2.738    -0.048    22.160     6.991
    14   6 C        3.696    -0.070    22.015     6.712
    15   1 H        0.924     0.089     1.886     2.148
    16   1 H        0.924     0.099     1.791     2.093
    17   1 H        0.805     0.328     0.643     1.259
    18   1 H        0.926     0.124     1.583     1.968
    19   1 H        0.925     0.104     1.751     2.070
    20   1 H        0.925     0.100     1.785     2.090
    21   1 H        0.924     0.101     1.778     2.085
    22   1 H        0.924     0.081     1.967     2.193
    23   1 H        0.924     0.082     1.959     2.189
    24   1 H        0.925     0.125     1.577     1.964
    25   1 H        0.860     0.226     0.982     1.552

Wiberg/Mayer (AO) data.
largest (>0.10) Wiberg bond orders for each atom

     #   Z sym  total        # sym  WBO       # sym  WBO       # sym  WBO
 ---------------------------------------------------------------------------
     1   6 C    3.922 --     8 O    1.053    15 H    0.957    16 H    0.956
                             2 N    0.925
     2   7 N    3.614 --     3 C    1.377     6 C    1.130     1 C    0.925
     3   6 C    3.798 --     2 N    1.377     4 N    1.273    18 H    0.953
     4   7 N    3.588 --     3 C    1.273     5 C    1.195    25 H    0.918
     5   6 C    3.907 --     6 C    1.289    13 N    1.228     4 N    1.195
     6   6 C    3.894 --     5 C    1.289     7 C    1.233     2 N    1.130
     7   6 C    2.800 --     9 N    1.374     6 C    1.233
     8   8 O    2.022 --     1 C    1.053    17 H    0.878
     9   7 N    3.627 --     7 C    1.374    11 C    1.068    10 C    0.979
                            12 O    0.115
    10   6 C    3.924 --     9 N    0.979    19 H    0.975    20 H    0.961
                            21 H    0.961
    11   6 C    3.937 --    12 O    1.715     9 N    1.068    13 N    1.052
    12   8 O    2.052 --    11 C    1.715    13 N    0.133     9 N    0.115
    13   7 N    3.562 --     5 C    1.228    11 C    1.052    14 C    0.974
                            12 O    0.133
    14   6 C    3.926 --    13 N    0.974    22 H    0.970    23 H    0.970
                            24 H    0.965
    15   1 H    0.991 --     1 C    0.957
    16   1 H    0.989 --     1 C    0.956
    17   1 H    0.892 --     8 O    0.878
    18   1 H    0.984 --     3 C    0.953
    19   1 H    0.988 --    10 C    0.975
    20   1 H    0.985 --    10 C    0.961
    21   1 H    0.985 --    10 C    0.961
    22   1 H    0.991 --    14 C    0.970
    23   1 H    0.991 --    14 C    0.970
    24   1 H    0.984 --    14 C    0.965
    25   1 H    0.948 --     4 N    0.918
 ---------------------------------------------------------------------------

molecular dipole:
                 x           y           z       tot (Debye)
 q only:        1.911      -0.888       0.123
   full:        1.977      -1.575       0.105       6.431

           -------------------------------------------------
          | TOTAL ENERGY              -42.164397797161 Eh   |
          | GRADIENT NORM               0.002138171043 Eh/α |
          | HOMO-LUMO GAP               1.736956893549 eV   |
           -------------------------------------------------

 * finished run on 2024/06/05 at 19:57:59.113
