   * xtb version 6.6.1 (8d0f1dd) compiled by 'conda@1efc2f54142f' on 2023-08-01
          program call               : xtb struc.xyz --opt loose --input .xc1 --gfn2

   ID    Z sym.   atoms
    1    6 C      1, 3, 5-7, 10, 11, 14
    2    7 N      2, 4, 9, 13
    3    8 O      8, 12
    4    1 H      15-25
constraining bond 7 13 to    5.9200000 Å, actual value:    2.8933564 Å

          :  Hamiltonian                  GFN2-xTB          :
 * total energy  :   -25.9035561 Eh     change       -0.2401990E-09 Eh
 * total energy  :   -31.1390785 Eh     change       -0.5235522E+01 Eh
 * total energy  :   -34.5674237 Eh     change       -0.3428345E+01 Eh
 * total energy  :   -37.0262045 Eh     change       -0.2458781E+01 Eh
 * total energy  :   -38.9918888 Eh     change       -0.1965684E+01 Eh
 * total energy  :   -40.3663162 Eh     change       -0.1374427E+01 Eh
 * total energy  :   -41.1339913 Eh     change       -0.7676750E+00 Eh
 * total energy  :   -41.4671384 Eh     change       -0.3331472E+00 Eh
 * total energy  :   -41.5651869 Eh     change       -0.9804849E-01 Eh
 * total energy  :   -41.5870623 Eh     change       -0.2187539E-01 Eh
 * total energy  :   -42.0508602 Eh     change       -0.6179645E-04 Eh
 * total energy  :   -42.0509057 Eh     change       -0.4545554E-04 Eh
 * total energy  :   -42.0509492 Eh     change       -0.4350964E-04 Eh
 * total energy  :   -42.0509943 Eh     change       -0.4508999E-04 Eh
 * total energy  :   -42.0510453 Eh     change       -0.5104903E-04 Eh
 * total energy  :   -42.0510776 Eh     change       -0.3232869E-04 Eh
 * total energy  :   -42.0511280 Eh     change       -0.5039369E-04 Eh
 * total energy  :   -42.0511540 Eh     change       -0.2600788E-04 Eh
 * total energy  :   -42.0511895 Eh     change       -0.3546486E-04 Eh
   *** GEOMETRY OPTIMIZATION CONVERGED AFTER 118 ITERATIONS ***

 final structure:
================
25
 xtb: 6.6.1 (8d0f1dd)
C            3.46450294645653        0.42357874538045        0.00856463291834
N            2.57779442579231       -0.70809226436033        0.01510859179167
C            2.95942484530512       -1.99161791729076        0.01611914944306
N            1.86106308074413       -2.76505373281935        0.02725889141506
C            0.76155027959689       -1.92061401699324        0.03371173937892
C            1.22261556260327       -0.60715331347899        0.02503144503348
C            1.40580741570334        3.26768894645274        0.02555440728620
O            0.72537172961620        4.17315354789462        0.00327437956194
N           -3.10002107439120        2.13305322921098        0.19718072476322
C           -3.73420283613600        3.34042298388541       -0.12409076658892
C           -2.72357504860963        1.03183119740790        0.01812971986049
O           -2.28192183523395       -0.04866755898159        0.00518418651874
N           -0.53625820167139       -2.32465110323767        0.04604126059242
C           -1.01450000530794       -3.55323311925788        0.06680657795421
H            4.11960887424245        0.39770684908860        0.87980293742365
H            4.08030792986710        0.42016431399440       -0.89150491739544
H            2.86056811649599        1.33117944280525        0.03229804955702
H            3.96907885585863       -2.34902478878134        0.01069641753983
H           -2.99147533494191        4.05619921636101       -0.48173584164579
H           -4.49802204674681        3.19445565851884       -0.88930619037140
H           -4.19903299964874        3.73342443385711        0.78157928987650
H           -0.36561099250600       -4.40923526641245        0.07768120529981
H           -1.19271354758120       -1.53823454391683        0.04185899046956
H           -2.07678997095406       -3.69511222282475        0.07626429721689
H            1.86686134554566       -3.77393017490985        0.02966244000056

          :  Hamiltonian                  GFN2-xTB          :
         :: total energy             -42.051189505268 Eh    ::
         :: gradient norm              0.002772678058 Eh/a0 ::
         :: HOMO-LUMO gap              1.772962281131 eV    ::
         :: SCC energy               -42.648548965365 Eh    ::
         :: -> dispersion             -0.016320869016 Eh    ::
         :: repulsion energy           0.597364651922 Eh    ::

    * Orbital Energies and Occupations

         #    Occupation            Energy/Eh            Energy/eV
      -------------------------------------------------------------
         1        2.0000           -0.8725435             -23.7431
       ...           ...                  ...                  ...
        25        1.9995           -0.6548620             -17.8197
        26        1.9989           -0.6347883             -17.2735
        27        1.9987           -0.6322809             -17.2052
        28        1.9984           -0.6270925             -17.0641
        29        1.9982           -0.6245315             -16.9944
        30        1.9965           -0.6084614             -16.5571
        31        1.9944           -0.5968637             -16.2415
        32        1.9846           -0.5728419             -15.5878
        33        1.9649           -0.5530802             -15.0501
        34        1.9447           -0.5420620             -14.7503
        35        1.9367           -0.5387650             -14.6605
        36        1.9123           -0.5307263             -14.4418
        37        1.6675           -0.4958124             -13.4917 (HOMO)
        38        0.4880           -0.4306572             -11.7188 (LUMO)
        39        0.0429           -0.3667526              -9.9798
        40        0.0345           -0.3615164              -9.8374
        41        0.0342           -0.3612877              -9.8311
        42        0.0030           -0.3033600              -8.2548
        43        0.0023           -0.2965659              -8.0700
        44        0.0016           -0.2887014              -7.8560
        45        0.0000           -0.1515760              -4.1246
        46        0.0000           -0.1241791              -3.3791
        47        0.0000           -0.0875874              -2.3834
        48                         -0.0537773              -1.4634
       ...                                ...                  ...
        67                          1.2579977              34.2319
      -------------------------------------------------------------
                  HL-Gap            0.0651552 Eh            1.7730 eV

     #   Z          covCN         q      C6AA      α(0)
     1   6 C        3.694    -0.092    22.439     6.777
     2   7 N        2.871     0.078    19.886     6.623
     3   6 C        3.014     0.049    26.878     8.504
     4   7 N        2.780    -0.074    22.681     7.073
     5   6 C        3.046     0.092    25.912     8.349
     6   6 C        2.062    -0.151    35.232     9.588
     7   6 C        0.856     0.033    34.111     9.746
     8   8 O        0.856    -0.059    15.929     5.351
     9   7 N        1.820    -0.121    24.395     7.318
    10   6 C        3.685    -0.034    21.386     6.621
    11   6 C        1.769     0.311    24.241     7.960
    12   8 O        0.856    -0.305    19.873     5.977
    13   7 N        2.683    -0.022    21.673     6.914
    14   6 C        2.777    -0.048    29.180     8.847
    15   1 H        0.924     0.090     1.877     2.142
    16   1 H        0.924     0.090     1.875     2.141
    17   1 H        0.924     0.126     1.567     1.957
    18   1 H        0.926     0.093     1.848     2.126
    19   1 H        0.924     0.097     1.812     2.105
    20   1 H        0.924     0.091     1.873     2.140
    21   1 H        0.924     0.104     1.752     2.070
    22   1 H        0.926     0.084     1.942     2.179
    23   1 H        0.859     0.269     0.814     1.413
    24   1 H        0.926     0.100     1.782     2.087
    25   1 H        0.860     0.200     1.106     1.647

Wiberg/Mayer (AO) data.
largest (>0.10) Wiberg bond orders for each atom

     #   Z sym  total        # sym  WBO       # sym  WBO       # sym  WBO
 ---------------------------------------------------------------------------
     1   6 C    3.922 --     2 N    0.995    15 H    0.963    16 H    0.962
                            17 H    0.956
     2   7 N    3.679 --     3 C    1.327     6 C    1.241     1 C    0.995
     3   6 C    3.783 --     2 N    1.327     4 N    1.304    18 H    0.957
     4   7 N    3.529 --     3 C    1.304     5 C    1.126    25 H    0.927
     5   6 C    3.828 --     6 C    1.361    13 N    1.157     4 N    1.126
     6   6 C    2.808 --     5 C    1.361     2 N    1.241
     7   6 C    2.571 --     8 O    2.554
     8   8 O    2.555 --     7 C    2.554
     9   7 N    3.425 --    11 C    2.049    10 C    1.026    12 O    0.349
    10   6 C    3.914 --     9 N    1.026    21 H    0.952    20 H    0.950
                            19 H    0.949
    11   6 C    3.934 --     9 N    2.049    12 O    1.802
    12   8 O    2.237 --    11 C    1.802     9 N    0.349
    13   7 N    3.531 --    14 C    1.443     5 C    1.157    23 H    0.861
    14   6 C    3.515 --    13 N    1.443    24 H    0.969    22 H    0.968
    15   1 H    0.986 --     1 C    0.963
    16   1 H    0.986 --     1 C    0.962
    17   1 H    0.980 --     1 C    0.956
    18   1 H    0.989 --     3 C    0.957
    19   1 H    0.976 --    10 C    0.949
    20   1 H    0.977 --    10 C    0.950
    21   1 H    0.976 --    10 C    0.952
    22   1 H    0.991 --    14 C    0.968
    23   1 H    0.927 --    13 N    0.861
    24   1 H    0.988 --    14 C    0.969
    25   1 H    0.957 --     4 N    0.927
 ---------------------------------------------------------------------------

molecular dipole:
                 x           y           z       tot (Debye)
 q only:        0.644      -1.589      -0.060
   full:        0.643      -1.895      -0.147       5.099

           -------------------------------------------------
          | TOTAL ENERGY              -42.051189505268 Eh   |
          | GRADIENT NORM               0.002772678058 Eh/α |
          | HOMO-LUMO GAP               1.772962281131 eV   |
           -------------------------------------------------

 * finished run on 2024/06/05 at 19:58:52.420
