   * xtb version 6.6.1 (8d0f1dd) compiled by 'conda@1efc2f54142f' on 2023-08-01
          program call               : xtb struc.xyz --opt loose --input .xc1 --gfn2

   ID    Z sym.   atoms
    1    6 C      1, 3, 5-7, 10, 11, 14
    2    7 N      2, 4, 9, 13
    3    8 O      8, 12
    4    1 H      15-25
constraining bond 6 10 to    6.0000000 Å, actual value:    3.7045483 Å

          :  Hamiltonian                  GFN2-xTB          :
 * total energy  :   -32.8519062 Eh     change       -0.2401990E-09 Eh
 * total energy  :   -36.6925805 Eh     change       -0.3840674E+01 Eh
 * total energy  :   -39.3093993 Eh     change       -0.2616819E+01 Eh
 * total energy  :   -40.8692200 Eh     change       -0.1559821E+01 Eh
 * total energy  :   -41.4757039 Eh     change       -0.6064839E+00 Eh
 * total energy  :   -41.6116193 Eh     change       -0.1359154E+00 Eh
 * total energy  :   -41.6695642 Eh     change       -0.5794490E-01 Eh
 * total energy  :   -41.7470806 Eh     change       -0.7751634E-01 Eh
 * total energy  :   -41.8199893 Eh     change       -0.7290875E-01 Eh
 * total energy  :   -41.8721524 Eh     change       -0.5216305E-01 Eh
 * total energy  :   -42.1411893 Eh     change       -0.8590121E-02 Eh
 * total energy  :   -42.1467593 Eh     change       -0.5570072E-02 Eh
 * total energy  :   -42.1511345 Eh     change       -0.4375185E-02 Eh
 * total energy  :   -42.1524175 Eh     change       -0.1282943E-02 Eh
 * total energy  :   -42.1528795 Eh     change       -0.4620294E-03 Eh
 * total energy  :   -42.1530766 Eh     change       -0.1971056E-03 Eh
 * total energy  :   -42.1531669 Eh     change       -0.9028281E-04 Eh
 * total energy  :   -42.1532369 Eh     change       -0.6997405E-04 Eh
 * total energy  :   -42.1532719 Eh     change       -0.3500991E-04 Eh
   *** GEOMETRY OPTIMIZATION CONVERGED AFTER 34 ITERATIONS ***

 final structure:
================
25
 xtb: 6.6.1 (8d0f1dd)
C            3.55445439324473        0.86874195383777        0.03346193108892
N            2.57456287665126       -0.18204657625325       -0.00446333927207
C            2.79914142511789       -1.49335289106751       -0.06628337621429
N            1.61904906645369       -2.16085804789512       -0.05940175219954
C            0.61050232463756       -1.23787640600724        0.01214418164060
C            1.21868518773590        0.01258067392696        0.04713648259924
C            0.39754294000232        1.23610214775943        0.09017803946257
O            0.88035177926822        2.35289440920380        0.10243927407307
N           -0.91812822137548        0.96128842946877        0.10378044452488
C           -3.83891657049745        3.23678420676209       -0.10632015630756
C           -1.54116981371568       -0.20631650927638        0.08286630367087
O           -2.73816142232136       -0.35715604681950        0.09253167428416
N           -0.71407946807587       -1.41370257132346        0.03837427364491
C           -1.34892384964227       -2.70803515749360        0.01716536773547
H            3.99585648540934        0.93936798639947        1.02978575202321
H            4.34461457558081        0.67723195326755       -0.69027598050621
H            3.05902660359382        1.81409487636267       -0.19030336486698
H            3.76276910772217       -1.95695542529182       -0.12353293469777
H           -3.08511843857840        3.99927178736398       -0.09830138574785
H           -4.16781919530612        2.81562566290836       -1.03534608653706
H           -4.23897962816460        2.86763057191404        0.81650624431898
H           -1.05455374058426       -3.29899403279640        0.88647433345555
H           -1.10469171666752       -3.24772884371531       -0.89983745972765
H           -2.42579262711651       -2.53557216787819        0.05163961862606
H            1.52020944079647       -3.16478144186105       -0.09924646719780

          :  Hamiltonian                  GFN2-xTB          :
         :: total energy             -42.153271866602 Eh    ::
         :: gradient norm              0.003024432266 Eh/a0 ::
         :: HOMO-LUMO gap              1.493508444462 eV    ::
         :: SCC energy               -42.680575904462 Eh    ::
         :: -> dispersion             -0.020782334705 Eh    ::
         :: repulsion energy           0.527263478108 Eh    ::

    * Orbital Energies and Occupations

         #    Occupation            Energy/Eh            Energy/eV
      -------------------------------------------------------------
         1        2.0000           -0.9069430             -24.6792
       ...           ...                  ...                  ...
        25        1.9980           -0.6573507             -17.8874
        26        1.9973           -0.6500703             -17.6893
        27        1.9943           -0.6318343             -17.1931
        28        1.9913           -0.6219054             -16.9229
        29        1.9896           -0.6176195             -16.8063
        30        1.9881           -0.6143545             -16.7174
        31        1.9814           -0.6036922             -16.4273
        32        1.9812           -0.6033726             -16.4186
        33        1.9391           -0.5749945             -15.6464
        34        1.8710           -0.5562914             -15.1375
        35        1.8690           -0.5559003             -15.1268
        36        1.8193           -0.5476303             -14.9018
        37        1.7041           -0.5343603             -14.5407 (HOMO)
        38        0.7270           -0.4794749             -13.0472 (LUMO)
        39        0.1197           -0.4273659             -11.6292
        40        0.0259           -0.3898935             -10.6095
        41        0.0081           -0.3619157              -9.8482
        42        0.0001           -0.2652498              -7.2178
        43        0.0000           -0.1958079              -5.3282
        44        0.0000           -0.1767928              -4.8108
        45        0.0000           -0.1405120              -3.8235
        46                         -0.0816524              -2.2219
        47                         -0.0563477              -1.5333
        48                         -0.0369653              -1.0059
       ...                                ...                  ...
        67                          0.5542436              15.0817
      -------------------------------------------------------------
                  HL-Gap            0.0548854 Eh            1.4935 eV

     #   Z          covCN         q      C6AA      α(0)
     1   6 C        3.691    -0.091    22.429     6.777
     2   7 N        2.827     0.081    19.842     6.616
     3   6 C        3.047     0.050    26.841     8.497
     4   7 N        2.791    -0.066    22.524     7.049
     5   6 C        3.025     0.121    25.319     8.254
     6   6 C        3.121    -0.015    28.194     8.696
     7   6 C        2.762     0.296    21.985     7.679
     8   8 O        0.858    -0.329    20.303     6.041
     9   7 N        1.843    -0.239    27.087     7.713
    10   6 C        2.779    -0.078    29.938     8.962
    11   6 C        2.709     0.336    21.294     7.553
    12   8 O        0.860    -0.334    20.403     6.056
    13   7 N        2.736    -0.064    22.488     7.043
    14   6 C        3.693    -0.067    21.966     6.706
    15   1 H        0.924     0.113     1.671     2.022
    16   1 H        0.925     0.106     1.728     2.056
    17   1 H        0.924     0.140     1.465     1.893
    18   1 H        0.926     0.123     1.589     1.971
    19   1 H        0.926     0.130     1.537     1.939
    20   1 H        0.926     0.128     1.547     1.945
    21   1 H        0.926     0.130     1.533     1.936
    22   1 H        0.924     0.086     1.918     2.166
    23   1 H        0.924     0.086     1.922     2.168
    24   1 H        0.924     0.130     1.534     1.937
    25   1 H        0.860     0.227     0.976     1.548

Wiberg/Mayer (AO) data.
largest (>0.10) Wiberg bond orders for each atom

     #   Z sym  total        # sym  WBO       # sym  WBO       # sym  WBO
 ---------------------------------------------------------------------------
     1   6 C    3.900 --     2 N    0.988    16 H    0.962    17 H    0.953
                            15 H    0.949
     2   7 N    3.655 --     3 C    1.364     6 C    1.171     1 C    0.988
     3   6 C    3.787 --     2 N    1.364     4 N    1.264    18 H    0.953
     4   7 N    3.555 --     3 C    1.264     5 C    1.174    25 H    0.920
     5   6 C    3.922 --     6 C    1.328    13 N    1.252     4 N    1.174
     6   6 C    3.775 --     5 C    1.328     2 N    1.171     7 C    1.005
     7   6 C    3.924 --     8 O    1.620     9 N    1.222     6 C    1.005
     8   8 O    1.878 --     7 C    1.620     9 N    0.114
     9   7 N    2.820 --    11 C    1.283     7 C    1.222     8 O    0.114
                            12 O    0.107
    10   6 C    2.912 --    20 H    0.971    19 H    0.971    21 H    0.970
    11   6 C    3.933 --    12 O    1.649     9 N    1.283    13 N    0.923
    12   8 O    1.926 --    11 C    1.649     9 N    0.107
    13   7 N    3.434 --     5 C    1.252    14 C    0.989    11 C    0.923
    14   6 C    3.903 --    13 N    0.989    22 H    0.959    23 H    0.959
                            24 H    0.955
    15   1 H    0.978 --     1 C    0.949
    16   1 H    0.982 --     1 C    0.962
    17   1 H    0.975 --     1 C    0.953
    18   1 H    0.983 --     3 C    0.953
    19   1 H    0.972 --    10 C    0.971
    20   1 H    0.972 --    10 C    0.971
    21   1 H    0.972 --    10 C    0.970
    22   1 H    0.976 --    14 C    0.959
    23   1 H    0.976 --    14 C    0.959
    24   1 H    0.976 --    14 C    0.955
    25   1 H    0.947 --     4 N    0.920
 ---------------------------------------------------------------------------

molecular dipole:
                 x           y           z       tot (Debye)
 q only:        1.915      -1.721      -0.164
   full:        2.305      -2.407      -0.181       8.483

           -------------------------------------------------
          | TOTAL ENERGY              -42.153271866602 Eh   |
          | GRADIENT NORM               0.003024432266 Eh/α |
          | HOMO-LUMO GAP               1.493508444462 eV   |
           -------------------------------------------------

 * finished run on 2024/06/05 at 19:58:47.996
