   * xtb version 6.6.1 (8d0f1dd) compiled by 'conda@1efc2f54142f' on 2023-08-01
          program call               : xtb struc.xyz --opt loose --input .xc1 --gfn2

   ID    Z sym.   atoms
    1    7 N      1, 17
    2    6 C      2-6, 8, 9, 11-16, 18-23, 25, 26, 28-33
    3    8 O      7, 10, 24, 27
    4    1 H      34-72
constraining bond 3 16 to    6.0000000 Å, actual value:    3.1300961 Å

          :  Hamiltonian                  GFN2-xTB          :
 * total energy  :   -97.9335045 Eh     change       -0.4035485E-08 Eh
 * total energy  :   -98.3460848 Eh     change       -0.4125803E+00 Eh
 * total energy  :   -98.6167730 Eh     change       -0.2706882E+00 Eh
 * total energy  :   -98.7780331 Eh     change       -0.1612601E+00 Eh
 * total energy  :   -98.8757737 Eh     change       -0.9774060E-01 Eh
 * total energy  :   -98.9431630 Eh     change       -0.6738932E-01 Eh
 * total energy  :   -98.9913340 Eh     change       -0.4817099E-01 Eh
 * total energy  :   -99.0285557 Eh     change       -0.3722169E-01 Eh
 * total energy  :   -99.0593089 Eh     change       -0.3075322E-01 Eh
 * total energy  :   -99.0857773 Eh     change       -0.2646838E-01 Eh
 * total energy  :   -99.2647370 Eh     change       -0.9440848E-04 Eh
 * total energy  :   -99.2648131 Eh     change       -0.7613368E-04 Eh
 * total energy  :   -99.2649083 Eh     change       -0.9512543E-04 Eh
 * total energy  :   -99.2650085 Eh     change       -0.1002669E-03 Eh
 * total energy  :   -99.2650991 Eh     change       -0.9060255E-04 Eh
 * total energy  :   -99.2651915 Eh     change       -0.9232263E-04 Eh
 * total energy  :   -99.2652838 Eh     change       -0.9238331E-04 Eh
 * total energy  :   -99.2653534 Eh     change       -0.6957191E-04 Eh
 * total energy  :   -99.2653831 Eh     change       -0.2971408E-04 Eh
   *** GEOMETRY OPTIMIZATION CONVERGED AFTER 56 ITERATIONS ***

 final structure:
================
72
 xtb: 6.6.1 (8d0f1dd)
N           -2.28885039042431        3.54206352096183        2.31864852677317
C           -2.54409998085277        2.36127996528554        1.89175742252655
C           -3.82304994492712        1.95982727806190        1.43555040565146
C           -4.03082488095601        0.60681781652002        1.01882476872101
C           -5.00191313857038        0.27594061673546        0.05026739750983
C           -5.21095144168237       -1.02579625106703       -0.35683296483371
O           -6.08466494869963       -1.41899317252248       -1.30407030389215
C           -6.86278318667407       -0.45065838814095       -1.97095637817804
C           -4.46219266935739       -2.08331288904205        0.24065116922702
O           -4.75385127871203       -3.31909953355568       -0.19379836269779
C           -4.12374682945761       -4.43022321182031        0.40287469666210
C           -3.50772146939381       -1.76254206931952        1.20163315909081
C           -3.28570178150562       -0.45276187989452        1.57114961675169
C           -3.11234220049369        2.00170032622272       -2.51950575190359
C           -2.58298702989872        0.80898405117185       -2.33323022033485
C            0.56870644605194        0.31067469088634       -2.30268805369039
N            1.08924969803202       -0.41142429115533       -1.38915135333547
C            2.39467318381065       -0.17024454111042       -0.76751092540243
C            3.52746601539381       -0.78496641531536       -1.60546340611638
C            4.86058669854497       -0.44585838879278       -1.00043667075034
C            5.45819267814402        0.77914734406276       -1.26180417777937
C            6.68166900772100        1.10842884327350       -0.70191862423998
C            7.33724877288441        0.21633827263866        0.13682554898354
O            8.52990901116029        0.41793912959860        0.72109001900319
C            9.23824327491160        1.60688283046754        0.45365762694449
C            6.72603469871606       -1.03870055233825        0.42110273874915
O            7.42860970188340       -1.84044410358649        1.24246589491626
C            6.92658668834784       -3.11805355465715        1.56007028582437
C            5.49871679090725       -1.34336639064341       -0.14926473873991
C            0.40672955778603       -1.60209699385517       -0.92666048287327
C           -4.93498620448260        2.96846538160123        1.39071219821261
C           -5.21565717518705        3.50644103905894        2.80030994070044
C           -4.59482643777871        4.12554798840023        0.44334905882097
H           -5.55786302747846        1.07000857469290       -0.41809458980656
H           -7.50396561394069        0.09866153420900       -1.27490863969070
H           -7.48389175762997       -1.00771328676487       -2.66983469085186
H           -6.23294319982736        0.25189180188128       -2.52599396365209
H           -4.32080230470085       -4.47051716726565        1.47886449321622
H           -4.55768075131207       -5.30596318915178       -0.07627543569540
H           -3.04268552244591       -4.42103624423838        0.22850420103534
H           -2.93888010320265       -2.54608391069858        1.67729928106354
H           -2.56743637226471       -0.25343026595841        2.35052764660119
H           -4.17826489773900        2.16303785240397       -2.57195118710531
H           -2.50049430371188        2.88055234031854       -2.64571988937749
H           -3.18620487769866       -0.07820381412181       -2.21482177370053
H           -1.50525557096319        0.65737416679850       -2.30941680978506
H           -1.75259276799145        1.60474523529562        1.81096067919429
H            1.13785797594467        1.19056430010979       -2.60326748207409
H            2.39809888995083       -0.59938048245646        0.23759151799745
H            2.55287639378208        0.90879205448921       -0.68829600814998
H            3.46994242149651       -0.38333779075933       -2.61977327108779
H            3.40361281569413       -1.86796180653701       -1.65808815450862
H            4.97526880647573        1.48464133277013       -1.92068518581857
H            7.12303052727484        2.06464721271006       -0.93035472710406
H            8.69604229954841        2.48600479510626        0.81466952532147
H            9.44433510916865        1.71703663603044       -0.61530599189274
H           10.17783031560418        1.51457016431023        0.99499138427858
H            7.67052916326337       -3.56907192560462        2.21375943875560
H            5.97085780208784       -3.05246861730240        2.09019130343461
H            6.80890357879251       -3.73574865864959        0.66417411892063
H            5.03344657561648       -2.29536987295898        0.05321523874344
H           -0.51872809420088       -1.72307582969307       -1.48567631445422
H            0.17728896626676       -1.51044884205912        0.13719838171872
H            1.03649447910654       -2.48022798559597       -1.07632564432897
H           -5.84825949707996        2.47667522003938        1.04017844211101
H           -4.33813991713173        4.02693359204593        3.17609260496065
H           -5.46616839885461        2.69236171562048        3.47929422412432
H           -6.05156285225641        4.20129269257810        2.76664632033465
H           -3.72195795018160        4.65603373210884        0.81661527804204
H           -4.37988723582489        3.75337370943406       -0.55706321065320
H           -5.43051786691465        4.81835242270369        0.39049712908256
H           -1.33718887521821        3.74869165818342        2.59419854319487

          :  Hamiltonian                  GFN2-xTB          :
         :: total energy             -99.265383156363 Eh    ::
         :: gradient norm              0.003972047807 Eh/a0 ::
         :: HOMO-LUMO gap              0.759733117298 eV    ::
         :: SCC energy              -100.680809359060 Eh    ::
         :: -> dispersion             -0.066849303252 Eh    ::
         :: repulsion energy           1.414099471709 Eh    ::

    * Orbital Energies and Occupations

         #    Occupation            Energy/Eh            Energy/eV
      -------------------------------------------------------------
         1        2.0000           -0.8183343             -22.2680
       ...           ...                  ...                  ...
        78        1.9965           -0.5277398             -14.3605
        79        1.9954           -0.5233905             -14.2422
        80        1.9932           -0.5170517             -14.0697
        81        1.9924           -0.5152478             -14.0206
        82        1.9912           -0.5130041             -13.9596
        83        1.9895           -0.5101816             -13.8827
        84        1.9808           -0.5004914             -13.6191
        85        1.9763           -0.4971669             -13.5286
        86        1.9688           -0.4927324             -13.4079
        87        1.8824           -0.4710123             -12.8169
        88        1.8012           -0.4620012             -12.5717
        89        1.7827           -0.4604303             -12.5289
        90        1.6853           -0.4536780             -12.3452 (HOMO)
        91        0.9575           -0.4257583             -11.5855 (LUMO)
        92        0.0180           -0.3526787              -9.5969
        93        0.0032           -0.3252404              -8.8502
        94        0.0019           -0.3172676              -8.6333
        95        0.0018           -0.3160233              -8.5994
        96        0.0016           -0.3141224              -8.5477
        97        0.0004           -0.2917620              -7.9392
        98        0.0001           -0.2648925              -7.2081
        99        0.0000           -0.1916159              -5.2141
       100        0.0000           -0.1859935              -5.0611
       101                         -0.1134343              -3.0867
       ...                                ...                  ...
       171                          0.5774971              15.7145
      -------------------------------------------------------------
                  HL-Gap            0.0279197 Eh            0.7597 eV

     #   Z          covCN         q      C6AA      α(0)
     1   7 N        1.779    -0.274    27.938     7.828
     2   6 C        2.824     0.082    26.168     8.382
     3   6 C        2.965     0.009    27.825     8.652
     4   6 C        2.969     0.010    27.792     8.647
     5   6 C        2.919    -0.071    29.770     8.947
     6   6 C        2.859     0.136    25.025     8.200
     7   8 O        1.706    -0.225    17.734     5.686
     8   6 C        3.644     0.025    20.490     6.506
     9   6 C        2.864     0.137    25.012     8.198
    10   8 O        1.706    -0.213    17.536     5.654
    11   6 C        3.645     0.024    20.514     6.510
    12   6 C        2.909    -0.068    29.681     8.933
    13   6 C        2.922    -0.041    29.022     8.834
    14   6 C        2.832    -0.073    29.812     8.947
    15   6 C        2.831    -0.084    30.084     8.988
    16   6 C        1.872    -0.131    34.827     9.532
    17   7 N        2.726     0.059    20.209     6.677
    18   6 C        3.751    -0.019    20.972     6.531
    19   6 C        3.808    -0.064    21.727     6.635
    20   6 C        2.969     0.005    27.901     8.664
    21   6 C        2.922    -0.045    29.114     8.848
    22   6 C        2.913    -0.065    29.628     8.926
    23   6 C        2.864     0.136    25.036     8.202
    24   8 O        1.706    -0.215    17.574     5.660
    25   6 C        3.645     0.023    20.518     6.510
    26   6 C        2.862     0.135    25.044     8.203
    27   8 O        1.706    -0.219    17.631     5.669
    28   6 C        3.644     0.025    20.486     6.506
    29   6 C        2.918    -0.077    29.918     8.969
    30   6 C        3.716    -0.069    21.957     6.694
    31   6 C        3.854    -0.005    20.623     6.459
    32   6 C        3.756    -0.113    22.723     6.797
    33   6 C        3.755    -0.113    22.708     6.795
    34   1 H        0.926     0.064     2.158     2.297
    35   1 H        0.924     0.056     2.244     2.343
    36   1 H        0.925     0.084     1.942     2.179
    37   1 H        0.924     0.055     2.258     2.350
    38   1 H        0.924     0.060     2.203     2.321
    39   1 H        0.925     0.085     1.924     2.169
    40   1 H        0.924     0.052     2.292     2.368
    41   1 H        0.926     0.054     2.266     2.354
    42   1 H        0.926     0.050     2.315     2.379
    43   1 H        0.926     0.041     2.432     2.439
    44   1 H        0.926     0.050     2.322     2.383
    45   1 H        0.926     0.038     2.474     2.459
    46   1 H        0.925     0.066     2.134     2.285
    47   1 H        0.924     0.016     2.796     2.615
    48   1 H        0.925     0.050     2.318     2.381
    49   1 H        0.924     0.057     2.233     2.337
    50   1 H        0.924     0.063     2.165     2.301
    51   1 H        0.924     0.059     2.206     2.323
    52   1 H        0.924     0.051     2.307     2.375
    53   1 H        0.926     0.052     2.299     2.371
    54   1 H        0.926     0.062     2.180     2.309
    55   1 H        0.924     0.058     2.224     2.332
    56   1 H        0.924     0.059     2.211     2.325
    57   1 H        0.925     0.085     1.930     2.173
    58   1 H        0.925     0.084     1.937     2.176
    59   1 H        0.924     0.052     2.292     2.367
    60   1 H        0.924     0.056     2.246     2.344
    61   1 H        0.926     0.052     2.299     2.371
    62   1 H        0.925     0.089     1.884     2.147
    63   1 H        0.924     0.065     2.142     2.289
    64   1 H        0.924     0.073     2.055     2.242
    65   1 H        0.924     0.047     2.363     2.404
    66   1 H        0.925     0.077     2.010     2.217
    67   1 H        0.925     0.042     2.420     2.433
    68   1 H        0.925     0.057     2.237     2.339
    69   1 H        0.925     0.070     2.088     2.259
    70   1 H        0.925     0.039     2.465     2.455
    71   1 H        0.925     0.055     2.256     2.349
    72   1 H        0.860     0.153     1.378     1.839

Wiberg/Mayer (AO) data.
largest (>0.10) Wiberg bond orders for each atom

     #   Z sym  total        # sym  WBO       # sym  WBO       # sym  WBO
 ---------------------------------------------------------------------------
     1   7 N    2.724 --     2 C    1.692    72 H    0.944
     2   6 C    3.918 --     1 N    1.692     3 C    1.244    47 H    0.923
     3   6 C    3.593 --     2 C    1.244     4 C    1.215    31 C    1.015
     4   6 C    3.958 --    13 C    1.295     5 C    1.287     3 C    1.215
     5   6 C    3.897 --     6 C    1.430     4 C    1.287    34 H    0.955
     6   6 C    3.900 --     5 C    1.430     9 C    1.195     7 O    1.106
     7   8 O    2.252 --     6 C    1.106     8 C    0.975
     8   6 C    3.927 --    36 H    0.976     7 O    0.975    35 H    0.972
                            37 H    0.972
     9   6 C    3.829 --    12 C    1.350     6 C    1.195    10 O    1.124
    10   8 O    2.252 --     9 C    1.124    11 C    0.974
    11   6 C    3.927 --    39 H    0.976    10 O    0.974    40 H    0.972
                            38 H    0.972
    12   6 C    3.958 --    13 C    1.467     9 C    1.350    41 H    0.962
    13   6 C    3.865 --    12 C    1.467     4 C    1.295    42 H    0.963
    14   6 C    3.964 --    15 C    2.017    44 H    0.973    43 H    0.969
    15   6 C    3.935 --    14 C    2.017    45 H    0.971    46 H    0.925
    16   6 C    2.858 --    17 N    1.723    48 H    0.944
    17   7 N    3.687 --    16 C    1.723    30 C    0.992    18 C    0.949
    18   6 C    3.938 --    19 C    0.975    49 H    0.969    50 H    0.969
                            17 N    0.949
    19   6 C    3.988 --    20 C    1.009    18 C    0.975    52 H    0.972
                            51 H    0.968
    20   6 C    3.930 --    21 C    1.395    29 C    1.387    19 C    1.009
    21   6 C    3.935 --    22 C    1.425    20 C    1.395    53 H    0.967
    22   6 C    3.951 --    21 C    1.425    23 C    1.374    54 H    0.962
    23   6 C    3.878 --    22 C    1.374    26 C    1.211    24 O    1.118
    24   8 O    2.251 --    23 C    1.118    25 C    0.974
    25   6 C    3.924 --    57 H    0.976    24 O    0.974    56 H    0.971
                            55 H    0.971
    26   6 C    3.883 --    29 C    1.387    23 C    1.211    27 O    1.112
    27   8 O    2.251 --    26 C    1.112    28 C    0.976
    28   6 C    3.928 --    27 O    0.976    58 H    0.976    59 H    0.972
                            60 H    0.972
    29   6 C    3.952 --    26 C    1.387    20 C    1.387    61 H    0.962
    30   6 C    3.956 --    17 N    0.992    62 H    0.977    63 H    0.971
                            64 H    0.969
    31   6 C    3.964 --     3 C    1.015    33 C    0.979    32 C    0.974
                            65 H    0.953
    32   6 C    3.941 --    67 H    0.984    68 H    0.977    31 C    0.974
                            66 H    0.966
    33   6 C    3.950 --    70 H    0.982    71 H    0.979    31 C    0.979
                            69 H    0.972
    34   1 H    0.994 --     5 C    0.955
    35   1 H    0.991 --     8 C    0.972
    36   1 H    0.992 --     8 C    0.976
    37   1 H    0.991 --     8 C    0.972
    38   1 H    0.990 --    11 C    0.972
    39   1 H    0.992 --    11 C    0.976
    40   1 H    0.991 --    11 C    0.972
    41   1 H    0.995 --    12 C    0.962
    42   1 H    0.996 --    13 C    0.963
    43   1 H    0.991 --    14 C    0.969
    44   1 H    0.993 --    14 C    0.973
    45   1 H    0.994 --    15 C    0.971
    46   1 H    0.990 --    15 C    0.925
    47   1 H    0.960 --     2 C    0.923
    48   1 H    0.970 --    16 C    0.944
    49   1 H    0.993 --    18 C    0.969
    50   1 H    0.996 --    18 C    0.969
    51   1 H    0.994 --    19 C    0.968
    52   1 H    0.996 --    19 C    0.972
    53   1 H    0.996 --    21 C    0.967
    54   1 H    0.994 --    22 C    0.962
    55   1 H    0.989 --    25 C    0.971
    56   1 H    0.989 --    25 C    0.971
    57   1 H    0.992 --    25 C    0.976
    58   1 H    0.992 --    28 C    0.976
    59   1 H    0.991 --    28 C    0.972
    60   1 H    0.991 --    28 C    0.972
    61   1 H    0.996 --    29 C    0.962
    62   1 H    0.992 --    30 C    0.977
    63   1 H    0.995 --    30 C    0.971
    64   1 H    0.994 --    30 C    0.969
    65   1 H    0.986 --    31 C    0.953
    66   1 H    0.986 --    32 C    0.966
    67   1 H    0.995 --    32 C    0.984
    68   1 H    0.989 --    32 C    0.977
    69   1 H    0.989 --    33 C    0.972
    70   1 H    0.995 --    33 C    0.982
    71   1 H    0.991 --    33 C    0.979
    72   1 H    0.964 --     1 N    0.944
 ---------------------------------------------------------------------------

molecular dipole:
                 x           y           z       tot (Debye)
 q only:        0.719      -0.715       0.014
   full:        1.288      -0.863       0.171       3.965

           -------------------------------------------------
          | TOTAL ENERGY              -99.265383156363 Eh   |
          | GRADIENT NORM               0.003972047807 Eh/α |
          | HOMO-LUMO GAP               0.759733117298 eV   |
           -------------------------------------------------

 * finished run on 2024/04/06 at 11:11:56.280
