   * xtb version 6.6.1 (8d0f1dd) compiled by 'conda@1efc2f54142f' on 2023-08-01
          program call               : xtb struc.xyz --opt loose --input .xc1 --gfn2

   ID    Z sym.   atoms
    1    7 N      1, 17
    2    6 C      2-6, 8, 9, 11-16, 18-23, 25, 26, 28-33
    3    8 O      7, 10, 24, 27
    4    1 H      34-72
constraining bond 23 54 to    2.7133300 Å, actual value:    2.1420901 Å

          :  Hamiltonian                  GFN2-xTB          :
 * total energy  :   -99.4623955 Eh     change       -0.4035485E-08 Eh
 * total energy  :   -99.5325257 Eh     change       -0.7013024E-01 Eh
 * total energy  :   -99.6158870 Eh     change       -0.8336129E-01 Eh
 * total energy  :   -99.6738853 Eh     change       -0.5799828E-01 Eh
 * total energy  :   -99.6904005 Eh     change       -0.1651515E-01 Eh
 * total energy  :   -99.7137513 Eh     change       -0.2335085E-01 Eh
 * total energy  :   -99.7268080 Eh     change       -0.1305673E-01 Eh
 * total energy  :   -99.7416694 Eh     change       -0.1486139E-01 Eh
 * total energy  :   -99.7510708 Eh     change       -0.9401341E-02 Eh
 * total energy  :   -99.7597620 Eh     change       -0.8691220E-02 Eh
 * total energy  :   -99.8507950 Eh     change       -0.2322089E-03 Eh
 * total energy  :   -99.8507872 Eh     change        0.7759981E-05 Eh
 * total energy  :   -99.8510383 Eh     change       -0.2510761E-03 Eh
 * total energy  :   -99.8511231 Eh     change       -0.8481216E-04 Eh
 * total energy  :   -99.8512508 Eh     change       -0.1276409E-03 Eh
 * total energy  :   -99.8513912 Eh     change       -0.1404146E-03 Eh
 * total energy  :   -99.8514372 Eh     change       -0.4603059E-04 Eh
 * total energy  :   -99.8515014 Eh     change       -0.6420582E-04 Eh
 * total energy  :   -99.8515426 Eh     change       -0.4115242E-04 Eh
   *** GEOMETRY OPTIMIZATION CONVERGED AFTER 44 ITERATIONS ***

 final structure:
================
72
 xtb: 6.6.1 (8d0f1dd)
N           -2.04517078910763        2.94492889225452        2.31452901313139
C           -1.92673792066494        2.21957099020199        1.30506361790993
C           -3.01540881974928        1.97107410753072        0.29789410328987
C           -3.47606963513948        0.52422076186235        0.38791248517097
C           -4.32084530669061        0.00461960885067       -0.59516757714396
C           -4.77902999881252       -1.30093114004720       -0.54001369556667
O           -5.60005195003336       -1.87726614057305       -1.44224818650603
C           -6.14174969580048       -1.09476859043114       -2.48052632055227
C           -4.37608459322993       -2.13918257305834        0.53468571844965
O           -4.86120142702484       -3.39652027722639        0.50216412999751
C           -4.57842329341701       -4.26822933063023        1.57173274753588
C           -3.54247413013414       -1.61564638957333        1.50995000798878
C           -3.10059451116772       -0.30024872656519        1.43719470812317
C           -2.37503814939259        2.23950805025057       -1.08881626721969
C           -1.40659044715649        1.14281914104992       -1.56554458685819
C           -0.09540851494731        1.15030236967082       -0.87801565454101
N            0.54973625233565        0.07664601232816       -0.43009692325809
C            1.96775868187328        0.13205970430190       -0.17135078640895
C            2.76745044438081       -0.43829050791541       -1.36685831303861
C            4.23433749456252       -0.24882198268842       -1.16252908008688
C            4.85068582635828        0.97170433501260       -1.56346113082717
C            6.12859383058470        1.19672295234536       -1.25943679523825
C            7.04704836159034        0.29181096169352       -0.53531618169710
O            7.25859345379939        0.80015634292220        0.80522499575176
C            8.24382366376156        1.80139587326556        0.86436166621993
C            6.35818472271709       -1.06296023955298       -0.32768233204771
O            7.22975044252672       -1.97708782175529        0.09146058440561
C            6.79689535512242       -3.29435412659379        0.36467943623741
C            5.01937027662537       -1.24014475235639       -0.56541631044448
C           -0.07503022897879       -1.22292287600813       -0.36665315132741
C           -4.25919009982541        2.88892276441624        0.49209845138436
C           -4.97270199645734        2.59577182880731        1.80955189611575
C           -3.92744639030679        4.37592229183524        0.40547847333369
H           -4.63526257388049        0.63610261068101       -1.40933953340874
H           -6.70972769469678       -0.24597908866497       -2.08804777188299
H           -6.81318887292165       -1.75640785843996       -3.02421886004271
H           -5.36385198147807       -0.73323479422460       -3.16109561715862
H           -4.94479688551325       -3.86865412992177        2.52188694272455
H           -5.10500320632904       -5.19238207328534        1.34186013309009
H           -3.50583787630770       -4.47293179193621        1.65041956475380
H           -3.23694934832310       -2.22180535619224        2.34722884443368
H           -2.47722420239174        0.08073112261890        2.23128835136467
H           -3.16898120577180        2.33464888145074       -1.82862146736560
H           -1.84402146993795        3.19146807310726       -1.05238051975649
H           -1.89108225861113        0.17027600908470       -1.50025775533054
H           -1.20689309662538        1.34416350207663       -2.62671829420704
H           -0.98358111671232        1.71454951126884        1.01703101633692
H            0.46314610951856        2.07503788506216       -0.88596830334261
H            2.19917058399017       -0.44151107459529        0.72958156488661
H            2.26835837798802        1.16845944954744       -0.00595021053811
H            2.44815474407119        0.08604745395451       -2.27051252909737
H            2.53869650371404       -1.49937208866353       -1.47956408503762
H            4.26053035560235        1.70386173317908       -2.09446271658117
H            7.79123562588180        0.18470479901208       -0.92231066601247
H            7.92345176279849        2.69995960162539        0.32461549565944
H            9.19682772293317        1.45504948235433        0.44864284586649
H            8.37227478296588        2.03450267444182        1.91969572844693
H            7.69105459961629       -3.84576742338217        0.64769768720172
H            6.08240789920928       -3.30852261019163        1.19180623759424
H            6.34734124896412       -3.75289807795325       -0.52043240238862
H            4.55433313841406       -2.18486897974000       -0.32319048827104
H           -0.15958280756583       -1.67692094749368       -1.35726634322409
H           -1.07217064603549       -1.14274140273569        0.06995174623589
H            0.52570641841847       -1.87521181974468        0.26379274152560
H           -4.94985644259941        2.64830784809367       -0.32434444584205
H           -4.32950921247516        2.85038584034973        2.64562233217932
H           -5.24907478491304        1.54675143704465        1.88268047806001
H           -5.87828552713890        3.19326198231179        1.87342207093747
H           -3.21534452689605        4.64970820733513        1.17784539102866
H           -3.52503264679031        4.64707082696079       -0.56699770210319
H           -4.83527524602194        4.95265663149776        0.56181492565651
H           -1.23262155535843        3.06486196298207        2.91121171393232

          :  Hamiltonian                  GFN2-xTB          :
         :: total energy             -99.851542578524 Eh    ::
         :: gradient norm              0.001927804102 Eh/a0 ::
         :: HOMO-LUMO gap              0.410272986618 eV    ::
         :: SCC energy              -100.664504323732 Eh    ::
         :: -> dispersion             -0.074751573508 Eh    ::
         :: repulsion energy           1.434527141165 Eh    ::

    * Orbital Energies and Occupations

         #    Occupation            Energy/Eh            Energy/eV
      -------------------------------------------------------------
         1        2.0000           -0.8252284             -22.4556
       ...           ...                  ...                  ...
        78        1.9986           -0.5319248             -14.4744
        79        1.9982           -0.5283318             -14.3766
        80        1.9981           -0.5276525             -14.3582
        81        1.9974           -0.5223470             -14.2138
        82        1.9957           -0.5144395             -13.9986
        83        1.9949           -0.5117152             -13.9245
        84        1.9940           -0.5091740             -13.8553
        85        1.9821           -0.4917886             -13.3823
        86        1.9807           -0.4905265             -13.3479
        87        1.9715           -0.4843257             -13.1792
        88        1.9345           -0.4708373             -12.8121
        89        1.8708           -0.4595535             -12.5051
        90        1.1853           -0.4231662             -11.5149 (HOMO)
        91        0.7191           -0.4080890             -11.1047 (LUMO)
        92        0.3655           -0.3935151             -10.7081
        93        0.0136           -0.3382665              -9.2047
        94        0.0035           -0.3166234              -8.6158
        95        0.0029           -0.3135985              -8.5334
        96        0.0015           -0.3035062              -8.2588
        97        0.0000           -0.2432051              -6.6179
        98        0.0000           -0.1909351              -5.1956
        99                         -0.1344120              -3.6575
       100                         -0.0767439              -2.0883
       101                         -0.0680300              -1.8512
       ...                                ...                  ...
       171                          0.8137245              22.1426
      -------------------------------------------------------------
                  HL-Gap            0.0150773 Eh            0.4103 eV

     #   Z          covCN         q      C6AA      α(0)
     1   7 N        1.774    -0.267    27.749     7.801
     2   6 C        2.827     0.102    25.741     8.314
     3   6 C        3.908     0.007    20.411     6.422
     4   6 C        2.974     0.002    27.968     8.675
     5   6 C        2.920    -0.080    30.004     8.983
     6   6 C        2.862     0.129    25.165     8.223
     7   8 O        1.706    -0.230    17.819     5.699
     8   6 C        3.644     0.028    20.448     6.500
     9   6 C        2.864     0.128    25.184     8.226
    10   8 O        1.706    -0.229    17.793     5.695
    11   6 C        3.645     0.027    20.457     6.500
    12   6 C        2.914    -0.075    29.860     8.961
    13   6 C        2.921    -0.053    29.325     8.880
    14   6 C        3.813    -0.065    21.734     6.636
    15   6 C        3.802    -0.068    21.810     6.649
    16   6 C        2.843     0.005    27.912     8.658
    17   7 N        2.729     0.007    21.130     6.827
    18   6 C        3.755    -0.015    20.905     6.519
    19   6 C        3.807    -0.068    21.788     6.645
    20   6 C        2.973     0.013    27.724     8.637
    21   6 C        2.902    -0.038    28.939     8.821
    22   6 C        1.987    -0.089    33.484     9.345
    23   6 C        3.755     0.106    18.895     6.198
    24   8 O        1.697    -0.304    19.061     5.895
    25   6 C        3.644     0.036    20.303     6.477
    26   6 C        2.852     0.146    24.830     8.167
    27   8 O        1.705    -0.202    17.371     5.627
    28   6 C        3.645     0.020    20.575     6.519
    29   6 C        2.902    -0.081    30.024     8.984
    30   6 C        3.700    -0.070    22.005     6.709
    31   6 C        3.853    -0.007    20.670     6.466
    32   6 C        3.756    -0.119    22.831     6.813
    33   6 C        3.755    -0.118    22.823     6.812
    34   1 H        0.926     0.052     2.294     2.368
    35   1 H        0.924     0.054     2.271     2.356
    36   1 H        0.925     0.081     1.967     2.193
    37   1 H        0.924     0.047     2.356     2.400
    38   1 H        0.924     0.055     2.254     2.348
    39   1 H        0.925     0.081     1.968     2.194
    40   1 H        0.924     0.048     2.347     2.396
    41   1 H        0.926     0.052     2.290     2.366
    42   1 H        0.926     0.040     2.448     2.447
    43   1 H        0.925     0.060     2.204     2.322
    44   1 H        0.924     0.054     2.272     2.357
    45   1 H        0.925     0.065     2.140     2.288
    46   1 H        0.923     0.079     1.989     2.206
    47   1 H        0.922     0.007     2.938     2.681
    48   1 H        0.926     0.068     2.106     2.269
    49   1 H        0.924     0.068     2.105     2.269
    50   1 H        0.924     0.071     2.070     2.250
    51   1 H        0.924     0.059     2.216     2.328
    52   1 H        0.924     0.058     2.226     2.333
    53   1 H        0.926     0.058     2.228     2.334
    54   1 H        0.930     0.103     1.760     2.075
    55   1 H        0.924     0.049     2.333     2.389
    56   1 H        0.924     0.044     2.400     2.423
    57   1 H        0.925     0.073     2.052     2.240
    58   1 H        0.925     0.089     1.885     2.147
    59   1 H        0.924     0.062     2.174     2.306
    60   1 H        0.924     0.060     2.199     2.319
    61   1 H        0.926     0.052     2.290     2.367
    62   1 H        0.924     0.073     2.048     2.238
    63   1 H        0.924     0.081     1.972     2.196
    64   1 H        0.925     0.078     2.005     2.214
    65   1 H        0.924     0.037     2.487     2.466
    66   1 H        0.925     0.070     2.087     2.259
    67   1 H        0.925     0.036     2.509     2.477
    68   1 H        0.925     0.051     2.306     2.375
    69   1 H        0.925     0.060     2.197     2.318
    70   1 H        0.925     0.035     2.520     2.482
    71   1 H        0.925     0.055     2.262     2.352
    72   1 H        0.860     0.158     1.347     1.818

Wiberg/Mayer (AO) data.
largest (>0.10) Wiberg bond orders for each atom

     #   Z sym  total        # sym  WBO       # sym  WBO       # sym  WBO
 ---------------------------------------------------------------------------
     1   7 N    3.039 --     2 C    1.958    72 H    0.941
     2   6 C    3.929 --     1 N    1.958     3 C    0.994    47 H    0.901
     3   6 C    3.975 --     2 C    0.994     4 C    0.970    14 C    0.957
                            31 C    0.942
     4   6 C    3.949 --    13 C    1.413     5 C    1.368     3 C    0.970
     5   6 C    3.962 --     6 C    1.401     4 C    1.368    34 H    0.958
     6   6 C    3.905 --     5 C    1.401     9 C    1.222     7 O    1.099
     7   8 O    2.253 --     6 C    1.099     8 C    0.978
     8   6 C    3.932 --     7 O    0.978    36 H    0.977    35 H    0.974
                            37 H    0.973
     9   6 C    3.901 --    12 C    1.392     6 C    1.222    10 O    1.101
    10   8 O    2.252 --     9 C    1.101    11 C    0.978
    11   6 C    3.931 --    10 O    0.978    39 H    0.977    40 H    0.974
                            38 H    0.973
    12   6 C    3.962 --    13 C    1.403     9 C    1.392    41 H    0.964
    13   6 C    3.954 --     4 C    1.413    12 C    1.403    42 H    0.963
    14   6 C    3.973 --    15 C    0.982    44 H    0.972    43 H    0.969
                             3 C    0.957
    15   6 C    3.985 --    16 C    1.059    14 C    0.982    45 H    0.961
                            46 H    0.926
    16   6 C    3.578 --    17 N    1.389    15 C    1.059    48 H    0.958
    17   7 N    3.470 --    16 C    1.389    30 C    0.999    18 C    0.991
    18   6 C    3.941 --    17 N    0.991    50 H    0.967    49 H    0.965
                            19 C    0.954
    19   6 C    3.969 --    20 C    1.021    51 H    0.968    52 H    0.968
                            18 C    0.954
    20   6 C    3.636 --    29 C    1.345    21 C    1.195    19 C    1.021
    21   6 C    3.945 --    22 C    1.699    20 C    1.195    53 H    0.950
    22   6 C    2.867 --    21 C    1.699    23 C    1.022
    23   6 C    3.915 --    22 C    1.022    54 H    0.948    26 C    0.930
                            24 O    0.927
    24   8 O    2.018 --    25 C    0.993    23 C    0.927
    25   6 C    3.930 --    24 O    0.993    56 H    0.974    57 H    0.972
                            55 H    0.971
    26   6 C    3.669 --    29 C    1.468    27 O    1.163    23 C    0.930
    27   8 O    2.275 --    26 C    1.163    28 C    0.962
    28   6 C    3.918 --    58 H    0.976    60 H    0.973    59 H    0.972
                            27 O    0.962
    29   6 C    3.957 --    26 C    1.468    20 C    1.345    61 H    0.952
    30   6 C    3.958 --    17 N    0.999    64 H    0.977    62 H    0.965
                            63 H    0.963
    31   6 C    3.972 --    33 C    1.009    32 C    1.008    65 H    0.960
                             3 C    0.942
    32   6 C    3.978 --    31 C    1.008    67 H    0.982    68 H    0.981
                            66 H    0.974
    33   6 C    3.983 --    31 C    1.009    70 H    0.983    71 H    0.980
                            69 H    0.977
    34   1 H    0.996 --     5 C    0.958
    35   1 H    0.993 --     8 C    0.974
    36   1 H    0.993 --     8 C    0.977
    37   1 H    0.994 --     8 C    0.973
    38   1 H    0.993 --    11 C    0.973
    39   1 H    0.993 --    11 C    0.977
    40   1 H    0.993 --    11 C    0.974
    41   1 H    0.995 --    12 C    0.964
    42   1 H    0.998 --    13 C    0.963
    43   1 H    0.995 --    14 C    0.969
    44   1 H    0.996 --    14 C    0.972
    45   1 H    0.995 --    15 C    0.961
    46   1 H    0.969 --    15 C    0.926
    47   1 H    0.986 --     2 C    0.901
    48   1 H    0.995 --    16 C    0.958
    49   1 H    0.992 --    18 C    0.965
    50   1 H    0.994 --    18 C    0.967
    51   1 H    0.991 --    19 C    0.968
    52   1 H    0.991 --    19 C    0.968
    53   1 H    0.979 --    21 C    0.950
    54   1 H    0.975 --    23 C    0.948
    55   1 H    0.990 --    25 C    0.971
    56   1 H    0.992 --    25 C    0.974
    57   1 H    0.991 --    25 C    0.972
    58   1 H    0.991 --    28 C    0.976
    59   1 H    0.991 --    28 C    0.972
    60   1 H    0.991 --    28 C    0.973
    61   1 H    0.988 --    29 C    0.952
    62   1 H    0.984 --    30 C    0.965
    63   1 H    0.989 --    30 C    0.963
    64   1 H    0.993 --    30 C    0.977
    65   1 H    0.992 --    31 C    0.960
    66   1 H    0.991 --    32 C    0.974
    67   1 H    0.997 --    32 C    0.982
    68   1 H    0.994 --    32 C    0.981
    69   1 H    0.993 --    33 C    0.977
    70   1 H    0.997 --    33 C    0.983
    71   1 H    0.994 --    33 C    0.980
    72   1 H    0.969 --     1 N    0.941
 ---------------------------------------------------------------------------

molecular dipole:
                 x           y           z       tot (Debye)
 q only:        0.800      -0.746      -0.797
   full:        1.163      -1.045      -0.934       4.629

           -------------------------------------------------
          | TOTAL ENERGY              -99.851542578524 Eh   |
          | GRADIENT NORM               0.001927804102 Eh/α |
          | HOMO-LUMO GAP               0.410272986618 eV   |
           -------------------------------------------------

 * finished run on 2024/04/06 at 11:17:07.059
