   * xtb version 6.6.1 (8d0f1dd) compiled by 'conda@1efc2f54142f' on 2023-08-01
          program call               : xtb xtbopt.xyz --opt crude --input .xc2 --gfn2

   ID    Z sym.   atoms
    1    7 N      1, 17
    2    6 C      2-6, 8, 9, 11-16, 18-23, 25, 26, 28-33
    3    8 O      7, 10, 24, 27
    4    1 H      34-72
########################################################################
[WARNING] Please study the warnings concerning your input carefully
-1- readin_getIntValue: could not parse ''
########################################################################

          :  Hamiltonian                  GFN2-xTB          :
 * total energy  :   -99.2286795 Eh     change       -0.1037392E-11 Eh
 * total energy  :   -99.2897873 Eh     change       -0.6110781E-01 Eh
 * total energy  :   -99.2913990 Eh     change       -0.1611629E-02 Eh
 * total energy  :   -99.2922291 Eh     change       -0.8301008E-03 Eh
 * total energy  :   -99.2923008 Eh     change       -0.7178163E-04 Eh
   *** GEOMETRY OPTIMIZATION CONVERGED AFTER 5 ITERATIONS ***

 final structure:
================
72
 xtb: 6.6.1 (8d0f1dd)
N           -2.03980017185003        2.94430638738406        2.31138556082415
C           -1.92369258581720        2.21986291979435        1.30136608767323
C           -3.01513264659618        1.97182375685949        0.29684883592736
C           -3.47567338882613        0.52505430888817        0.38790271115997
C           -4.32139574767510        0.00493201178037       -0.59410696494519
C           -4.77969427084196       -1.30052726288661       -0.53776070640932
O           -5.60101492413248       -1.87750657840159       -1.43927316712278
C           -6.13980412248035       -1.09677970935416       -2.48006204261011
C           -4.37645625134958       -2.13800798938750        0.53741740143115
O           -4.86222171165928       -3.39512231431345        0.50623296188298
C           -4.57859260158898       -4.26632567518900        1.57600471180282
C           -3.54180225184777       -1.61404218142262        1.51151951689055
C           -3.09934010285635       -0.29887710564199        1.43730024667962
C           -2.37795028213383        2.24056844157380       -1.09129867484849
C           -1.40998837358649        1.14426600352829       -1.56962816748379
C           -0.09853606801656        1.14989280318797       -0.88229937884046
N            0.54600187478915        0.07440164298652       -0.43801487203794
C            1.96380406218129        0.12759890351423       -0.17773332919677
C            2.76480275506951       -0.44249753497325       -1.37303979673447
C            4.23149732367547       -0.25260979605293       -1.16531091303065
C            4.84539606434384        0.97382651386523       -1.55379406638876
C            6.11684122618684        1.20892428865618       -1.22561262551043
C            7.00201816976314        0.30309235764545       -0.48143220171669
O            7.26788504661635        0.78948044463964        0.83012395823077
C            8.23323378814844        1.81012085237991        0.87237582766268
C            6.35051968317096       -1.06080638450179       -0.31056360121520
O            7.22232635901615       -1.97336967898243        0.11149597821992
C            6.79384963261556       -3.29608291522946        0.36417899397162
C            5.01600982787690       -1.24697951941575       -0.57205059447078
C           -0.08251183346097       -1.22304296106491       -0.37154846531161
C           -4.25832754481120        2.88970750924088        0.49466977533989
C           -4.96911926164125        2.59493247255226        1.81326823990406
C           -3.92649402631325        4.37675429412961        0.40914925266991
H           -4.63650701014813        0.63608329849329       -1.40825417342743
H           -6.70839598079260       -0.24697457808192       -2.09071130566894
H           -6.81020555249163       -1.75906290266450       -3.02422773785881
H           -5.36013192773842       -0.73674671873252       -3.15938808519902
H           -4.94419967694778       -3.86628211864454        2.52624487329840
H           -5.10536519556027       -5.19058517170793        1.34701749757666
H           -3.50595151269652       -4.47098092755988        1.65388705557783
H           -3.23570025673044       -2.21962449306539        2.34899442753558
H           -2.47492582628232        0.08235786843954        2.23046437743523
H           -3.17347000679041        2.33505277103118       -1.82949414612471
H           -1.84745426204261        3.19284269519890       -1.05613380827053
H           -1.89507627303022        0.17194300493299       -1.50520896413114
H           -1.21025604611492        1.34667963248587       -2.63054921842871
H           -0.98122864921298        1.71512600819265        1.00909537067690
H            0.46192629641375        2.07346127516206       -0.89120805403399
H            2.19307379055496       -0.44725137973687        0.72294003059929
H            2.26534501205452        1.16346522553993       -0.01069491674194
H            2.44629599687887        0.08254419437076       -2.27661827128827
H            2.53555621436331       -1.50332121365262       -1.48641528566541
H            4.25821428474959        1.70327736065016       -2.09234930652157
H            7.96763345050600        0.16487088643473       -1.00333106856975
H            7.90464642242263        2.68867634441026        0.30558002902182
H            9.19240869003944        1.46413685734088        0.46944896864159
H            8.35073598141488        2.07211082408190        1.92192093765311
H            7.68754550228971       -3.84481601411146        0.65440502403416
H            6.06789493390153       -3.32380914089657        1.18120939768883
H            6.35994621910363       -3.74895358811080       -0.53164887645649
H            4.55447563743038       -2.19868398817830       -0.35075041541517
H           -0.17645592613562       -1.67541043184614       -1.36188734289243
H           -1.07623085563189       -1.13991634939709        0.07263311462776
H            0.52050964557475       -1.87821733773204        0.25339600546972
H           -4.95077286194412        2.65017850013801       -0.32063368536712
H           -4.32269741737232        2.84469045532942        2.64836155606900
H           -5.24901244824568        1.54666933063252        1.88386946628915
H           -5.87238911649685        3.19546200649517        1.88167555178579
H           -3.21432113902111        4.64989095932304        1.18167746355850
H           -3.52406012948359        4.64854256202179       -0.56311555606820
H           -4.83425693986154        4.95345281962930        0.56592464635270
H           -1.22726511590215        3.06629269049521        2.90742877444830

          :  Hamiltonian                  GFN2-xTB          :
         :: total energy             -99.292300855424 Eh    ::
         :: gradient norm              0.001975543399 Eh/a0 ::
         :: HOMO-LUMO gap              0.432939299767 eV    ::
         :: SCC energy              -100.643634406485 Eh    ::
         :: -> dispersion             -0.074771553264 Eh    ::
         :: repulsion energy           1.350024376440 Eh    ::

    * Orbital Energies and Occupations

         #    Occupation            Energy/Eh            Energy/eV
      -------------------------------------------------------------
         1        2.0000           -0.8245749             -22.4378
       ...           ...                  ...                  ...
        78        1.9986           -0.5319305             -14.4746
        79        1.9982           -0.5284486             -14.3798
        80        1.9981           -0.5277297             -14.3603
        81        1.9974           -0.5224283             -14.2160
        82        1.9957           -0.5145331             -14.0012
        83        1.9949           -0.5118224             -13.9274
        84        1.9940           -0.5092671             -13.8579
        85        1.9809           -0.4907957             -13.3552
        86        1.9807           -0.4905946             -13.3498
        87        1.9725           -0.4849289             -13.1956
        88        1.9347           -0.4709315             -12.8147
        89        1.8710           -0.4596194             -12.5069
        90        1.1979           -0.4236215             -11.5273 (HOMO)
        91        0.7070           -0.4077113             -11.0944 (LUMO)
        92        0.3647           -0.3935109             -10.7080
        93        0.0136           -0.3383621              -9.2073
        94        0.0035           -0.3166892              -8.6176
        95        0.0029           -0.3136743              -8.5355
        96        0.0015           -0.3037514              -8.2655
        97        0.0000           -0.2434357              -6.6242
        98        0.0000           -0.1910012              -5.1974
        99                         -0.1345410              -3.6610
       100                         -0.0743451              -2.0230
       101                         -0.0679821              -1.8499
       ...                                ...                  ...
       171                          0.5721399              15.5687
      -------------------------------------------------------------
                  HL-Gap            0.0159102 Eh            0.4329 eV

     #   Z          covCN         q      C6AA      α(0)
     1   7 N        1.774    -0.267    27.744     7.800
     2   6 C        2.827     0.102    25.740     8.313
     3   6 C        3.908     0.007    20.411     6.422
     4   6 C        2.974     0.002    27.968     8.675
     5   6 C        2.920    -0.080    30.005     8.983
     6   6 C        2.862     0.129    25.165     8.223
     7   8 O        1.706    -0.230    17.817     5.699
     8   6 C        3.644     0.028    20.447     6.499
     9   6 C        2.864     0.128    25.184     8.226
    10   8 O        1.706    -0.229    17.793     5.695
    11   6 C        3.645     0.027    20.457     6.500
    12   6 C        2.914    -0.075    29.860     8.961
    13   6 C        2.921    -0.053    29.325     8.880
    14   6 C        3.813    -0.065    21.733     6.636
    15   6 C        3.802    -0.068    21.810     6.649
    16   6 C        2.843     0.005    27.912     8.658
    17   7 N        2.729     0.007    21.133     6.828
    18   6 C        3.755    -0.015    20.901     6.519
    19   6 C        3.806    -0.067    21.785     6.644
    20   6 C        2.973     0.013    27.730     8.638
    21   6 C        2.903    -0.038    28.946     8.822
    22   6 C        1.987    -0.088    33.459     9.341
    23   6 C        3.757     0.123    18.630     6.154
    24   8 O        1.701    -0.291    18.836     5.860
    25   6 C        3.647     0.035    20.315     6.477
    26   6 C        2.853     0.148    24.781     8.159
    27   8 O        1.705    -0.202    17.362     5.626
    28   6 C        3.645     0.020    20.572     6.519
    29   6 C        2.903    -0.081    30.030     8.985
    30   6 C        3.700    -0.070    22.004     6.708
    31   6 C        3.853    -0.007    20.670     6.466
    32   6 C        3.756    -0.119    22.831     6.813
    33   6 C        3.755    -0.118    22.823     6.812
    34   1 H        0.926     0.052     2.294     2.368
    35   1 H        0.924     0.054     2.271     2.357
    36   1 H        0.925     0.081     1.967     2.193
    37   1 H        0.924     0.047     2.357     2.401
    38   1 H        0.924     0.055     2.254     2.348
    39   1 H        0.925     0.081     1.968     2.194
    40   1 H        0.924     0.048     2.347     2.396
    41   1 H        0.926     0.052     2.290     2.366
    42   1 H        0.926     0.040     2.449     2.447
    43   1 H        0.925     0.060     2.204     2.322
    44   1 H        0.924     0.054     2.272     2.357
    45   1 H        0.925     0.065     2.140     2.288
    46   1 H        0.923     0.079     1.990     2.206
    47   1 H        0.922     0.007     2.937     2.680
    48   1 H        0.926     0.068     2.107     2.270
    49   1 H        0.924     0.068     2.108     2.271
    50   1 H        0.924     0.071     2.073     2.252
    51   1 H        0.924     0.059     2.216     2.328
    52   1 H        0.924     0.058     2.227     2.334
    53   1 H        0.926     0.057     2.233     2.337
    54   1 H        0.922     0.068     2.106     2.269
    55   1 H        0.924     0.050     2.319     2.382
    56   1 H        0.924     0.045     2.384     2.414
    57   1 H        0.925     0.074     2.045     2.236
    58   1 H        0.925     0.090     1.883     2.146
    59   1 H        0.924     0.062     2.177     2.307
    60   1 H        0.924     0.060     2.196     2.317
    61   1 H        0.926     0.052     2.290     2.366
    62   1 H        0.924     0.073     2.048     2.238
    63   1 H        0.924     0.081     1.973     2.196
    64   1 H        0.925     0.077     2.006     2.215
    65   1 H        0.924     0.037     2.486     2.466
    66   1 H        0.925     0.070     2.089     2.260
    67   1 H        0.925     0.036     2.508     2.477
    68   1 H        0.925     0.051     2.305     2.374
    69   1 H        0.925     0.060     2.196     2.318
    70   1 H        0.925     0.035     2.520     2.482
    71   1 H        0.925     0.055     2.262     2.352
    72   1 H        0.860     0.158     1.346     1.818

Wiberg/Mayer (AO) data.
largest (>0.10) Wiberg bond orders for each atom

     #   Z sym  total        # sym  WBO       # sym  WBO       # sym  WBO
 ---------------------------------------------------------------------------
     1   7 N    3.040 --     2 C    1.958    72 H    0.941
     2   6 C    3.929 --     1 N    1.958     3 C    0.994    47 H    0.900
     3   6 C    3.975 --     2 C    0.994     4 C    0.970    14 C    0.957
                            31 C    0.942
     4   6 C    3.949 --    13 C    1.413     5 C    1.368     3 C    0.970
     5   6 C    3.962 --     6 C    1.401     4 C    1.368    34 H    0.958
     6   6 C    3.905 --     5 C    1.401     9 C    1.222     7 O    1.099
     7   8 O    2.254 --     6 C    1.099     8 C    0.978
     8   6 C    3.932 --     7 O    0.978    36 H    0.977    35 H    0.974
                            37 H    0.973
     9   6 C    3.902 --    12 C    1.392     6 C    1.222    10 O    1.101
    10   8 O    2.252 --     9 C    1.101    11 C    0.978
    11   6 C    3.931 --    10 O    0.978    39 H    0.977    40 H    0.974
                            38 H    0.973
    12   6 C    3.962 --    13 C    1.403     9 C    1.392    41 H    0.964
    13   6 C    3.954 --     4 C    1.413    12 C    1.403    42 H    0.963
    14   6 C    3.973 --    15 C    0.982    44 H    0.972    43 H    0.969
                             3 C    0.957
    15   6 C    3.985 --    16 C    1.059    14 C    0.982    45 H    0.961
                            46 H    0.926
    16   6 C    3.579 --    17 N    1.388    15 C    1.059    48 H    0.958
    17   7 N    3.470 --    16 C    1.388    30 C    0.999    18 C    0.992
    18   6 C    3.942 --    17 N    0.992    50 H    0.967    49 H    0.965
                            19 C    0.954
    19   6 C    3.969 --    20 C    1.020    52 H    0.968    51 H    0.968
                            18 C    0.954
    20   6 C    3.640 --    29 C    1.347    21 C    1.197    19 C    1.020
    21   6 C    3.944 --    22 C    1.694    20 C    1.197    53 H    0.951
    22   6 C    2.870 --    21 C    1.694    23 C    1.027
    23   6 C    3.919 --    22 C    1.027    24 O    0.950    26 C    0.938
                            54 H    0.918
    24   8 O    2.044 --    25 C    0.989    23 C    0.950
    25   6 C    3.928 --    24 O    0.989    57 H    0.974    56 H    0.972
                            55 H    0.971
    26   6 C    3.674 --    29 C    1.463    27 O    1.163    23 C    0.938
    27   8 O    2.276 --    26 C    1.163    28 C    0.963
    28   6 C    3.918 --    58 H    0.976    60 H    0.973    59 H    0.972
                            27 O    0.963
    29   6 C    3.956 --    26 C    1.463    20 C    1.347    61 H    0.953
    30   6 C    3.958 --    17 N    0.999    64 H    0.977    62 H    0.965
                            63 H    0.963
    31   6 C    3.972 --    33 C    1.009    32 C    1.008    65 H    0.960
                             3 C    0.942
    32   6 C    3.978 --    31 C    1.008    67 H    0.982    68 H    0.981
                            66 H    0.974
    33   6 C    3.983 --    31 C    1.009    70 H    0.983    71 H    0.980
                            69 H    0.977
    34   1 H    0.996 --     5 C    0.958
    35   1 H    0.993 --     8 C    0.974
    36   1 H    0.993 --     8 C    0.977
    37   1 H    0.994 --     8 C    0.973
    38   1 H    0.993 --    11 C    0.973
    39   1 H    0.993 --    11 C    0.977
    40   1 H    0.993 --    11 C    0.974
    41   1 H    0.995 --    12 C    0.964
    42   1 H    0.998 --    13 C    0.963
    43   1 H    0.995 --    14 C    0.969
    44   1 H    0.996 --    14 C    0.972
    45   1 H    0.995 --    15 C    0.961
    46   1 H    0.969 --    15 C    0.926
    47   1 H    0.986 --     2 C    0.900
    48   1 H    0.995 --    16 C    0.958
    49   1 H    0.992 --    18 C    0.965
    50   1 H    0.994 --    18 C    0.967
    51   1 H    0.991 --    19 C    0.968
    52   1 H    0.991 --    19 C    0.968
    53   1 H    0.980 --    21 C    0.951
    54   1 H    0.965 --    23 C    0.918
    55   1 H    0.990 --    25 C    0.971
    56   1 H    0.992 --    25 C    0.972
    57   1 H    0.992 --    25 C    0.974
    58   1 H    0.991 --    28 C    0.976
    59   1 H    0.991 --    28 C    0.972
    60   1 H    0.991 --    28 C    0.973
    61   1 H    0.988 --    29 C    0.953
    62   1 H    0.984 --    30 C    0.965
    63   1 H    0.989 --    30 C    0.963
    64   1 H    0.993 --    30 C    0.977
    65   1 H    0.992 --    31 C    0.960
    66   1 H    0.991 --    32 C    0.974
    67   1 H    0.997 --    32 C    0.982
    68   1 H    0.994 --    32 C    0.981
    69   1 H    0.993 --    33 C    0.977
    70   1 H    0.997 --    33 C    0.983
    71   1 H    0.994 --    33 C    0.980
    72   1 H    0.969 --     1 N    0.941
 ---------------------------------------------------------------------------

molecular dipole:
                 x           y           z       tot (Debye)
 q only:        0.766      -0.725      -0.760
   full:        1.128      -1.026      -0.916       4.521

           -------------------------------------------------
          | TOTAL ENERGY              -99.292300855424 Eh   |
          | GRADIENT NORM               0.001975543399 Eh/α |
          | HOMO-LUMO GAP               0.432939299767 eV   |
           -------------------------------------------------

 * finished run on 2024/04/06 at 11:17:08.180
