   * xtb version 6.6.1 (8d0f1dd) compiled by 'conda@1efc2f54142f' on 2023-08-01
          program call               : xtb struc.xyz --opt loose --input .xc1 --gfn2

   ID    Z sym.   atoms
    1    7 N      1, 17
    2    6 C      2-6, 8, 9, 11-16, 18-23, 25, 26, 28-33
    3    8 O      7, 10, 24, 27
    4    1 H      34-72
constraining bond 5 12 to    6.0000000 Å, actual value:    2.7656490 Å

          :  Hamiltonian                  GFN2-xTB          :
 * total energy  :   -97.5362811 Eh     change       -0.4035485E-08 Eh
 * total energy  :   -97.9248844 Eh     change       -0.3886033E+00 Eh
 * total energy  :   -98.1834846 Eh     change       -0.2586002E+00 Eh
 * total energy  :   -98.3441129 Eh     change       -0.1606283E+00 Eh
 * total energy  :   -98.4267450 Eh     change       -0.8263215E-01 Eh
 * total energy  :   -98.4645458 Eh     change       -0.3780081E-01 Eh
 * total energy  :   -98.4833352 Eh     change       -0.1878939E-01 Eh
 * total energy  :   -98.5108838 Eh     change       -0.2754858E-01 Eh
 * total energy  :   -98.5474721 Eh     change       -0.3658834E-01 Eh
 * total energy  :   -98.5886259 Eh     change       -0.4115372E-01 Eh
 * total energy  :   -99.2099372 Eh     change       -0.3589409E-03 Eh
 * total energy  :   -99.2102418 Eh     change       -0.3046261E-03 Eh
 * total energy  :   -99.2104686 Eh     change       -0.2267740E-03 Eh
 * total energy  :   -99.2106490 Eh     change       -0.1803530E-03 Eh
 * total energy  :   -99.2107557 Eh     change       -0.1067614E-03 Eh
 * total energy  :   -99.2108500 Eh     change       -0.9423831E-04 Eh
 * total energy  :   -99.2109238 Eh     change       -0.7384817E-04 Eh
 * total energy  :   -99.2109796 Eh     change       -0.5575025E-04 Eh
 * total energy  :   -99.2110224 Eh     change       -0.4282509E-04 Eh
   *** GEOMETRY OPTIMIZATION CONVERGED AFTER 56 ITERATIONS ***

 final structure:
================
72
 xtb: 6.6.1 (8d0f1dd)
N           -2.02415803494547        2.56392252452003        2.48778876128373
C           -1.90770419831844        1.99140702498072        1.38012175549476
C           -3.04104090881683        1.89290821169155        0.36726054988346
C           -3.61112448843801        0.46389632360905        0.30934193853415
C           -5.43370817646887        1.22611570618167       -1.24893083061483
C           -4.59454075509475        0.27115075635272       -0.78756234460926
O           -4.44397925140587       -0.95848861951901       -1.34447249154116
C           -5.40444040247384       -1.40754332476478       -2.27111970969855
C           -3.38593335628259       -1.88921137433274        1.43488017661203
O           -4.54311373785832       -2.34748998467867        0.89129911777570
C           -4.84611654156762       -3.69570342882176        1.15344917765805
C           -2.56634336456297       -2.64956009103801        2.17374369328165
C           -3.10597351423284       -0.46354199058102        1.16178058306855
C           -2.41353842443674        2.24120813894447       -1.00947138031520
C           -1.52166929033876        1.12791033981705       -1.58799278141072
C           -0.19511437644945        1.02328949620183       -0.93784279990498
N            0.41600226714495       -0.11247874240632       -0.61172246566771
C            1.79744985681908       -0.09557045229281       -0.19164906920398
C            2.75431909805811       -0.44742665778489       -1.34802952274617
C            4.17829537444782       -0.22483144902816       -0.92121577638231
C            4.79218098424358        0.99879125275878       -1.13097475410220
C            6.09718056308687        1.21936780371264       -0.71774662861640
C            6.81355278101983        0.21861882306038       -0.07835328521891
O            8.08273462389428        0.31916042656469        0.36119282836449
C            8.78791921599842        1.52084385144492        0.15228799021832
C            6.18961778337208       -1.03896641985736        0.14836329856308
O            6.95698820221001       -1.95380294961582        0.77511165583872
C            6.43667136157501       -3.23878726465496        1.01814129020190
C            4.88459008305477       -1.23622716259785       -0.27392112003609
C           -0.21037940683234       -1.40061870994220       -0.78938767851399
C           -4.10738882064461        2.86579706797836        0.78004488284696
C           -4.93495025729980        2.51660592498189        1.94688368847948
C           -4.06595798252540        4.27131162176763        0.32169677534179
H           -6.10910942223364        1.04882694916816       -2.06320931984805
H           -6.41303470469333       -1.34291436892934       -1.85700104956914
H           -5.15796522761247       -2.44763256605822       -2.47090943140602
H           -5.35691346735317       -0.83782828849203       -3.20521050480110
H           -4.95655641984446       -3.86729314085433        2.22990925071289
H           -5.78584470070143       -3.90626024332149        0.64674485139556
H           -4.05793745345934       -4.35381225696455        0.77436785002435
H           -1.65359805352380       -2.40822780863942        2.67088447974847
H           -2.33995611109761       -0.10635304371288        1.84073844539967
H           -3.22343210687293        2.41255900068250       -1.71737108209148
H           -1.83336638167960        3.16095363483910       -0.91873086271321
H           -2.05579791770354        0.18002483924075       -1.56120693007258
H           -1.35180252570333        1.37919359785830       -2.64383383768384
H           -0.97097565038377        1.55979795307065        0.98888843720472
H            0.39039385456695        1.92657252357418       -0.84712263143399
H            1.93358522738271       -0.80855362493342        0.62539299273635
H            2.04831881339907        0.90070536446664        0.17928124626588
H            2.52073709908687        0.19337454480249       -2.20018929366870
H            2.60520283864501       -1.48599461824366       -1.64526509111085
H            4.25957663742649        1.79169862445661       -1.63411356780717
H            6.55061855634838        2.17895978650322       -0.90439452650087
H            8.31036152792314        2.36081575370997        0.66613155260802
H            8.88205915282543        1.74983715356332       -0.91353153943870
H            9.77729873535959        1.35581060618218        0.57445688979027
H            7.23715599434147       -3.79014447718461        1.50749607510737
H            5.56664019041619       -3.20083832734819        1.68161831851414
H            6.16584145187202       -3.74516152400953        0.08647748952742
H            4.40535173016885       -2.18959567445963       -0.11535387224546
H           -0.35476870318211       -1.62710837842802       -1.84806834602610
H           -1.18204235021228       -1.42943324855845       -0.29084543554728
H            0.42193346730083       -2.16958248354002       -0.35310691716365
H           -5.50256138479228        2.17363494045257       -0.74682707477296
H           -4.32266446742643        2.65827634196126        2.84633440655890
H           -5.23881429892824        1.47187927675546        1.93382345119520
H           -5.80906285288346        3.15731405140128        2.02865557282808
H           -3.17447107199211        4.76359919963643        0.72199553832032
H           -4.01550690023713        4.35995867165135       -0.76269754325714
H           -4.93463522477527        4.81879838411767        0.67770987095531
H           -1.19806918869979        2.60622572541007        3.07635145600802

          :  Hamiltonian                  GFN2-xTB          :
         :: total energy             -99.211022398069 Eh    ::
         :: gradient norm              0.003214456876 Eh/a0 ::
         :: HOMO-LUMO gap              0.430308676356 eV    ::
         :: SCC energy              -100.572813538717 Eh    ::
         :: -> dispersion             -0.076309954577 Eh    ::
         :: repulsion energy           1.358841994116 Eh    ::

    * Orbital Energies and Occupations

         #    Occupation            Energy/Eh            Energy/eV
      -------------------------------------------------------------
         1        2.0000           -0.8016805             -21.8148
       ...           ...                  ...                  ...
        78        1.9993           -0.5355189             -14.5722
        79        1.9988           -0.5283206             -14.3763
        80        1.9988           -0.5282340             -14.3740
        81        1.9987           -0.5260373             -14.3142
        82        1.9985           -0.5241061             -14.2617
        83        1.9974           -0.5155787             -14.0296
        84        1.9942           -0.5026826             -13.6787
        85        1.9839           -0.4864437             -13.2368
        86        1.9806           -0.4835092             -13.1570
        87        1.9590           -0.4714742             -12.8295
        88        1.8611           -0.4513471             -12.2818
        89        1.8488           -0.4499054             -12.2425
        90        1.1787           -0.4159766             -11.3193 (HOMO)
        91        0.6916           -0.4001630             -10.8890 (LUMO)
        92        0.4241           -0.3894728             -10.5981
        93        0.0481           -0.3516273              -9.5683
        94        0.0376           -0.3476388              -9.4597
        95        0.0031           -0.3076276              -8.3710
        96        0.0026           -0.3051834              -8.3045
        97        0.0003           -0.2721315              -7.4051
        98        0.0000           -0.2247314              -6.1153
        99        0.0000           -0.1826053              -4.9689
       100                         -0.1306143              -3.5542
       101                         -0.0764386              -2.0800
       ...                                ...                  ...
       171                          0.5816313              15.8270
      -------------------------------------------------------------
                  HL-Gap            0.0158136 Eh            0.4303 eV

     #   Z          covCN         q      C6AA      α(0)
     1   7 N        1.773    -0.292    28.383     7.889
     2   6 C        2.828     0.094    25.902     8.340
     3   6 C        3.912     0.007    20.408     6.421
     4   6 C        2.947    -0.000    28.031     8.684
     5   6 C        2.837    -0.144    31.686     9.225
     6   6 C        2.837     0.144    24.859     8.171
     7   8 O        1.706    -0.253    18.194     5.759
     8   6 C        3.644     0.031    20.393     6.491
     9   6 C        2.848     0.145    24.836     8.168
    10   8 O        1.705    -0.247    18.091     5.743
    11   6 C        3.658     0.032    20.313     6.468
    12   6 C        1.915    -0.162    35.742     9.655
    13   6 C        2.897    -0.050    29.237     8.865
    14   6 C        3.810    -0.069    21.817     6.649
    15   6 C        3.802    -0.070    21.834     6.653
    16   6 C        2.843    -0.001    28.034     8.677
    17   7 N        2.729     0.008    21.115     6.825
    18   6 C        3.756    -0.016    20.908     6.520
    19   6 C        3.808    -0.070    21.835     6.652
    20   6 C        2.969    -0.001    28.055     8.688
    21   6 C        2.922    -0.050    29.237     8.867
    22   6 C        2.914    -0.068    29.702     8.937
    23   6 C        2.865     0.132    25.101     8.212
    24   8 O        1.706    -0.225    17.726     5.684
    25   6 C        3.645     0.026    20.472     6.503
    26   6 C        2.863     0.132    25.102     8.212
    27   8 O        1.706    -0.227    17.763     5.690
    28   6 C        3.645     0.028    20.444     6.499
    29   6 C        2.919    -0.080    29.997     8.981
    30   6 C        3.699    -0.071    22.026     6.712
    31   6 C        2.949     0.033    27.263     8.564
    32   6 C        3.755    -0.127    22.993     6.837
    33   6 C        3.754    -0.120    22.847     6.816
    34   1 H        0.926     0.057     2.235     2.338
    35   1 H        0.924     0.054     2.271     2.357
    36   1 H        0.925     0.069     2.093     2.262
    37   1 H        0.924     0.045     2.380     2.413
    38   1 H        0.924     0.053     2.277     2.360
    39   1 H        0.925     0.065     2.140     2.288
    40   1 H        0.924     0.050     2.322     2.383
    41   1 H        0.927     0.044     2.401     2.423
    42   1 H        0.925     0.041     2.437     2.441
    43   1 H        0.925     0.066     2.134     2.284
    44   1 H        0.924     0.052     2.291     2.367
    45   1 H        0.925     0.076     2.020     2.223
    46   1 H        0.923     0.077     2.006     2.215
    47   1 H        0.923     0.018     2.761     2.598
    48   1 H        0.926     0.064     2.152     2.294
    49   1 H        0.924     0.067     2.120     2.277
    50   1 H        0.924     0.065     2.144     2.290
    51   1 H        0.924     0.053     2.278     2.360
    52   1 H        0.924     0.056     2.249     2.345
    53   1 H        0.926     0.043     2.412     2.429
    54   1 H        0.926     0.056     2.240     2.341
    55   1 H        0.924     0.053     2.288     2.366
    56   1 H        0.924     0.054     2.265     2.353
    57   1 H        0.925     0.081     1.968     2.194
    58   1 H        0.925     0.081     1.971     2.195
    59   1 H        0.924     0.048     2.344     2.394
    60   1 H        0.924     0.052     2.299     2.371
    61   1 H        0.926     0.047     2.359     2.402
    62   1 H        0.924     0.077     2.014     2.219
    63   1 H        0.924     0.084     1.934     2.175
    64   1 H        0.925     0.080     1.984     2.203
    65   1 H        0.926     0.057     2.240     2.340
    66   1 H        0.924     0.117     1.640     2.003
    67   1 H        0.925     0.072     2.061     2.245
    68   1 H        0.925     0.072     2.065     2.247
    69   1 H        0.924     0.081     1.966     2.193
    70   1 H        0.925     0.069     2.099     2.265
    71   1 H        0.925     0.072     2.068     2.249
    72   1 H        0.860     0.161     1.326     1.804

Wiberg/Mayer (AO) data.
largest (>0.10) Wiberg bond orders for each atom

     #   Z sym  total        # sym  WBO       # sym  WBO       # sym  WBO
 ---------------------------------------------------------------------------
     1   7 N    3.018 --     2 C    1.940    72 H    0.940
     2   6 C    3.877 --     1 N    1.940     3 C    0.946    47 H    0.902
     3   6 C    3.976 --    31 C    1.010    14 C    0.957     2 C    0.946
                             4 C    0.941
     4   6 C    3.906 --    13 C    1.710     6 C    1.046     3 C    0.941
     5   6 C    3.862 --     6 C    1.720    34 H    0.969    65 H    0.948
                             7 O    0.114
     6   6 C    3.912 --     5 C    1.720     7 O    1.075     4 C    1.046
     7   8 O    2.237 --     6 C    1.075     8 C    0.979     5 C    0.114
     8   6 C    3.937 --     7 O    0.979    36 H    0.978    35 H    0.975
                            37 H    0.974
     9   6 C    3.871 --    12 C    1.698    10 O    1.067    13 C    1.048
    10   8 O    2.208 --     9 C    1.067    11 C    0.982
    11   6 C    3.931 --    10 O    0.982    39 H    0.980    40 H    0.972
                            38 H    0.971
    12   6 C    2.880 --     9 C    1.698    41 H    0.959
    13   6 C    3.887 --     4 C    1.710     9 C    1.048    42 H    0.948
    14   6 C    3.967 --    15 C    0.986    44 H    0.973    43 H    0.965
                             3 C    0.957
    15   6 C    3.986 --    16 C    1.057    14 C    0.986    45 H    0.959
                            46 H    0.928
    16   6 C    3.564 --    17 N    1.390    15 C    1.057    48 H    0.957
    17   7 N    3.461 --    16 C    1.390    30 C    0.998    18 C    0.989
    18   6 C    3.956 --    17 N    0.989    50 H    0.968    19 C    0.966
                            49 H    0.965
    19   6 C    3.976 --    20 C    1.008    51 H    0.972    52 H    0.972
                            18 C    0.966
    20   6 C    3.948 --    21 C    1.412    29 C    1.378    19 C    1.008
    21   6 C    3.953 --    22 C    1.414    20 C    1.412    53 H    0.968
    22   6 C    3.962 --    21 C    1.414    23 C    1.387    54 H    0.963
    23   6 C    3.899 --    22 C    1.387    26 C    1.222    24 O    1.107
    24   8 O    2.255 --    23 C    1.107    25 C    0.977
    25   6 C    3.930 --    57 H    0.977    24 O    0.977    55 H    0.973
                            56 H    0.973
    26   6 C    3.902 --    29 C    1.397    23 C    1.222    27 O    1.101
    27   8 O    2.255 --    26 C    1.101    28 C    0.979
    28   6 C    3.933 --    27 O    0.979    58 H    0.977    59 H    0.974
                            60 H    0.973
    29   6 C    3.961 --    26 C    1.397    20 C    1.378    61 H    0.963
    30   6 C    3.955 --    17 N    0.998    64 H    0.978    62 H    0.966
                            63 H    0.959
    31   6 C    3.327 --    32 C    1.097    33 C    1.077     3 C    1.010
    32   6 C    3.969 --    31 C    1.097    68 H    0.971    67 H    0.960
                            66 H    0.895
    33   6 C    3.980 --    31 C    1.077    71 H    0.977    70 H    0.956
                            69 H    0.928
    34   1 H    0.993 --     5 C    0.969
    35   1 H    0.995 --     8 C    0.975
    36   1 H    0.994 --     8 C    0.978
    37   1 H    0.995 --     8 C    0.974
    38   1 H    0.992 --    11 C    0.971
    39   1 H    0.995 --    11 C    0.980
    40   1 H    0.993 --    11 C    0.972
    41   1 H    0.978 --    12 C    0.959
    42   1 H    0.997 --    13 C    0.948
    43   1 H    0.994 --    14 C    0.965
    44   1 H    0.996 --    14 C    0.973
    45   1 H    0.993 --    15 C    0.959
    46   1 H    0.967 --    15 C    0.928
    47   1 H    0.988 --     2 C    0.902
    48   1 H    0.995 --    16 C    0.957
    49   1 H    0.991 --    18 C    0.965
    50   1 H    0.995 --    18 C    0.968
    51   1 H    0.996 --    19 C    0.972
    52   1 H    0.996 --    19 C    0.972
    53   1 H    0.998 --    21 C    0.968
    54   1 H    0.995 --    22 C    0.963
    55   1 H    0.992 --    25 C    0.973
    56   1 H    0.992 --    25 C    0.973
    57   1 H    0.993 --    25 C    0.977
    58   1 H    0.993 --    28 C    0.977
    59   1 H    0.994 --    28 C    0.974
    60   1 H    0.993 --    28 C    0.973
    61   1 H    0.997 --    29 C    0.963
    62   1 H    0.984 --    30 C    0.966
    63   1 H    0.986 --    30 C    0.959
    64   1 H    0.993 --    30 C    0.978
    65   1 H    0.996 --     5 C    0.948
    66   1 H    0.935 --    32 C    0.895
    67   1 H    0.982 --    32 C    0.960
    68   1 H    0.988 --    32 C    0.971
    69   1 H    0.952 --    33 C    0.928
    70   1 H    0.977 --    33 C    0.956
    71   1 H    0.992 --    33 C    0.977
    72   1 H    0.970 --     1 N    0.940
 ---------------------------------------------------------------------------

molecular dipole:
                 x           y           z       tot (Debye)
 q only:       -0.419       1.107      -0.821
   full:       -0.147       1.139      -1.014       3.894

           -------------------------------------------------
          | TOTAL ENERGY              -99.211022398069 Eh   |
          | GRADIENT NORM               0.003214456876 Eh/α |
          | HOMO-LUMO GAP               0.430308676356 eV   |
           -------------------------------------------------

 * finished run on 2024/04/06 at 11:12:31.827
