   * xtb version 6.6.1 (8d0f1dd) compiled by 'conda@1efc2f54142f' on 2023-08-01
          program call               : xtb xtbopt.xyz --opt crude --input .xc2 --gfn2

   ID    Z sym.   atoms
    1    7 N      1, 17
    2    6 C      2-6, 8, 9, 11-16, 18-23, 25, 26, 28-33
    3    8 O      7, 10, 24, 27
    4    1 H      34-72
########################################################################
[WARNING] Please study the warnings concerning your input carefully
-1- readin_getIntValue: could not parse ''
########################################################################

          :  Hamiltonian                  GFN2-xTB          :
 * total energy  :   -99.2123903 Eh     change        0.7304379E-11 Eh
 * total energy  :   -99.2146879 Eh     change       -0.2297696E-02 Eh
 * total energy  :   -99.2158355 Eh     change       -0.1147531E-02 Eh
 * total energy  :   -99.2163981 Eh     change       -0.5625937E-03 Eh
 * total energy  :   -99.2170425 Eh     change       -0.6443993E-03 Eh
 * total energy  :   -99.2176543 Eh     change       -0.6118389E-03 Eh
 * total energy  :   -99.2183125 Eh     change       -0.6581505E-03 Eh
 * total energy  :   -99.2189275 Eh     change       -0.6150737E-03 Eh
 * total energy  :   -99.2193640 Eh     change       -0.4364993E-03 Eh
   *** GEOMETRY OPTIMIZATION CONVERGED AFTER 9 ITERATIONS ***

 final structure:
================
72
 xtb: 6.6.1 (8d0f1dd)
N           -1.93073288294858        2.67307509781252        2.45054238478652
C           -1.84557136218541        2.05128129811918        1.36707135768333
C           -2.99864793388562        1.93254893907208        0.38157193721219
C           -3.51695505274367        0.49250561123040        0.36932822210560
C           -5.50677989515857        0.91113647137636       -1.03280515816406
C           -4.45058313756012        0.15454774689766       -0.72941012937060
O           -4.06801977865923       -0.98324245227953       -1.37840841125936
C           -5.00857318062606       -1.59430190314610       -2.23650527679966
C           -3.54007595101849       -1.79998775430231        1.43285365231096
O           -4.77011631854220       -2.10314245287593        0.93799120150348
C           -5.12325206604179       -3.46663278118534        1.03652676296493
C           -2.70837888932309       -2.68255934910845        1.96127669290446
C           -3.14071287817570       -0.38748208724282        1.30719060213095
C           -2.42830235606305        2.27261675805286       -1.01938033203183
C           -1.51305864418046        1.18623916785784       -1.61405962836928
C           -0.19036475925752        1.07303251227596       -0.95800434549543
N            0.40826909220527       -0.06964550748857       -0.63314441760761
C            1.78792113164317       -0.07077572328005       -0.20768063399809
C            2.74513220453057       -0.44317151387847       -1.35768713929927
C            4.16990775746051       -0.22777399670885       -0.92958124628999
C            4.78706134143266        0.99518514015207       -1.13434455491430
C            6.09214144342014        1.21140370474374       -0.71928477767155
C            6.80568852508386        0.20652103477565       -0.08321476591883
O            8.07431511757093        0.30323157015453        0.35927299494468
C            8.78087894044072        1.50547286833971        0.15853025468906
C            6.17928212861207       -1.05092116698535        0.13668927937961
O            6.94508552547367       -1.97002054359266        0.75941731734927
C            6.42324233389099       -3.25536183991014        0.99682685077864
C            4.87390477699222       -1.24372840997567       -0.28693991653431
C           -0.23261832781588       -1.35014639074242       -0.81415212831112
C           -4.08773723555012        2.87440827628522        0.80682779408375
C           -4.86061654844393        2.54056574773941        2.01612044892820
C           -4.12060101187438        4.26284438922587        0.29957094101101
H           -6.20135228280430        0.66584154045012       -1.81307718642578
H           -5.97001812060693       -1.72038598538305       -1.73073291043286
H           -4.59759586201511       -2.57274000968040       -2.48927299775076
H           -5.15017784652721       -1.00923779264339       -3.15025570254656
H           -5.15364989122625       -3.78103870010288        2.08516142148369
H           -6.10973054736502       -3.56975013833011        0.58471269886066
H           -4.39761666915169       -4.09414752148805        0.50663010164633
H           -1.74751576275759       -2.56677657757257        2.41418810062951
H           -2.43943374909204       -0.07498491777284        2.06799362962503
H           -3.26868076237833        2.39515016656231       -1.70271573933737
H           -1.88441844644015        3.21717845562419       -0.96611206394313
H           -2.03462842265366        0.23184191267093       -1.62362337061192
H           -1.33478703388902        1.47358321299719       -2.65940118598867
H           -0.93368868235723        1.56307343855961        0.98557012888947
H            0.40211341328252        1.97108450571842       -0.86093345872570
H            1.91013081837083       -0.78161069054020        0.61359151651012
H            2.05221210079356        0.92342099533613        0.15948350341816
H            2.51915844034051        0.19080510568165       -2.21702062188416
H            2.58795479031622       -1.48346524308945       -1.64429364543606
H            4.25659500452085        1.79115304426282       -1.63490694436670
H            6.54781006593017        2.17071456686709       -0.90178412570301
H            8.30339374018208        2.34269032979339        0.67696439405842
H            8.87662000626514        1.74098106684125       -0.90570391536495
H            9.76958478044449        1.33704291283699        0.58093618157351
H            7.22203665910879       -3.80863840546871        1.48687944895627
H            5.55127485499161       -3.21916404646914        1.65782871750450
H            6.15500799975350       -3.75875362894528        0.06277865218827
H            4.39295297220627       -2.19697374450947       -0.13293868231160
H           -0.34704468777212       -1.58759317066500       -1.87419083752270
H           -1.21971259894659       -1.35891428815537       -0.34738367276047
H            0.37400098190582       -2.12309146529066       -0.34933486249179
H           -5.70448007177607        1.80330683892632       -0.46398753227271
H           -4.23658406318742        2.76827306733415        2.89026971457916
H           -5.10472742845273        1.48103430577300        2.06908310136825
H           -5.76811853111357        3.13494761238576        2.08817933048006
H           -3.23939867460198        4.80504005966847        0.66129243410336
H           -4.10217891209567        4.31739056621123       -0.78838598733019
H           -5.00128901402721        4.78561229576986        0.66225166149644
H           -1.09863507887286        2.71351738690484        3.03051971571001

          :  Hamiltonian                  GFN2-xTB          :
         :: total energy             -99.219364041020 Eh    ::
         :: gradient norm              0.007082201958 Eh/a0 ::
         :: HOMO-LUMO gap              0.384377504628 eV    ::
         :: SCC energy              -100.595004621313 Eh    ::
         :: -> dispersion             -0.077138912913 Eh    ::
         :: repulsion energy           1.373983634853 Eh    ::

    * Orbital Energies and Occupations

         #    Occupation            Energy/Eh            Energy/eV
      -------------------------------------------------------------
         1        2.0000           -0.8037140             -21.8702
       ...           ...                  ...                  ...
        78        1.9993           -0.5356798             -14.5766
        79        1.9990           -0.5308412             -14.4449
        80        1.9988           -0.5282145             -14.3734
        81        1.9987           -0.5262258             -14.3193
        82        1.9985           -0.5240125             -14.2591
        83        1.9974           -0.5155073             -14.0277
        84        1.9954           -0.5063674             -13.7790
        85        1.9840           -0.4864475             -13.2369
        86        1.9807           -0.4834517             -13.1554
        87        1.9615           -0.4723456             -12.8532
        88        1.8861           -0.4545592             -12.3692
        89        1.8615           -0.4512597             -12.2794
        90        1.1436           -0.4146971             -11.2845 (HOMO)
        91        0.7073           -0.4005715             -10.9001 (LUMO)
        92        0.4229           -0.3892780             -10.5928
        93        0.0390           -0.3481061              -9.4724
        94        0.0251           -0.3410000              -9.2791
        95        0.0031           -0.3075512              -8.3689
        96        0.0026           -0.3051511              -8.3036
        97        0.0004           -0.2751174              -7.4863
        98        0.0000           -0.2308447              -6.2816
        99        0.0000           -0.1825598              -4.9677
       100                         -0.1302082              -3.5431
       101                         -0.0748289              -2.0362
       ...                                ...                  ...
       171                          0.6032749              16.4159
      -------------------------------------------------------------
                  HL-Gap            0.0141256 Eh            0.3844 eV

     #   Z          covCN         q      C6AA      α(0)
     1   7 N        1.773    -0.291    28.358     7.886
     2   6 C        2.828     0.093    25.919     8.342
     3   6 C        3.911     0.009    20.368     6.415
     4   6 C        2.956     0.001    28.009     8.681
     5   6 C        2.840    -0.140    31.573     9.208
     6   6 C        2.841     0.148    24.780     8.158
     7   8 O        1.705    -0.268    18.441     5.798
     8   6 C        3.645     0.032    20.366     6.486
     9   6 C        2.853     0.150    24.734     8.151
    10   8 O        1.705    -0.255    18.230     5.765
    11   6 C        3.660     0.033    20.290     6.463
    12   6 C        1.920    -0.163    35.748     9.656
    13   6 C        2.906    -0.048    29.190     8.859
    14   6 C        3.809    -0.067    21.775     6.642
    15   6 C        3.802    -0.072    21.871     6.658
    16   6 C        2.843     0.000    28.011     8.674
    17   7 N        2.729     0.008    21.117     6.825
    18   6 C        3.756    -0.016    20.906     6.519
    19   6 C        3.807    -0.070    21.835     6.652
    20   6 C        2.969    -0.001    28.056     8.688
    21   6 C        2.922    -0.050    29.240     8.867
    22   6 C        2.914    -0.068    29.702     8.937
    23   6 C        2.865     0.132    25.102     8.213
    24   8 O        1.706    -0.225    17.728     5.685
    25   6 C        3.645     0.026    20.471     6.503
    26   6 C        2.863     0.132    25.103     8.213
    27   8 O        1.706    -0.227    17.765     5.691
    28   6 C        3.645     0.028    20.443     6.499
    29   6 C        2.919    -0.080    29.995     8.981
    30   6 C        3.699    -0.071    22.029     6.713
    31   6 C        2.948     0.030    27.322     8.573
    32   6 C        3.755    -0.127    22.984     6.836
    33   6 C        3.754    -0.120    22.856     6.817
    34   1 H        0.926     0.057     2.238     2.339
    35   1 H        0.924     0.057     2.240     2.341
    36   1 H        0.924     0.065     2.143     2.289
    37   1 H        0.924     0.046     2.373     2.409
    38   1 H        0.924     0.054     2.268     2.355
    39   1 H        0.925     0.064     2.153     2.295
    40   1 H        0.924     0.051     2.313     2.378
    41   1 H        0.927     0.045     2.382     2.413
    42   1 H        0.926     0.043     2.404     2.425
    43   1 H        0.925     0.064     2.148     2.292
    44   1 H        0.924     0.053     2.286     2.365
    45   1 H        0.925     0.081     1.967     2.193
    46   1 H        0.923     0.077     2.006     2.215
    47   1 H        0.923     0.018     2.761     2.599
    48   1 H        0.926     0.064     2.153     2.295
    49   1 H        0.924     0.066     2.125     2.280
    50   1 H        0.924     0.065     2.145     2.290
    51   1 H        0.924     0.054     2.276     2.359
    52   1 H        0.924     0.056     2.249     2.345
    53   1 H        0.926     0.043     2.414     2.429
    54   1 H        0.926     0.056     2.241     2.341
    55   1 H        0.924     0.053     2.289     2.366
    56   1 H        0.924     0.054     2.265     2.354
    57   1 H        0.925     0.081     1.969     2.194
    58   1 H        0.925     0.081     1.972     2.196
    59   1 H        0.924     0.048     2.345     2.395
    60   1 H        0.924     0.052     2.299     2.371
    61   1 H        0.926     0.047     2.358     2.402
    62   1 H        0.924     0.077     2.007     2.216
    63   1 H        0.924     0.086     1.922     2.168
    64   1 H        0.925     0.079     1.989     2.206
    65   1 H        0.926     0.055     2.259     2.350
    66   1 H        0.924     0.114     1.660     2.015
    67   1 H        0.925     0.071     2.075     2.253
    68   1 H        0.925     0.072     2.066     2.248
    69   1 H        0.924     0.083     1.950     2.184
    70   1 H        0.925     0.069     2.094     2.263
    71   1 H        0.925     0.072     2.065     2.247
    72   1 H        0.860     0.161     1.326     1.804

Wiberg/Mayer (AO) data.
largest (>0.10) Wiberg bond orders for each atom

     #   Z sym  total        # sym  WBO       # sym  WBO       # sym  WBO
 ---------------------------------------------------------------------------
     1   7 N    3.018 --     2 C    1.945    72 H    0.940
     2   6 C    3.876 --     1 N    1.945     3 C    0.947    47 H    0.903
     3   6 C    3.976 --    31 C    1.009    14 C    0.958     2 C    0.947
                             4 C    0.940
     4   6 C    3.915 --    13 C    1.752     6 C    1.021     3 C    0.940
     5   6 C    3.900 --     6 C    1.768    34 H    0.968    65 H    0.958
                             7 O    0.111
     6   6 C    3.918 --     5 C    1.768     7 O    1.060     4 C    1.021
     7   8 O    2.219 --     6 C    1.060     8 C    0.976     5 C    0.111
     8   6 C    3.937 --    36 H    0.979     7 O    0.976    35 H    0.975
                            37 H    0.975
     9   6 C    3.879 --    12 C    1.743    10 O    1.061    13 C    1.022
    10   8 O    2.202 --     9 C    1.061    11 C    0.979    12 C    0.103
    11   6 C    3.931 --    39 H    0.980    10 O    0.979    40 H    0.973
                            38 H    0.972
    12   6 C    2.933 --     9 C    1.743    41 H    0.959    10 O    0.103
    13   6 C    3.897 --     4 C    1.752     9 C    1.022    42 H    0.953
    14   6 C    3.968 --    15 C    0.985    44 H    0.974    43 H    0.967
                             3 C    0.958
    15   6 C    3.985 --    16 C    1.057    14 C    0.985    45 H    0.957
                            46 H    0.928
    16   6 C    3.566 --    17 N    1.390    15 C    1.057    48 H    0.958
    17   7 N    3.462 --    16 C    1.390    30 C    0.998    18 C    0.990
    18   6 C    3.957 --    17 N    0.990    50 H    0.968    19 C    0.966
                            49 H    0.964
    19   6 C    3.976 --    20 C    1.008    51 H    0.972    52 H    0.972
                            18 C    0.966
    20   6 C    3.948 --    21 C    1.412    29 C    1.379    19 C    1.008
    21   6 C    3.953 --    22 C    1.415    20 C    1.412    53 H    0.968
    22   6 C    3.962 --    21 C    1.415    23 C    1.386    54 H    0.963
    23   6 C    3.899 --    22 C    1.386    26 C    1.222    24 O    1.106
    24   8 O    2.254 --    23 C    1.106    25 C    0.977
    25   6 C    3.930 --    57 H    0.977    24 O    0.977    55 H    0.973
                            56 H    0.973
    26   6 C    3.902 --    29 C    1.397    23 C    1.222    27 O    1.101
    27   8 O    2.254 --    26 C    1.101    28 C    0.979
    28   6 C    3.933 --    27 O    0.979    58 H    0.977    59 H    0.974
                            60 H    0.973
    29   6 C    3.961 --    26 C    1.397    20 C    1.379    61 H    0.963
    30   6 C    3.955 --    17 N    0.998    64 H    0.978    62 H    0.965
                            63 H    0.961
    31   6 C    3.314 --    32 C    1.095    33 C    1.080     3 C    1.009
    32   6 C    3.970 --    31 C    1.095    68 H    0.970    67 H    0.962
                            66 H    0.896
    33   6 C    3.979 --    31 C    1.080    71 H    0.976    70 H    0.955
                            69 H    0.926
    34   1 H    0.994 --     5 C    0.968
    35   1 H    0.995 --     8 C    0.975
    36   1 H    0.995 --     8 C    0.979
    37   1 H    0.995 --     8 C    0.975
    38   1 H    0.992 --    11 C    0.972
    39   1 H    0.995 --    11 C    0.980
    40   1 H    0.993 --    11 C    0.973
    41   1 H    0.979 --    12 C    0.959
    42   1 H    0.996 --    13 C    0.953
    43   1 H    0.994 --    14 C    0.967
    44   1 H    0.996 --    14 C    0.974
    45   1 H    0.993 --    15 C    0.957
    46   1 H    0.968 --    15 C    0.928
    47   1 H    0.988 --     2 C    0.903
    48   1 H    0.995 --    16 C    0.958
    49   1 H    0.991 --    18 C    0.964
    50   1 H    0.995 --    18 C    0.968
    51   1 H    0.996 --    19 C    0.972
    52   1 H    0.996 --    19 C    0.972
    53   1 H    0.998 --    21 C    0.968
    54   1 H    0.995 --    22 C    0.963
    55   1 H    0.992 --    25 C    0.973
    56   1 H    0.992 --    25 C    0.973
    57   1 H    0.993 --    25 C    0.977
    58   1 H    0.993 --    28 C    0.977
    59   1 H    0.994 --    28 C    0.974
    60   1 H    0.993 --    28 C    0.973
    61   1 H    0.997 --    29 C    0.963
    62   1 H    0.983 --    30 C    0.965
    63   1 H    0.986 --    30 C    0.961
    64   1 H    0.993 --    30 C    0.978
    65   1 H    0.996 --     5 C    0.958
    66   1 H    0.934 --    32 C    0.896
    67   1 H    0.983 --    32 C    0.962
    68   1 H    0.987 --    32 C    0.970
    69   1 H    0.949 --    33 C    0.926
    70   1 H    0.976 --    33 C    0.955
    71   1 H    0.992 --    33 C    0.976
    72   1 H    0.970 --     1 N    0.940
 ---------------------------------------------------------------------------

molecular dipole:
                 x           y           z       tot (Debye)
 q only:       -0.405       1.081      -0.787
   full:       -0.132       1.051      -0.959       3.631

           -------------------------------------------------
          | TOTAL ENERGY              -99.219364041020 Eh   |
          | GRADIENT NORM               0.007082201958 Eh/α |
          | HOMO-LUMO GAP               0.384377504628 eV   |
           -------------------------------------------------

 * finished run on 2024/04/06 at 11:12:33.646
