   * xtb version 6.6.1 (8d0f1dd) compiled by 'conda@1efc2f54142f' on 2023-08-01
          program call               : xtb xtbopt.xyz --opt crude --input .xc2 --gfn2

   ID    Z sym.   atoms
    1    6 C      1, 3, 5-7, 10, 11, 14
    2    7 N      2, 4, 9, 13
    3    8 O      8, 12
    4    1 H      15-25
########################################################################
[WARNING] Please study the warnings concerning your input carefully
-1- readin_getIntValue: could not parse ''
########################################################################

          :  Hamiltonian                  GFN2-xTB          :
 * total energy  :   -40.4179050 Eh     change       -0.1563194E-12 Eh
 * total energy  :   -42.1198035 Eh     change       -0.1701898E+01 Eh
 * total energy  :   -42.1434826 Eh     change       -0.2367916E-01 Eh
 * total energy  :   -42.1489135 Eh     change       -0.5430859E-02 Eh
 * total energy  :   -42.1513579 Eh     change       -0.2444418E-02 Eh
 * total energy  :   -42.1518231 Eh     change       -0.4651440E-03 Eh
 * total energy  :   -42.1528014 Eh     change       -0.9783877E-03 Eh
 * total energy  :   -42.1534470 Eh     change       -0.6455739E-03 Eh
 * total energy  :   -42.1538886 Eh     change       -0.4415839E-03 Eh
 * total energy  :   -42.1540999 Eh     change       -0.2113082E-03 Eh
   *** GEOMETRY OPTIMIZATION CONVERGED AFTER 10 ITERATIONS ***

 final structure:
================
25
 xtb: 6.6.1 (8d0f1dd)
C            3.12051862263505        1.19777203616395        0.17540812256128
N            2.14790091811596        0.14066902109834        0.08802020644579
C            2.39963632514802       -1.13280890849888       -0.19168868512748
N            1.24093342313065       -1.81726004621439       -0.21301256847696
C            0.22235114211858       -0.94579235276080        0.06938501114170
C            0.80392605809730        0.28683725402592        0.27609039623502
C            0.08900820870897        1.56382469624382        0.61304228856883
O            0.41634056154710        2.63387285676383        0.12279729835508
N           -1.52904314224749        1.04069201683343       -0.18189775799235
C           -2.17611193948451        2.01055320048693       -0.69908021106638
C           -2.07176355349855       -0.26032682479478       -0.09327106709960
O           -3.24329793652656       -0.50303570898309       -0.16357312607699
N           -1.10923785050660       -1.24988612269021        0.06910486465142
C           -1.54026837068109       -2.63575518092423        0.12184729191474
H            3.51163504420489        1.27378747850861        1.19150193822183
H            3.94192286611048        1.00008020734667       -0.50931771642022
H            2.63916958355522        2.14192996392573       -0.08203020692585
H            3.36863826941065       -1.55416882960430       -0.37258493073046
H           -1.67756948542980        2.97221675867536       -0.71710133104639
H           -3.17060999704348        1.89487023405213       -1.10995529514048
H           -0.37095944119451        1.50733308322537        1.62384097249140
H           -1.05291699548886       -3.14844190910415        0.95061879224624
H           -1.33002041622071       -3.15037457179341       -0.81776684032279
H           -2.61760505725347       -2.64259237491556        0.28145094729832
H            1.14785467689199       -2.80575743546606       -0.40065677580474

          :  Hamiltonian                  GFN2-xTB          :
         :: total energy             -42.154099916965 Eh    ::
         :: gradient norm              0.004931574766 Eh/a0 ::
         :: HOMO-LUMO gap              2.140318170400 eV    ::
         :: SCC energy               -42.681259396074 Eh    ::
         :: -> dispersion             -0.023065191634 Eh    ::
         :: repulsion energy           0.526988792336 Eh    ::

    * Orbital Energies and Occupations

         #    Occupation            Energy/Eh            Energy/eV
      -------------------------------------------------------------
         1        2.0000           -0.9107328             -24.7823
       ...           ...                  ...                  ...
        25        2.0000           -0.6729605             -18.3122
        26        2.0000           -0.6665325             -18.1373
        27        1.9999           -0.6547663             -17.8171
        28        1.9998           -0.6355061             -17.2930
        29        1.9998           -0.6348010             -17.2738
        30        1.9997           -0.6256725             -17.0254
        31        1.9995           -0.6204648             -16.8837
        32        1.9994           -0.6170398             -16.7905
        33        1.9992           -0.6124922             -16.6668
        34        1.9963           -0.5877151             -15.9925
        35        1.9791           -0.5601606             -15.2427
        36        1.9505           -0.5463225             -14.8662
        37        1.8675           -0.5300299             -14.4228 (HOMO)
        38        0.1787           -0.4513747             -12.2825 (LUMO)
        39        0.0255           -0.4192918             -11.4095
        40        0.0050           -0.3931574             -10.6984
        41        0.0001           -0.3293231              -8.9613
        42        0.0001           -0.3252055              -8.8493
        43                         -0.1919946              -5.2244
        44                         -0.1853983              -5.0449
        45                         -0.1423872              -3.8746
        46                         -0.0793719              -2.1598
        47                         -0.0669158              -1.8209
        48                         -0.0459645              -1.2508
       ...                                ...                  ...
        67                          0.5383932              14.6504
      -------------------------------------------------------------
                  HL-Gap            0.0786552 Eh            2.1403 eV

     #   Z          covCN         q      C6AA      α(0)
     1   6 C        3.693    -0.093    22.474     6.783
     2   7 N        2.850     0.089    19.706     6.593
     3   6 C        3.052     0.047    26.891     8.505
     4   7 N        2.808    -0.056    22.321     7.017
     5   6 C        3.036     0.105    25.653     8.308
     6   6 C        3.107    -0.005    28.007     8.671
     7   6 C        3.345     0.210    21.323     7.290
     8   8 O        0.856    -0.388    21.451     6.210
     9   7 N        2.417    -0.131    23.942     7.266
    10   6 C        2.791     0.048    26.907     8.497
    11   6 C        2.730     0.327    21.439     7.580
    12   8 O        0.858    -0.340    20.516     6.073
    13   7 N        2.738    -0.059    22.379     7.026
    14   6 C        3.699    -0.072    22.045     6.715
    15   1 H        0.924     0.109     1.703     2.041
    16   1 H        0.925     0.104     1.750     2.069
    17   1 H        0.924     0.137     1.480     1.903
    18   1 H        0.926     0.125     1.575     1.963
    19   1 H        0.925     0.144     1.435     1.873
    20   1 H        0.925     0.124     1.578     1.964
    21   1 H        0.921     0.061     2.193     2.316
    22   1 H        0.925     0.081     1.968     2.194
    23   1 H        0.924     0.080     1.980     2.200
    24   1 H        0.925     0.123     1.589     1.971
    25   1 H        0.860     0.230     0.963     1.538

Wiberg/Mayer (AO) data.
largest (>0.10) Wiberg bond orders for each atom

     #   Z sym  total        # sym  WBO       # sym  WBO       # sym  WBO
 ---------------------------------------------------------------------------
     1   6 C    3.915 --     2 N    0.984    16 H    0.970    17 H    0.957
                            15 H    0.955
     2   7 N    3.716 --     3 C    1.382     6 C    1.204     1 C    0.984
     3   6 C    3.890 --     2 N    1.382     4 N    1.297    18 H    0.952
     4   7 N    3.602 --     3 C    1.297     5 C    1.184    25 H    0.917
     5   6 C    3.936 --     6 C    1.423     4 N    1.184    13 N    1.141
     6   6 C    3.894 --     5 C    1.423     2 N    1.204     7 C    0.958
     7   6 C    3.941 --     8 O    1.627     6 C    0.958    21 H    0.889
                             9 N    0.393
     8   8 O    1.916 --     7 C    1.627     9 N    0.138
     9   7 N    3.422 --    10 C    1.748    11 C    1.010     7 C    0.393
                             8 O    0.138
    10   6 C    3.724 --     9 N    1.748    20 H    0.944    19 H    0.942
    11   6 C    3.920 --    12 O    1.728    13 N    1.096     9 N    1.010
    12   8 O    2.050 --    11 C    1.728    13 N    0.143
    13   7 N    3.520 --     5 C    1.141    11 C    1.096    14 C    0.975
                            12 O    0.143
    14   6 C    3.928 --    13 N    0.975    22 H    0.974    23 H    0.969
                            24 H    0.965
    15   1 H    0.987 --     1 C    0.955
    16   1 H    0.988 --     1 C    0.970
    17   1 H    0.980 --     1 C    0.957
    18   1 H    0.983 --     3 C    0.952
    19   1 H    0.976 --    10 C    0.942
    20   1 H    0.978 --    10 C    0.944
    21   1 H    0.957 --     7 C    0.889
    22   1 H    0.990 --    14 C    0.974
    23   1 H    0.990 --    14 C    0.969
    24   1 H    0.984 --    14 C    0.965
    25   1 H    0.946 --     4 N    0.917
 ---------------------------------------------------------------------------

molecular dipole:
                 x           y           z       tot (Debye)
 q only:        2.236      -1.734      -0.162
   full:        2.258      -2.152      -0.151       7.938

           -------------------------------------------------
          | TOTAL ENERGY              -42.154099916965 Eh   |
          | GRADIENT NORM               0.004931574766 Eh/α |
          | HOMO-LUMO GAP               2.140318170400 eV   |
           -------------------------------------------------

 * finished run on 2024/06/05 at 19:58:34.003
