   * xtb version 6.6.1 (8d0f1dd) compiled by 'conda@1efc2f54142f' on 2023-08-01
          program call               : xtb struc.xyz --opt loose --input .xc1 --gfn2

   ID    Z sym.   atoms
    1    6 C      1, 3, 5-7, 10, 11, 14
    2    7 N      2, 4, 9, 13
    3    8 O      8, 12
    4    1 H      15-25
constraining bond 2 3 to    3.9200000 Å, actual value:    1.3199336 Å

          :  Hamiltonian                  GFN2-xTB          :
 * total energy  :   -30.1770454 Eh     change       -0.6650680E-10 Eh
 * total energy  :   -34.4447528 Eh     change       -0.4267707E+01 Eh
 * total energy  :   -38.0794309 Eh     change       -0.3634678E+01 Eh
 * total energy  :   -40.4957683 Eh     change       -0.2416337E+01 Eh
 * total energy  :   -41.6075254 Eh     change       -0.1111757E+01 Eh
 * total energy  :   -41.8179542 Eh     change       -0.2104288E+00 Eh
 * total energy  :   -41.8329862 Eh     change       -0.1503202E-01 Eh
 * total energy  :   -41.8488507 Eh     change       -0.1586448E-01 Eh
 * total energy  :   -41.8774496 Eh     change       -0.2859894E-01 Eh
 * total energy  :   -41.9008821 Eh     change       -0.2343245E-01 Eh
 * total energy  :   -42.0657978 Eh     change       -0.1880484E-03 Eh
 * total energy  :   -42.0660222 Eh     change       -0.2243883E-03 Eh
 * total energy  :   -42.0661823 Eh     change       -0.1601079E-03 Eh
 * total energy  :   -42.0659264 Eh     change        0.2558700E-03 Eh
 * total energy  :   -42.0663327 Eh     change       -0.4062846E-03 Eh
 * total energy  :   -42.0663561 Eh     change       -0.2339015E-04 Eh
 * total energy  :   -42.0664079 Eh     change       -0.5176968E-04 Eh
 * total energy  :   -42.0664591 Eh     change       -0.5117894E-04 Eh
 * total energy  :   -42.0664765 Eh     change       -0.1746958E-04 Eh
   *** GEOMETRY OPTIMIZATION CONVERGED AFTER 81 ITERATIONS ***

 final structure:
================
25
 xtb: 6.6.1 (8d0f1dd)
C            3.42041361132129        0.88342636655313        0.28097833931587
N            2.08124341014002        1.25183022756389        0.34779245595900
C            1.97584366549765       -2.58289894006871       -0.46392155593118
N            1.66631423899166       -1.60038861252307        0.29634090531951
C            0.60375475725252       -0.67220323998503        0.16488960169776
C            0.92621709799865        0.71022450212439        0.26627152765486
C           -0.22268781897407        1.68873089345135        0.25118728594426
O           -0.07173384075138        2.85668740714829        0.47356121500705
N           -1.44916853683374        1.13977366737285       -0.06911161214601
C           -2.58715652104649        2.04195585488656       -0.19723489605037
C           -1.73067844075095       -0.19325051627142       -0.24525484499055
O           -2.82471457315649       -0.60436082369371       -0.51214548056651
N           -0.65465119725974       -1.09597966490929       -0.05955853817730
C           -1.02323833020234       -2.49825078769962       -0.08854878674525
H            3.82888452906089        0.80367939061576        1.29538838009553
H            3.62624642758390       -0.03909310112934       -0.27765975508018
H            3.95462987018858        1.71405262319062       -0.19430326782287
H            1.37097901197944       -2.82323981540384       -1.33090389399676
H           -2.21562615464157        3.06400027701207       -0.20649093640269
H           -3.12417998073999        1.81705254754523       -1.11812669147618
H           -3.26956772016193        1.90453530890150        0.64243669937335
H           -0.39112081406096       -3.08092884680207        0.57842414664366
H           -0.96064906508486       -2.89443269310034       -1.10407662753882
H           -2.06455546929005       -2.57916998251109        0.22534692146429
H            2.29563335704001       -1.39351350066929        1.07589102635008

          :  Hamiltonian                  GFN2-xTB          :
         :: total energy             -42.066476529122 Eh    ::
         :: gradient norm              0.002336238071 Eh/a0 ::
         :: HOMO-LUMO gap              0.599652070459 eV    ::
         :: SCC energy               -42.583849702433 Eh    ::
         :: -> dispersion             -0.022377985017 Eh    ::
         :: repulsion energy           0.517229731247 Eh    ::

    * Orbital Energies and Occupations

         #    Occupation            Energy/Eh            Energy/eV
      -------------------------------------------------------------
         1        2.0000           -0.9003689             -24.5003
       ...           ...                  ...                  ...
        25        1.9999           -0.6826403             -18.5756
        26        1.9999           -0.6750983             -18.3704
        27        1.9996           -0.6588100             -17.9271
        28        1.9993           -0.6510036             -17.7147
        29        1.9990           -0.6441517             -17.5283
        30        1.9986           -0.6392613             -17.3952
        31        1.9938           -0.6158153             -16.7572
        32        1.9914           -0.6107619             -16.6197
        33        1.9855           -0.6023926             -16.3919
        34        1.9554           -0.5843252             -15.9003
        35        1.9445           -0.5808003             -15.8044
        36        1.7052           -0.5522682             -15.0280
        37        1.5183           -0.5426565             -14.7664 (HOMO)
        38        0.8787           -0.5206196             -14.1668 (LUMO)
        39        0.0284           -0.4573411             -12.4449
        40        0.0024           -0.4180123             -11.3747
        41        0.0004           -0.3914054             -10.6507
        42        0.0000           -0.3093995              -8.4192
        43                         -0.2183184              -5.9407
        44                         -0.1797192              -4.8904
        45                         -0.1592823              -4.3343
        46                         -0.1138578              -3.0982
        47                         -0.0896515              -2.4395
        48                         -0.0385381              -1.0487
       ...                                ...                  ...
        67                          0.5694839              15.4964
      -------------------------------------------------------------
                  HL-Gap            0.0220368 Eh            0.5997 eV

     #   Z          covCN         q      C6AA      α(0)
     1   6 C        3.684    -0.054    21.760     6.679
     2   7 N        1.837    -0.097    23.888     7.243
     3   6 C        1.846    -0.069    33.041     9.286
     4   7 N        2.685    -0.002    21.308     6.856
     5   6 C        2.837     0.085    26.092     8.371
     6   6 C        2.883     0.047    26.945     8.510
     7   6 C        2.776     0.274    22.372     7.747
     8   8 O        0.858    -0.285    19.521     5.924
     9   7 N        2.737    -0.068    22.552     7.053
    10   6 C        3.709    -0.065    21.898     6.688
    11   6 C        2.725     0.317    21.607     7.610
    12   8 O        0.859    -0.335    20.430     6.060
    13   7 N        2.738    -0.024    21.707     6.920
    14   6 C        3.702    -0.070    21.997     6.706
    15   1 H        0.924     0.121     1.607     1.982
    16   1 H        0.923     0.081     1.972     2.196
    17   1 H        0.924     0.133     1.509     1.921
    18   1 H        0.925     0.110     1.700     2.039
    19   1 H        0.925     0.120     1.614     1.987
    20   1 H        0.925     0.112     1.679     2.026
    21   1 H        0.924     0.108     1.713     2.047
    22   1 H        0.925     0.092     1.863     2.135
    23   1 H        0.924     0.106     1.730     2.057
    24   1 H        0.924     0.128     1.551     1.948
    25   1 H        0.859     0.236     0.939     1.518

Wiberg/Mayer (AO) data.
largest (>0.10) Wiberg bond orders for each atom

     #   Z sym  total        # sym  WBO       # sym  WBO       # sym  WBO
 ---------------------------------------------------------------------------
     1   6 C    3.904 --     2 N    1.096    16 H    0.930    17 H    0.919
                            15 H    0.909
     2   7 N    2.800 --     6 C    1.586     1 C    1.096
     3   6 C    2.698 --     4 N    1.657    18 H    0.928
     4   7 N    3.645 --     3 C    1.657     5 C    1.023    25 H    0.892
     5   6 C    3.635 --    13 N    1.268     6 C    1.180     4 N    1.023
     6   6 C    3.917 --     2 N    1.586     5 C    1.180     7 C    0.937
     7   6 C    3.918 --     8 O    1.765     9 N    1.123     6 C    0.937
     8   8 O    2.055 --     7 C    1.765     9 N    0.137
     9   7 N    3.541 --    11 C    1.128     7 C    1.123    10 C    0.964
                             8 O    0.137    12 O    0.129
    10   6 C    3.884 --    19 H    0.964     9 N    0.964    20 H    0.958
                            21 H    0.953
    11   6 C    3.937 --    12 O    1.708     9 N    1.128    13 N    1.017
    12   8 O    2.017 --    11 C    1.708     9 N    0.129
    13   7 N    3.494 --     5 C    1.268    11 C    1.017    14 C    0.979
    14   6 C    3.908 --    13 N    0.979    22 H    0.968    24 H    0.957
                            23 H    0.950
    15   1 H    0.948 --     1 C    0.909
    16   1 H    0.947 --     1 C    0.930
    17   1 H    0.941 --     1 C    0.919
    18   1 H    0.953 --     3 C    0.928
    19   1 H    0.981 --    10 C    0.964
    20   1 H    0.976 --    10 C    0.958
    21   1 H    0.973 --    10 C    0.953
    22   1 H    0.986 --    14 C    0.968
    23   1 H    0.972 --    14 C    0.950
    24   1 H    0.978 --    14 C    0.957
    25   1 H    0.926 --     4 N    0.892
 ---------------------------------------------------------------------------

molecular dipole:
                 x           y           z       tot (Debye)
 q only:        1.670      -1.306       0.307
   full:        1.692      -1.498       0.309       5.797

           -------------------------------------------------
          | TOTAL ENERGY              -42.066476529122 Eh   |
          | GRADIENT NORM               0.002336238071 Eh/α |
          | HOMO-LUMO GAP               0.599652070459 eV   |
           -------------------------------------------------

 * finished run on 2024/06/05 at 19:57:50.112
