   * xtb version 6.6.1 (8d0f1dd) compiled by 'conda@1efc2f54142f' on 2023-08-01
          program call               : xtb struc.xyz --opt loose --input .xc1 --gfn2

   ID    Z sym.   atoms
    1    6 C      1, 3, 5-7, 10, 11, 14
    2    7 N      2, 4, 9, 13
    3    8 O      8, 12
    4    1 H      15-25
constraining bond 11 20 to    3.7133300 Å, actual value:    2.6644824 Å

          :  Hamiltonian                  GFN2-xTB          :
 * total energy  :   -44.2095137 Eh     change       -0.6633627E-10 Eh
 * total energy  :   -47.8324004 Eh     change       -0.3622887E+01 Eh
 * total energy  :   -53.2796426 Eh     change       -0.5447242E+01 Eh
 * total energy  :   -59.3774758 Eh     change       -0.6097833E+01 Eh
 * total energy  :   -56.6671505 Eh     change        0.2710325E+01 Eh
 * total energy  :   -59.4891032 Eh     change       -0.2821953E+01 Eh
 * total energy  :   -59.5081966 Eh     change       -0.1909335E-01 Eh
 * total energy  :   -59.5436721 Eh     change       -0.3547554E-01 Eh
 * total energy  :   -59.5609584 Eh     change       -0.1728629E-01 Eh
 * total energy  :   -59.5966209 Eh     change       -0.3566245E-01 Eh
 * total energy  :   -59.7278086 Eh     change       -0.7369046E-04 Eh
 * total energy  :   -59.7278740 Eh     change       -0.6534020E-04 Eh
 * total energy  :   -59.7279379 Eh     change       -0.6391623E-04 Eh
 * total energy  :   -59.7280042 Eh     change       -0.6630257E-04 Eh
 * total energy  :   -59.7280849 Eh     change       -0.8070258E-04 Eh
 * total energy  :   -59.7281124 Eh     change       -0.2751508E-04 Eh
 * total energy  :   -59.7192804 Eh     change        0.8832045E-02 Eh
 * total energy  :   -59.7282030 Eh     change       -0.8922622E-02 Eh
 * total energy  :   -59.7282274 Eh     change       -0.2438581E-04 Eh
   *** GEOMETRY OPTIMIZATION CONVERGED AFTER 46 ITERATIONS ***

 final structure:
================
25
 xtb: 6.6.1 (8d0f1dd)
C            3.21700374761244        1.13900966361653       -0.08205521844071
N            2.20800586421485        0.11267770307276       -0.08979271995281
C            2.43631960167668       -1.18115988504495       -0.05960980012629
N            1.26898271248958       -1.85320014060368       -0.07368458873503
C            0.23354654247823       -0.94787797271400       -0.12450829648887
C            0.84140492968767        0.32471423029928       -0.11592418737735
C            0.18886501341178        1.59632699929422        0.10288291339441
O            0.72621975181290        2.66055761708486        0.27402454463001
N           -1.22426917571609        1.40509221159404        0.16037729671596
C           -2.01826348083812        2.28539223484799        0.59125195568607
C           -2.02581065217490       -0.15623561471561       -0.82106672772147
O           -3.16453556969038       -0.27426092048859       -0.41259933048388
N           -1.04855986193157       -1.23945855771041       -0.18055977999738
C           -1.59672753360149       -2.53404106973328        0.13500574753569
H            3.53970268613076        1.34276773470810        0.94043457016671
H            4.07678929898388        0.81914758193118       -0.66792546087784
H            2.80700610076858        2.05889103782777       -0.49351764388689
H            3.40627909887226       -1.63969023502952       -0.02684290464802
H           -1.68874896427510        3.26231556271942        0.93443084289989
H           -1.83404198832946        0.01366101900650       -1.15906048446820
H           -3.07322845842771        2.03739780197624        0.59696741491920
H           -1.16243694979400       -2.92927096212910        1.05208570343680
H           -1.45453835931344       -3.24217678349974       -0.68438650890226
H           -2.66647781681848       -2.38472119614014        0.28712420678660
H            1.16794497687114       -2.85761951856980       -0.05187992616439

          :  Hamiltonian                  GFN2-xTB          :
         :: total energy             -59.728227385734 Eh    ::
         :: gradient norm              0.002574115185 Eh/a0 ::
         :: HOMO-LUMO gap              2.013432056949 eV    ::
         :: SCC energy               -42.692278859551 Eh    ::
         :: -> dispersion             -0.022994325646 Eh    ::
         :: repulsion energy           2.281365202372 Eh    ::

    * Orbital Energies and Occupations

         #    Occupation            Energy/Eh            Energy/eV
      -------------------------------------------------------------
         1        2.0000           -0.9066591             -24.6714
       ...           ...                  ...                  ...
        25        2.0000           -0.6687947             -18.1988
        26        2.0000           -0.6610506             -17.9881
        27        2.0000           -0.6538291             -17.7916
        28        2.0000           -0.6398622             -17.4115
        29        2.0000           -0.6355972             -17.2955
        30        2.0000           -0.6323938             -17.2083
        31        2.0000           -0.6159999             -16.7622
        32        2.0000           -0.6143975             -16.7186
        33        2.0000           -0.6084462             -16.5567
        34        1.9999           -0.5783899             -15.7388
        35        1.9995           -0.5621788             -15.2977
        36        1.9979           -0.5502636             -14.9734
        37        1.9827           -0.5336116             -14.5203 (HOMO)
        38        0.0198           -0.4596193             -12.5069 (LUMO)
        39        0.0001           -0.4160776             -11.3220
        40        0.0000           -0.4016872             -10.9305
        41                         -0.3579533              -9.7404
        42                         -0.3062919              -8.3346
        43                         -0.2352581              -6.4017
        44                         -0.1898183              -5.1652
        45                         -0.1465404              -3.9876
        46                         -0.1015338              -2.7629
        47                         -0.0879566              -2.3934
        48                         -0.0383773              -1.0443
       ...                                ...                  ...
        67                         10.6830233             290.6999
      -------------------------------------------------------------
                  HL-Gap            0.0739923 Eh            2.0134 eV

     #   Z          covCN         q      C6AA      α(0)
     1   6 C        3.694    -0.093    22.458     6.780
     2   7 N        2.832     0.088    19.719     6.595
     3   6 C        3.027     0.061    26.596     8.459
     4   7 N        2.798    -0.069    22.573     7.056
     5   6 C        2.989     0.129    25.169     8.229
     6   6 C        3.100    -0.036    28.765     8.789
     7   6 C        2.772     0.287    22.145     7.707
     8   8 O        0.857    -0.340    20.515     6.073
     9   7 N        2.163    -0.158    24.930     7.409
    10   6 C        2.787     0.067    26.490     8.431
    11   6 C        3.007     0.204    23.668     7.980
    12   8 O        0.863    -0.334    20.402     6.056
    13   7 N        2.710    -0.112    23.446     7.191
    14   6 C        3.692    -0.065    21.932     6.701
    15   1 H        0.924     0.113     1.668     2.020
    16   1 H        0.925     0.102     1.766     2.078
    17   1 H        0.925     0.131     1.526     1.932
    18   1 H        0.926     0.123     1.591     1.972
    19   1 H        0.925     0.117     1.635     2.000
    20   1 H        0.938     0.161     1.318     1.795
    21   1 H        0.925     0.134     1.507     1.920
    22   1 H        0.925     0.072     2.069     2.249
    23   1 H        0.924     0.072     2.060     2.245
    24   1 H        0.924     0.117     1.636     2.000
    25   1 H        0.860     0.228     0.975     1.547

Wiberg/Mayer (AO) data.
largest (>0.10) Wiberg bond orders for each atom

     #   Z sym  total        # sym  WBO       # sym  WBO       # sym  WBO
 ---------------------------------------------------------------------------
     1   6 C    3.919 --     2 N    0.986    16 H    0.969    17 H    0.962
                            15 H    0.953
     2   7 N    3.728 --     3 C    1.444     6 C    1.142     1 C    0.986
     3   6 C    3.932 --     2 N    1.444     4 N    1.280    18 H    0.951
     4   7 N    3.598 --     3 C    1.280     5 C    1.156    25 H    0.919
     5   6 C    3.962 --    13 N    1.347     6 C    1.276     4 N    1.156
     6   6 C    3.911 --     5 C    1.276     2 N    1.142     7 C    1.108
     7   6 C    3.952 --     8 O    1.751     6 C    1.108     9 N    0.986
     8   8 O    2.094 --     7 C    1.751
     9   7 N    3.391 --    10 C    1.867     7 C    0.986    11 C    0.282
                            12 O    0.128
    10   6 C    3.865 --     9 N    1.867    21 H    0.948    19 H    0.943
    11   6 C    3.926 --    12 O    1.820    20 H    0.960    13 N    0.783
                             9 N    0.282
    12   8 O    2.170 --    11 C    1.820    13 N    0.134     9 N    0.128
    13   7 N    3.514 --     5 C    1.347    14 C    0.993    11 C    0.783
                            12 O    0.134
    14   6 C    3.942 --    13 N    0.993    22 H    0.972    23 H    0.967
                            24 H    0.962
    15   1 H    0.987 --     1 C    0.953
    16   1 H    0.989 --     1 C    0.969
    17   1 H    0.983 --     1 C    0.962
    18   1 H    0.984 --     3 C    0.951
    19   1 H    0.985 --    10 C    0.943
    20   1 H    0.974 --    11 C    0.960
    21   1 H    0.981 --    10 C    0.948
    22   1 H    0.992 --    14 C    0.972
    23   1 H    0.991 --    14 C    0.967
    24   1 H    0.985 --    14 C    0.962
    25   1 H    0.948 --     4 N    0.919
 ---------------------------------------------------------------------------

molecular dipole:
                 x           y           z       tot (Debye)
 q only:        2.177      -1.398      -0.109
   full:        2.468      -1.628      -0.061       7.516

           -------------------------------------------------
          | TOTAL ENERGY              -59.728227385734 Eh   |
          | GRADIENT NORM               0.002574115185 Eh/α |
          | HOMO-LUMO GAP               2.013432056949 eV   |
           -------------------------------------------------

 * finished run on 2024/06/05 at 19:58:15.743
