   * xtb version 6.6.1 (8d0f1dd) compiled by 'conda@1efc2f54142f' on 2023-08-01
          program call               : xtb xtbopt.xyz --opt crude --input .xc2 --gfn2

   ID    Z sym.   atoms
    1    6 C      1, 3, 5-7, 10, 11, 14
    2    7 N      2, 4, 9, 13
    3    8 O      8, 12
    4    1 H      15-25
########################################################################
[WARNING] Please study the warnings concerning your input carefully
-1- readin_getIntValue: could not parse ''
########################################################################

          :  Hamiltonian                  GFN2-xTB          :
 * total energy  :   -40.4107594 Eh     change        0.1421085E-12 Eh
 * total energy  :   -42.0832450 Eh     change       -0.1672486E+01 Eh
 * total energy  :   -42.1266940 Eh     change       -0.4344902E-01 Eh
 * total energy  :   -42.1377607 Eh     change       -0.1106668E-01 Eh
 * total energy  :   -42.1406972 Eh     change       -0.2936452E-02 Eh
 * total energy  :   -42.1411267 Eh     change       -0.4295706E-03 Eh
 * total energy  :   -42.1417492 Eh     change       -0.6224536E-03 Eh
 * total energy  :   -42.1426170 Eh     change       -0.8678701E-03 Eh
 * total energy  :   -42.1432930 Eh     change       -0.6759898E-03 Eh
 * total energy  :   -42.1435143 Eh     change       -0.2212571E-03 Eh
   *** GEOMETRY OPTIMIZATION CONVERGED AFTER 10 ITERATIONS ***

 final structure:
================
25
 xtb: 6.6.1 (8d0f1dd)
C            3.19836701253738        1.13784519783779       -0.07543500313684
N            2.20007888746309        0.10253196295664       -0.10753541926579
C            2.42632568511651       -1.19315632693589       -0.11048077142260
N            1.25606009166261       -1.86154556383900       -0.12040582706382
C            0.22921929255885       -0.95233938901047       -0.12882249994593
C            0.83564326883029        0.31477011190115       -0.10155416203228
C            0.16853971377169        1.58489979702597        0.14341088266605
O            0.70460490105393        2.65252410122775        0.28807814484272
N           -1.22660367491645        1.35265775513970        0.26951701927735
C           -2.04032848199136        2.24241391777939        0.64421770351225
C           -1.98170496102910       -0.22725977682537       -0.72615967570792
O           -3.14845894919748       -0.26050423995928       -0.47429434253739
N           -1.06772553944460       -1.23002337951033       -0.18766023560174
C           -1.61563894042728       -2.50991142256314        0.20963403825630
H            3.45159445575510        1.38436776471086        0.95839326664124
H            4.09774086759553        0.80695989677705       -0.59266672419784
H            2.80529654179300        2.03820335175633       -0.54503928380365
H            3.39333031468044       -1.65869601034643       -0.10815488784321
H           -1.74335909255319        3.26120009969874        0.87542552709948
H           -1.52340809509032        0.21495527542515       -1.62656989136966
H           -3.08064297871000        1.95589769949233        0.72856618381908
H           -1.16973550149759       -2.84527495782328        1.14499465956132
H           -1.47514328120207       -3.26465851917707       -0.56685255688960
H           -2.68516128438143       -2.36126678614721        0.35881704166981
H            1.15154126172246       -2.86635201799130       -0.11825156862745

          :  Hamiltonian                  GFN2-xTB          :
         :: total energy             -42.143514294990 Eh    ::
         :: gradient norm              0.005777580673 Eh/a0 ::
         :: HOMO-LUMO gap              2.001709539940 eV    ::
         :: SCC energy               -42.680240844263 Eh    ::
         :: -> dispersion             -0.023211932909 Eh    ::
         :: repulsion energy           0.536562401004 Eh    ::

    * Orbital Energies and Occupations

         #    Occupation            Energy/Eh            Energy/eV
      -------------------------------------------------------------
         1        2.0000           -0.9127185             -24.8363
       ...           ...                  ...                  ...
        25        2.0000           -0.6686022             -18.1936
        26        2.0000           -0.6577288             -17.8977
        27        2.0000           -0.6482971             -17.6411
        28        2.0000           -0.6398589             -17.4114
        29        2.0000           -0.6362003             -17.3119
        30        2.0000           -0.6226379             -16.9428
        31        2.0000           -0.6192620             -16.8510
        32        2.0000           -0.6170601             -16.7911
        33        2.0000           -0.6117872             -16.6476
        34        1.9999           -0.5770095             -15.7012
        35        1.9984           -0.5517438             -15.0137
        36        1.9976           -0.5487542             -14.9324
        37        1.9828           -0.5330362             -14.5047 (HOMO)
        38        0.0211           -0.4594747             -12.5029 (LUMO)
        39        0.0001           -0.4187837             -11.3957
        40        0.0000           -0.4023967             -10.9498
        41                         -0.3350208              -9.1164
        42                         -0.3083490              -8.3906
        43                         -0.1949549              -5.3050
        44                         -0.1812406              -4.9318
        45                         -0.1341073              -3.6492
        46                         -0.0900515              -2.4504
        47                         -0.0752651              -2.0481
        48                         -0.0409760              -1.1150
       ...                                ...                  ...
        67                          0.5524004              15.0316
      -------------------------------------------------------------
                  HL-Gap            0.0735615 Eh            2.0017 eV

     #   Z          covCN         q      C6AA      α(0)
     1   6 C        3.693    -0.093    22.460     6.781
     2   7 N        2.835     0.091    19.673     6.588
     3   6 C        3.035     0.060    26.627     8.464
     4   7 N        2.800    -0.062    22.437     7.035
     5   6 C        3.010     0.123    25.279     8.247
     6   6 C        3.107    -0.031    28.632     8.767
     7   6 C        2.774     0.290    22.084     7.697
     8   8 O        0.857    -0.334    20.411     6.057
     9   7 N        2.159    -0.165    25.105     7.435
    10   6 C        2.789     0.068    26.469     8.427
    11   6 C        3.030     0.254    22.724     7.819
    12   8 O        0.856    -0.339    20.498     6.070
    13   7 N        2.730    -0.061    22.418     7.032
    14   6 C        3.695    -0.070    22.023     6.713
    15   1 H        0.924     0.116     1.644     2.005
    16   1 H        0.925     0.103     1.755     2.072
    17   1 H        0.925     0.132     1.521     1.928
    18   1 H        0.926     0.126     1.566     1.957
    19   1 H        0.925     0.113     1.672     2.022
    20   1 H        0.923     0.042     2.424     2.435
    21   1 H        0.925     0.133     1.515     1.925
    22   1 H        0.925     0.075     2.030     2.228
    23   1 H        0.924     0.077     2.015     2.220
    24   1 H        0.925     0.123     1.590     1.972
    25   1 H        0.860     0.231     0.962     1.536

Wiberg/Mayer (AO) data.
largest (>0.10) Wiberg bond orders for each atom

     #   Z sym  total        # sym  WBO       # sym  WBO       # sym  WBO
 ---------------------------------------------------------------------------
     1   6 C    3.918 --     2 N    0.986    16 H    0.970    17 H    0.961
                            15 H    0.951
     2   7 N    3.730 --     3 C    1.440     6 C    1.151     1 C    0.986
     3   6 C    3.931 --     2 N    1.440     4 N    1.281    18 H    0.951
     4   7 N    3.605 --     3 C    1.281     5 C    1.173    25 H    0.918
     5   6 C    3.961 --     6 C    1.306    13 N    1.292     4 N    1.173
     6   6 C    3.920 --     5 C    1.306     2 N    1.151     7 C    1.084
     7   6 C    3.951 --     8 O    1.763     6 C    1.084     9 N    1.002
     8   8 O    2.096 --     7 C    1.763
     9   7 N    3.358 --    10 C    1.853     7 C    1.002    11 C    0.250
                            12 O    0.111
    10   6 C    3.870 --     9 N    1.853    21 H    0.948    19 H    0.944
    11   6 C    3.942 --    12 O    1.780    13 N    0.930    20 H    0.911
                             9 N    0.250
    12   8 O    2.117 --    11 C    1.780     9 N    0.111
    13   7 N    3.545 --     5 C    1.292    14 C    0.976    11 C    0.930
    14   6 C    3.934 --    13 N    0.976    22 H    0.975    23 H    0.969
                            24 H    0.963
    15   1 H    0.986 --     1 C    0.951
    16   1 H    0.989 --     1 C    0.970
    17   1 H    0.983 --     1 C    0.961
    18   1 H    0.983 --     3 C    0.951
    19   1 H    0.985 --    10 C    0.944
    20   1 H    0.995 --    11 C    0.911
    21   1 H    0.981 --    10 C    0.948
    22   1 H    0.993 --    14 C    0.975
    23   1 H    0.991 --    14 C    0.969
    24   1 H    0.984 --    14 C    0.963
    25   1 H    0.946 --     4 N    0.918
 ---------------------------------------------------------------------------

molecular dipole:
                 x           y           z       tot (Debye)
 q only:        2.420      -1.647       0.103
   full:        2.728      -1.825       0.078       8.346

           -------------------------------------------------
          | TOTAL ENERGY              -42.143514294990 Eh   |
          | GRADIENT NORM               0.005777580673 Eh/α |
          | HOMO-LUMO GAP               2.001709539940 eV   |
           -------------------------------------------------

 * finished run on 2024/06/05 at 19:58:16.185
