   * xtb version 6.6.1 (8d0f1dd) compiled by 'conda@1efc2f54142f' on 2023-08-01
          program call               : xtb xtbopt.xyz --opt crude --input .xc2 --gfn2

   ID    Z sym.   atoms
    1    6 C      1, 3, 5-7, 10, 11, 14
    2    7 N      2, 4, 9, 13
    3    8 O      8, 12
    4    1 H      15-25
########################################################################
[WARNING] Please study the warnings concerning your input carefully
-1- readin_getIntValue: could not parse ''
########################################################################

          :  Hamiltonian                  GFN2-xTB          :
 * total energy  :   -42.0664790 Eh     change       -0.8277823E-11 Eh
   *** GEOMETRY OPTIMIZATION CONVERGED AFTER 1 ITERATIONS ***

 final structure:
================
25
 xtb: 6.6.1 (8d0f1dd)
C            3.42040686044609        0.88342058092412        0.28095766610815
N            2.08123675126848        1.25182301201353        0.34776509624378
C            1.97587464635390       -2.58293560744338       -0.46381533050246
N            1.66633006155431       -1.60033646284858        0.29632241360409
C            0.60375678869464       -0.67220574780884        0.16486613143397
C            0.92620615498393        0.71023392155306        0.26627648146654
C           -0.22270924038474        1.68872308871287        0.25126118806450
O           -0.07177541555313        2.85665702605454        0.47373266686992
N           -1.44917154725674        1.13977813602229       -0.06910867788029
C           -2.58715068876624        2.04196793204143       -0.19725947331338
C           -1.73068139813756       -0.19324933718629       -0.24525921071414
O           -2.82471430224649       -0.60436100135095       -0.51216129791332
N           -0.65465553244539       -1.09597590747392       -0.05955810495055
C           -1.02324765880263       -2.49824793622632       -0.08857699406594
H            3.82885347620009        0.80360311456201        1.29534593434741
H            3.62624882257867       -0.03905272861882       -0.27771899795996
H            3.95464397606780        1.71405173035405       -0.19425904354313
H            1.37096331676410       -2.82344125306818       -1.33071796626162
H           -2.21561332441450        3.06401086549413       -0.20649484237013
H           -3.12414296111948        1.81707155198478       -1.11817059776980
H           -3.26959159466686        1.90454904325891        0.64238736621138
H           -0.39105041900714       -3.08095391832008        0.57828073092417
H           -0.96079040726661       -2.89436470826967       -1.10412892965403
H           -2.06451894916622       -2.57919028958729        0.22544064270291
H            2.29572409842167       -1.39333656317162        1.07576476682239

          :  Hamiltonian                  GFN2-xTB          :
         :: total energy             -42.066478955885 Eh    ::
         :: gradient norm              0.004620925676 Eh/a0 ::
         :: HOMO-LUMO gap              0.599622495181 eV    ::
         :: SCC energy               -42.583867282779 Eh    ::
         :: -> dispersion             -0.022377980884 Eh    ::
         :: repulsion energy           0.517247109213 Eh    ::

    * Orbital Energies and Occupations

         #    Occupation            Energy/Eh            Energy/eV
      -------------------------------------------------------------
         1        2.0000           -0.9003692             -24.5003
       ...           ...                  ...                  ...
        25        1.9999           -0.6826420             -18.5756
        26        1.9999           -0.6750980             -18.3704
        27        1.9996           -0.6588125             -17.9272
        28        1.9993           -0.6510050             -17.7147
        29        1.9990           -0.6441532             -17.5283
        30        1.9986           -0.6392619             -17.3952
        31        1.9938           -0.6158156             -16.7572
        32        1.9914           -0.6107638             -16.6197
        33        1.9855           -0.6023928             -16.3919
        34        1.9554           -0.5843259             -15.9003
        35        1.9445           -0.5808002             -15.8044
        36        1.7052           -0.5522678             -15.0280
        37        1.5183           -0.5426561             -14.7664 (HOMO)
        38        0.8788           -0.5206204             -14.1668 (LUMO)
        39        0.0284           -0.4573413             -12.4449
        40        0.0024           -0.4180074             -11.3746
        41        0.0004           -0.3914055             -10.6507
        42        0.0000           -0.3093992              -8.4192
        43                         -0.2183145              -5.9406
        44                         -0.1797050              -4.8900
        45                         -0.1592814              -4.3343
        46                         -0.1138598              -3.0983
        47                         -0.0896358              -2.4391
        48                         -0.0385392              -1.0487
       ...                                ...                  ...
        67                          0.5694969              15.4968
      -------------------------------------------------------------
                  HL-Gap            0.0220357 Eh            0.5996 eV

     #   Z          covCN         q      C6AA      α(0)
     1   6 C        3.684    -0.054    21.760     6.679
     2   7 N        1.837    -0.097    23.888     7.243
     3   6 C        1.846    -0.069    33.041     9.286
     4   7 N        2.685    -0.002    21.308     6.856
     5   6 C        2.837     0.085    26.092     8.371
     6   6 C        2.883     0.047    26.945     8.510
     7   6 C        2.776     0.274    22.372     7.747
     8   8 O        0.858    -0.285    19.521     5.924
     9   7 N        2.737    -0.068    22.552     7.053
    10   6 C        3.709    -0.065    21.898     6.688
    11   6 C        2.725     0.317    21.607     7.610
    12   8 O        0.859    -0.335    20.430     6.060
    13   7 N        2.738    -0.024    21.707     6.920
    14   6 C        3.702    -0.070    21.997     6.706
    15   1 H        0.924     0.121     1.607     1.982
    16   1 H        0.923     0.081     1.972     2.196
    17   1 H        0.924     0.133     1.509     1.921
    18   1 H        0.925     0.110     1.700     2.039
    19   1 H        0.925     0.120     1.614     1.987
    20   1 H        0.925     0.112     1.679     2.026
    21   1 H        0.924     0.108     1.713     2.047
    22   1 H        0.925     0.092     1.863     2.135
    23   1 H        0.924     0.106     1.730     2.057
    24   1 H        0.924     0.128     1.551     1.948
    25   1 H        0.859     0.236     0.939     1.518

Wiberg/Mayer (AO) data.
largest (>0.10) Wiberg bond orders for each atom

     #   Z sym  total        # sym  WBO       # sym  WBO       # sym  WBO
 ---------------------------------------------------------------------------
     1   6 C    3.904 --     2 N    1.096    16 H    0.930    17 H    0.919
                            15 H    0.909
     2   7 N    2.800 --     6 C    1.586     1 C    1.096
     3   6 C    2.698 --     4 N    1.657    18 H    0.928
     4   7 N    3.645 --     3 C    1.657     5 C    1.023    25 H    0.892
     5   6 C    3.635 --    13 N    1.268     6 C    1.180     4 N    1.023
     6   6 C    3.917 --     2 N    1.586     5 C    1.180     7 C    0.937
     7   6 C    3.918 --     8 O    1.765     9 N    1.123     6 C    0.937
     8   8 O    2.055 --     7 C    1.765     9 N    0.137
     9   7 N    3.541 --    11 C    1.128     7 C    1.123    10 C    0.964
                             8 O    0.137    12 O    0.129
    10   6 C    3.884 --    19 H    0.964     9 N    0.964    20 H    0.958
                            21 H    0.953
    11   6 C    3.937 --    12 O    1.708     9 N    1.128    13 N    1.017
    12   8 O    2.017 --    11 C    1.708     9 N    0.129
    13   7 N    3.494 --     5 C    1.268    11 C    1.017    14 C    0.979
    14   6 C    3.908 --    13 N    0.979    22 H    0.968    24 H    0.957
                            23 H    0.950
    15   1 H    0.948 --     1 C    0.909
    16   1 H    0.947 --     1 C    0.930
    17   1 H    0.941 --     1 C    0.919
    18   1 H    0.953 --     3 C    0.928
    19   1 H    0.981 --    10 C    0.964
    20   1 H    0.976 --    10 C    0.958
    21   1 H    0.973 --    10 C    0.953
    22   1 H    0.986 --    14 C    0.968
    23   1 H    0.972 --    14 C    0.950
    24   1 H    0.978 --    14 C    0.957
    25   1 H    0.926 --     4 N    0.892
 ---------------------------------------------------------------------------

molecular dipole:
                 x           y           z       tot (Debye)
 q only:        1.670      -1.306       0.306
   full:        1.692      -1.498       0.309       5.797

           -------------------------------------------------
          | TOTAL ENERGY              -42.066478955885 Eh   |
          | GRADIENT NORM               0.004620925676 Eh/α |
          | HOMO-LUMO GAP               0.599622495181 eV   |
           -------------------------------------------------

 * finished run on 2024/06/05 at 19:57:52.947
