   * xtb version 6.6.1 (8d0f1dd) compiled by 'conda@1efc2f54142f' on 2023-08-01
          program call               : xtb struc.xyz --opt loose --input .xc1 --gfn2

   ID    Z sym.   atoms
    1    6 C      1, 3, 5-7, 10, 11, 14
    2    7 N      2, 4, 9, 13
    3    8 O      8, 12
    4    1 H      15-25
constraining bond 4 6 to    4.9200000 Å, actual value:    2.2058558 Å

          :  Hamiltonian                  GFN2-xTB          :
 * total energy  :    10.3651915 Eh     change       -0.6650680E-10 Eh
 * total energy  :   -12.4479324 Eh     change       -0.2281312E+02 Eh
 * total energy  :   -25.7646526 Eh     change       -0.1331672E+02 Eh
 * total energy  :   -34.5309350 Eh     change       -0.8766282E+01 Eh
 * total energy  :   -40.0137051 Eh     change       -0.5482770E+01 Eh
 * total energy  :   -41.3114633 Eh     change       -0.1297758E+01 Eh
 * total energy  :   -41.4564133 Eh     change       -0.1449499E+00 Eh
 * total energy  :   -41.5287445 Eh     change       -0.7233119E-01 Eh
 * total energy  :   -41.5554258 Eh     change       -0.2668135E-01 Eh
 * total energy  :   -41.5392529 Eh     change        0.1617290E-01 Eh
 * total energy  :   -42.0562772 Eh     change       -0.4007738E-04 Eh
 * total energy  :   -42.0563689 Eh     change       -0.9167807E-04 Eh
 * total energy  :   -42.0564147 Eh     change       -0.4577179E-04 Eh
 * total energy  :   -42.0564920 Eh     change       -0.7732524E-04 Eh
 * total energy  :   -42.0565679 Eh     change       -0.7587184E-04 Eh
 * total energy  :   -42.0566491 Eh     change       -0.8118952E-04 Eh
 * total energy  :   -42.0567251 Eh     change       -0.7599652E-04 Eh
 * total energy  :   -42.0567787 Eh     change       -0.5361894E-04 Eh
 * total energy  :   -42.0568246 Eh     change       -0.4595792E-04 Eh
   *** GEOMETRY OPTIMIZATION CONVERGED AFTER 72 ITERATIONS ***

 final structure:
================
25
 xtb: 6.6.1 (8d0f1dd)
C            2.72107368251996        0.52995488405311       -0.28004022519412
N            1.70903130178137       -0.50411327009634       -0.10058458027049
C            2.15762584295397       -1.76584855092124        0.26813855790526
N            1.42751650401806       -2.56106691475488        0.90977676696817
C            0.41530866927513       -0.13428156836546       -0.09031577963150
C            0.68141970257583        2.30196138658307        0.92362260548791
C           -0.06588541720312        1.23389754580942        0.19007483625970
O            0.54225323427222        2.40766688605250       -0.34712311588178
N           -1.47341708883501        1.15385565136320        0.14677797040118
C           -2.37370269904268        2.25084398066269        0.41225277273224
C           -1.87015292927502       -0.11598443429338       -0.11180918101716
O           -2.96650682917866       -0.56591616805967       -0.21870470034839
N           -0.66179476729582       -0.89451871482509       -0.26789749775846
C           -0.78470453374851       -2.26040330228629       -0.68193388359167
H            2.76702338851642        1.18037151875964        0.60014259617836
H            3.69513298709177        0.06326091866215       -0.41217235218891
H            2.50320656242203        1.13358418139494       -1.16187639237312
H            3.20201679902374       -1.93240280974109       -0.00593785174080
H           -2.10301572355539        3.11783571124592       -0.19468059182747
H           -3.37924195379354        1.91897348771943        0.15463390189261
H           -2.33909308676484        2.52529681893738        1.47086925711571
H           -0.42252126823066       -2.92965696133148        0.10524576984993
H           -0.20771894114699       -2.44168213227191       -1.58878499983414
H           -1.84485425490201       -2.44251408959994       -0.86406164647364
H            1.83143233262561       -3.45087551309445        1.17555938123883

          :  Hamiltonian                  GFN2-xTB          :
         :: total energy             -42.056824639456 Eh    ::
         :: gradient norm              0.003078883708 Eh/a0 ::
         :: HOMO-LUMO gap              2.236724175979 eV    ::
         :: SCC energy               -42.548931695900 Eh    ::
         :: -> dispersion             -0.022839453900 Eh    ::
         :: repulsion energy           0.491912942606 Eh    ::

    * Orbital Energies and Occupations

         #    Occupation            Energy/Eh            Energy/eV
      -------------------------------------------------------------
         1        2.0000           -0.9500576             -25.8524
       ...           ...                  ...                  ...
        25        1.9999           -0.6820208             -18.5587
        26        1.9999           -0.6749863             -18.3673
        27        1.9998           -0.6618926             -18.0110
        28        1.9996           -0.6537857             -17.7904
        29        1.9995           -0.6490240             -17.6608
        30        1.9990           -0.6387311             -17.3808
        31        1.9982           -0.6299840             -17.1427
        32        1.9978           -0.6263232             -17.0431
        33        1.9930           -0.6082211             -16.5505
        34        1.9870           -0.5983203             -16.2811
        35        1.9828           -0.5939029             -16.1609
        36        1.8939           -0.5643469             -15.3567
        37        1.8881           -0.5634496             -15.3322 (HOMO)
        38        0.1716           -0.4812515             -13.0955 (LUMO)
        39        0.0889           -0.4701415             -12.7932
        40        0.0011           -0.3994335             -10.8691
        41        0.0001           -0.3615400              -9.8380
        42                         -0.2401390              -6.5345
        43                         -0.2185560              -5.9472
        44                         -0.2011875              -5.4746
        45                         -0.1718877              -4.6773
        46                         -0.1137492              -3.0953
        47                         -0.0949650              -2.5841
        48                         -0.0843827              -2.2962
       ...                                ...                  ...
        67                          0.5646503              15.3649
      -------------------------------------------------------------
                  HL-Gap            0.0821981 Eh            2.2367 eV

     #   Z          covCN         q      C6AA      α(0)
     1   6 C        3.707    -0.074    22.064     6.714
     2   7 N        2.739     0.004    21.186     6.836
     3   6 C        2.770     0.132    25.096     8.204
     4   7 N        1.780    -0.271    27.848     7.815
     5   6 C        2.920     0.118    25.411     8.266
     6   6 C        1.833    -0.014    31.540     9.073
     7   6 C        3.829     0.192    17.542     5.959
     8   8 O        1.703    -0.101    15.854     5.376
     9   7 N        2.778    -0.086    22.921     7.111
    10   6 C        3.689    -0.057    21.806     6.684
    11   6 C        2.821     0.318    21.611     7.617
    12   8 O        0.857    -0.325    20.238     6.032
    13   7 N        2.795    -0.019    21.609     6.904
    14   6 C        3.690    -0.083    22.274     6.754
    15   1 H        0.924     0.100     1.782     2.088
    16   1 H        0.925     0.107     1.720     2.051
    17   1 H        0.924     0.097     1.817     2.108
    18   1 H        0.924     0.075     2.027     2.226
    19   1 H        0.924     0.097     1.817     2.108
    20   1 H        0.925     0.118     1.632     1.998
    21   1 H        0.924     0.100     1.784     2.089
    22   1 H        0.924     0.134     1.502     1.917
    23   1 H        0.925     0.096     1.819     2.109
    24   1 H        0.924     0.134     1.503     1.917
    25   1 H        0.860     0.207     1.069     1.620

Wiberg/Mayer (AO) data.
largest (>0.10) Wiberg bond orders for each atom

     #   Z sym  total        # sym  WBO       # sym  WBO       # sym  WBO
 ---------------------------------------------------------------------------
     1   6 C    3.923 --    17 H    0.971     2 N    0.971    16 H    0.969
                            15 H    0.951
     2   7 N    3.586 --     5 C    1.265     3 C    1.098     1 C    0.971
     3   6 C    3.928 --     4 N    1.843     2 N    1.098    18 H    0.922
     4   7 N    2.980 --     3 C    1.843    25 H    0.923
     5   6 C    3.888 --    13 N    1.355     2 N    1.265     7 C    1.038
     6   6 C    2.427 --     8 O    1.443     7 C    0.830
     7   6 C    3.838 --     5 C    1.038     9 N    1.025     8 O    0.842
                             6 C    0.830
     8   8 O    2.401 --     6 C    1.443     7 C    0.842
     9   7 N    3.460 --    11 C    1.178     7 C    1.025    10 C    0.977
                            12 O    0.168
    10   6 C    3.905 --     9 N    0.977    20 H    0.967    19 H    0.965
                            21 H    0.956
    11   6 C    3.951 --    12 O    1.730     9 N    1.178    13 N    0.949
    12   8 O    2.081 --    11 C    1.730     9 N    0.168
    13   7 N    3.610 --     5 C    1.355    14 C    0.994    11 C    0.949
    14   6 C    3.901 --    13 N    0.994    23 H    0.960    24 H    0.956
                            22 H    0.914
    15   1 H    0.986 --     1 C    0.951
    16   1 H    0.987 --     1 C    0.969
    17   1 H    0.988 --     1 C    0.971
    18   1 H    0.972 --     3 C    0.922
    19   1 H    0.981 --    10 C    0.965
    20   1 H    0.984 --    10 C    0.967
    21   1 H    0.975 --    10 C    0.956
    22   1 H    0.973 --    14 C    0.914
    23   1 H    0.985 --    14 C    0.960
    24   1 H    0.979 --    14 C    0.956
    25   1 H    0.951 --     4 N    0.923
 ---------------------------------------------------------------------------

molecular dipole:
                 x           y           z       tot (Debye)
 q only:        1.446      -0.603      -0.081
   full:        1.922      -0.639      -0.586       5.360

           -------------------------------------------------
          | TOTAL ENERGY              -42.056824639456 Eh   |
          | GRADIENT NORM               0.003078883708 Eh/α |
          | HOMO-LUMO GAP               2.236724175979 eV   |
           -------------------------------------------------

 * finished run on 2024/06/05 at 20:00:10.353
