   * xtb version 6.6.1 (8d0f1dd) compiled by 'conda@1efc2f54142f' on 2023-08-01
          program call               : xtb struc.xyz --opt loose --input .xc1 --gfn2

   ID    Z sym.   atoms
    1    7 N      1, 17
    2    6 C      2-6, 8, 9, 11-16, 18-23, 25, 26, 28-33
    3    8 O      7, 10, 24, 27
    4    1 H      34-72
constraining bond 26 60 to    5.1400000 Å, actual value:    2.7022333 Å

          :  Hamiltonian                  GFN2-xTB          :
 * total energy  :   -98.3430416 Eh     change       -0.4035485E-08 Eh
 * total energy  :   -98.6914389 Eh     change       -0.3483973E+00 Eh
 * total energy  :   -98.9226811 Eh     change       -0.2312422E+00 Eh
 * total energy  :   -99.0493936 Eh     change       -0.1267125E+00 Eh
 * total energy  :   -99.1193087 Eh     change       -0.6991518E-01 Eh
 * total energy  :   -99.1656022 Eh     change       -0.4629349E-01 Eh
 * total energy  :   -99.2065803 Eh     change       -0.4097807E-01 Eh
 * total energy  :   -99.2396410 Eh     change       -0.3306072E-01 Eh
 * total energy  :   -99.2537895 Eh     change       -0.1414847E-01 Eh
 * total energy  :   -99.2603398 Eh     change       -0.6550337E-02 Eh
 * total energy  :   -99.2684503 Eh     change       -0.7826284E-04 Eh
 * total energy  :   -99.2685348 Eh     change       -0.8452584E-04 Eh
 * total energy  :   -99.2686731 Eh     change       -0.1383612E-03 Eh
 * total energy  :   -99.2688261 Eh     change       -0.1529732E-03 Eh
 * total energy  :   -99.2689091 Eh     change       -0.8298494E-04 Eh
 * total energy  :   -99.2690248 Eh     change       -0.1157138E-03 Eh
 * total energy  :   -99.2690983 Eh     change       -0.7348703E-04 Eh
 * total energy  :   -99.2691567 Eh     change       -0.5839261E-04 Eh
 * total energy  :   -99.2692007 Eh     change       -0.4396568E-04 Eh
   *** GEOMETRY OPTIMIZATION CONVERGED AFTER 28 ITERATIONS ***

 final structure:
================
72
 xtb: 6.6.1 (8d0f1dd)
N           -1.93277879541833        2.82693245686664        2.25254808606117
C           -1.86694732508242        2.13571491819649        1.21458191957913
C           -3.00667491398300        1.92382680171876        0.25654012421463
C           -3.47254330027443        0.47733017528776        0.33344904047356
C           -4.41396285086069        0.00663366290615       -0.58423527201622
C           -4.88761303150092       -1.29346096353819       -0.53428713959910
O           -5.80746120016836       -1.81926550355159       -1.36892581681080
C           -6.43710707429297       -0.98503635226104       -2.31272823931285
C           -4.39305746968358       -2.18080332883085        0.45999037692128
O           -4.90114446993101       -3.42848561315835        0.42694124077602
C           -4.51493321344660       -4.35377931865973        1.41617370049790
C           -3.45725758881289       -1.70818542631706        1.36604749324303
C           -3.00750662980005       -0.39479227837971        1.30530001488877
C           -2.44229060282873        2.22103281078947       -1.15798523584935
C           -1.50675474213977        1.13201916813645       -1.71329031451136
C           -0.16938390112150        1.12526747957127       -1.08101970146400
N            0.50264232814459        0.04088877876816       -0.70812357242871
C            1.87994788045315        0.14213791664645       -0.28753808843891
C            2.85720043797139       -0.26539261751258       -1.40767877345944
C            4.27422551622829       -0.05951037951800       -0.94965891300540
C            4.91362126714112        1.15655573966003       -1.15805956836236
C            6.21575826032278        1.36601735393432       -0.73194848088615
C            6.91376403829173        0.36401314454254       -0.07153478484888
O            8.17420152818943        0.44547729404584        0.38341957966776
C            8.91021698380153        1.63085489267514        0.17165290708008
C            6.25689426524951       -0.87497267224038        0.16573669705308
O            7.00198705101772       -1.79598284620542        0.81902530763465
C            6.58492188890435       -2.95212526340181        1.25442392573606
C            4.95106372943456       -1.06943757662747       -0.28196783568257
C           -0.08034061764477       -1.27832178025118       -0.76867028321203
C           -4.22794405984928        2.84804236607539        0.54218291749778
C           -4.88282602986822        2.51409324661489        1.88032156150716
C           -3.88171509600136        4.33361683158701        0.49348940554500
H           -4.79379264594406        0.67387849458443       -1.33974393527668
H           -6.94508561554990       -0.14525559397615       -1.82898375400835
H           -7.17351568228160       -1.61213747568871       -2.81120736544798
H           -5.72592073702421       -0.60640673356372       -3.05411251222975
H           -4.76898444715856       -3.99839767646991        2.41915524376652
H           -5.07653800565971       -5.26091085245969        1.20196744269452
H           -3.44320197740709       -4.57143831320861        1.36575898228105
H           -3.07854139872590       -2.35276532205294        2.14269207659667
H           -2.30516091226470       -0.05545382302666        2.05094032628484
H           -3.27633678464633        2.33451780657834       -1.84931842199238
H           -1.90623184641784        3.17039847876052       -1.13048005728114
H           -1.99224395051981        0.16033142170848       -1.64099194268936
H           -1.36373384641480        1.35359724896112       -2.77927539321415
H           -0.94309783370092        1.63370402430060        0.86624506264780
H            0.36775845856721        2.06165915677640       -1.04257702076605
H            2.03725731789803       -0.50076654132582        0.58275219375974
H            2.09218148889830        1.17233576200202        0.00659003190390
H            2.65917006894747        0.34857652950610       -2.28751965879373
H            2.69711394010690       -1.31085066059753       -1.67266281127472
H            4.39937903871457        1.95129518203864       -1.67604203740472
H            6.68249686765350        2.31779480510603       -0.92437391477690
H            8.44960283919792        2.48305160844239        0.67919805567105
H            9.01605681037633        1.84998547810028       -0.89428039944933
H            9.89219769814897        1.44251987387751        0.60102145378809
H            7.33462077070840       -3.55711768627340        1.72782718195305
H            5.57747827939508       -3.31247651013823        1.13468483338302
H            6.19257223137400       -5.94032539754576        1.00591908249124
H            4.46959178626967       -2.02343437254469       -0.13409025698469
H           -0.24596651773144       -1.59078500913454       -1.80207352797062
H           -1.03609602727993       -1.29747809945414       -0.23883997856642
H            0.59132802290779       -1.99006360359680       -0.29551740973383
H           -4.95985079238939        2.64766730906745       -0.24842087697085
H           -4.19468585791929        2.72017604705200        2.69358753083739
H           -5.17823022722488        1.46857589501730        1.92377478594797
H           -5.77077899426935        3.12650889480085        2.01340105814396
H           -3.13699732712764        4.57335411514987        1.24613731614853
H           -3.51418689060068        4.63349267013560       -0.48441340337472
H           -4.77590025650997        4.91422450037921        0.70473431467669
H           -1.09341370983280        2.92165477364184        2.81563026933873

          :  Hamiltonian                  GFN2-xTB          :
         :: total energy             -99.269200671411 Eh    ::
         :: gradient norm              0.002103195716 Eh/a0 ::
         :: HOMO-LUMO gap              0.461153715372 eV    ::
         :: SCC energy              -100.644142775622 Eh    ::
         :: -> dispersion             -0.074939103394 Eh    ::
         :: repulsion energy           1.373743768665 Eh    ::

    * Orbital Energies and Occupations

         #    Occupation            Energy/Eh            Energy/eV
      -------------------------------------------------------------
         1        2.0000           -0.8484535             -23.0876
       ...           ...                  ...                  ...
        78        1.9987           -0.5330597             -14.5053
        79        1.9983           -0.5287258             -14.3874
        80        1.9982           -0.5281719             -14.3723
        81        1.9975           -0.5227711             -14.2253
        82        1.9959           -0.5151165             -14.0170
        83        1.9957           -0.5144298             -13.9983
        84        1.9952           -0.5124196             -13.9436
        85        1.9943           -0.5097340             -13.8706
        86        1.9808           -0.4904198             -13.3450
        87        1.9708           -0.4837415             -13.1633
        88        1.9383           -0.4715970             -12.8328
        89        1.8706           -0.4593245             -12.4989
        90        1.1742           -0.4225965             -11.4994 (HOMO)
        91        0.6555           -0.4056495             -11.0383 (LUMO)
        92        0.4112           -0.3956215             -10.7654
        93        0.0148           -0.3394981              -9.2382
        94        0.0062           -0.3256778              -8.8621
        95        0.0042           -0.3194192              -8.6918
        96        0.0035           -0.3164667              -8.6115
        97        0.0029           -0.3134637              -8.5298
        98        0.0000           -0.2014584              -5.4820
        99        0.0000           -0.1907960              -5.1918
       100                         -0.1392007              -3.7878
       101                         -0.0711085              -1.9350
       ...                                ...                  ...
       171                          0.5726688              15.5831
      -------------------------------------------------------------
                  HL-Gap            0.0169471 Eh            0.4612 eV

     #   Z          covCN         q      C6AA      α(0)
     1   7 N        1.774    -0.268    27.784     7.805
     2   6 C        2.826     0.102    25.743     8.314
     3   6 C        3.907     0.006    20.414     6.422
     4   6 C        2.974     0.002    27.966     8.674
     5   6 C        2.921    -0.080    29.996     8.981
     6   6 C        2.863     0.130    25.157     8.221
     7   8 O        1.706    -0.230    17.806     5.697
     8   6 C        3.645     0.027    20.448     6.499
     9   6 C        2.864     0.129    25.177     8.225
    10   8 O        1.706    -0.228    17.780     5.693
    11   6 C        3.645     0.027    20.459     6.501
    12   6 C        2.914    -0.075    29.865     8.961
    13   6 C        2.921    -0.053    29.328     8.881
    14   6 C        3.812    -0.065    21.736     6.636
    15   6 C        3.802    -0.069    21.819     6.650
    16   6 C        2.843     0.006    27.888     8.655
    17   7 N        2.729     0.009    21.097     6.822
    18   6 C        3.755    -0.016    20.921     6.522
    19   6 C        3.808    -0.072    21.875     6.658
    20   6 C        2.968     0.002    27.968     8.675
    21   6 C        2.922    -0.044    29.095     8.846
    22   6 C        2.913    -0.067    29.671     8.932
    23   6 C        2.862     0.140    24.946     8.187
    24   8 O        1.706    -0.225    17.726     5.684
    25   6 C        3.645     0.023    20.527     6.512
    26   6 C        2.867     0.105    25.666     8.304
    27   8 O        1.710    -0.095    15.767     5.361
    28   6 C        2.732     0.036    27.169     8.534
    29   6 C        2.918    -0.068    29.696     8.936
    30   6 C        3.699    -0.070    22.018     6.711
    31   6 C        3.853    -0.007    20.675     6.467
    32   6 C        3.756    -0.119    22.828     6.813
    33   6 C        3.755    -0.118    22.822     6.812
    34   1 H        0.926     0.052     2.293     2.368
    35   1 H        0.924     0.054     2.272     2.357
    36   1 H        0.925     0.081     1.965     2.192
    37   1 H        0.924     0.048     2.351     2.398
    38   1 H        0.924     0.055     2.256     2.349
    39   1 H        0.925     0.082     1.963     2.191
    40   1 H        0.924     0.048     2.342     2.393
    41   1 H        0.926     0.052     2.296     2.370
    42   1 H        0.926     0.038     2.478     2.462
    43   1 H        0.925     0.060     2.198     2.319
    44   1 H        0.924     0.053     2.282     2.362
    45   1 H        0.925     0.067     2.124     2.279
    46   1 H        0.923     0.080     1.984     2.203
    47   1 H        0.922     0.005     2.973     2.697
    48   1 H        0.926     0.068     2.107     2.270
    49   1 H        0.924     0.067     2.115     2.275
    50   1 H        0.924     0.067     2.120     2.277
    51   1 H        0.924     0.058     2.221     2.331
    52   1 H        0.924     0.059     2.208     2.324
    53   1 H        0.926     0.052     2.290     2.367
    54   1 H        0.926     0.064     2.152     2.294
    55   1 H        0.924     0.056     2.243     2.342
    56   1 H        0.924     0.058     2.222     2.331
    57   1 H        0.925     0.085     1.929     2.172
    58   1 H        0.926     0.106     1.727     2.055
    59   1 H        0.926     0.072     2.063     2.246
    60   1 H        0.000    -0.150    19.178     8.008
    61   1 H        0.926     0.054     2.268     2.355
    62   1 H        0.924     0.077     2.014     2.219
    63   1 H        0.924     0.080     1.981     2.201
    64   1 H        0.925     0.080     1.982     2.201
    65   1 H        0.924     0.037     2.487     2.466
    66   1 H        0.925     0.069     2.094     2.263
    67   1 H        0.925     0.036     2.509     2.477
    68   1 H        0.925     0.051     2.307     2.375
    69   1 H        0.925     0.060     2.199     2.319
    70   1 H        0.925     0.034     2.528     2.487
    71   1 H        0.925     0.054     2.266     2.354
    72   1 H        0.860     0.156     1.360     1.827

Wiberg/Mayer (AO) data.
largest (>0.10) Wiberg bond orders for each atom

     #   Z sym  total        # sym  WBO       # sym  WBO       # sym  WBO
 ---------------------------------------------------------------------------
     1   7 N    3.040 --     2 C    1.957    72 H    0.942
     2   6 C    3.929 --     1 N    1.957     3 C    0.995    47 H    0.901
     3   6 C    3.976 --     2 C    0.995     4 C    0.969    14 C    0.957
                            31 C    0.943
     4   6 C    3.949 --    13 C    1.415     5 C    1.368     3 C    0.969
     5   6 C    3.962 --     6 C    1.402     4 C    1.368    34 H    0.958
     6   6 C    3.905 --     5 C    1.402     9 C    1.221     7 O    1.100
     7   8 O    2.255 --     6 C    1.100     8 C    0.978
     8   6 C    3.932 --     7 O    0.978    36 H    0.977    35 H    0.974
                            37 H    0.973
     9   6 C    3.902 --    12 C    1.392     6 C    1.221    10 O    1.102
    10   8 O    2.253 --     9 C    1.102    11 C    0.977
    11   6 C    3.931 --    10 O    0.977    39 H    0.977    40 H    0.974
                            38 H    0.973
    12   6 C    3.962 --    13 C    1.403     9 C    1.392    41 H    0.964
    13   6 C    3.954 --     4 C    1.415    12 C    1.403    42 H    0.963
    14   6 C    3.973 --    15 C    0.982    44 H    0.972    43 H    0.969
                             3 C    0.957
    15   6 C    3.987 --    16 C    1.060    14 C    0.982    45 H    0.961
                            46 H    0.927
    16   6 C    3.581 --    17 N    1.393    15 C    1.060    48 H    0.957
    17   7 N    3.471 --    16 C    1.393    30 C    0.998    18 C    0.990
    18   6 C    3.958 --    17 N    0.990    50 H    0.968    19 C    0.968
                            49 H    0.964
    19   6 C    3.977 --    20 C    1.008    51 H    0.972    52 H    0.971
                            18 C    0.968
    20   6 C    3.969 --    29 C    1.413    21 C    1.390    19 C    1.008
    21   6 C    3.917 --    22 C    1.425    20 C    1.390    53 H    0.968
    22   6 C    3.961 --    21 C    1.425    23 C    1.376    54 H    0.963
    23   6 C    3.889 --    22 C    1.376    26 C    1.225    24 O    1.120
    24   8 O    2.276 --    23 C    1.120    25 C    0.971
    25   6 C    3.926 --    57 H    0.977    56 H    0.974    55 H    0.974
                            24 O    0.971
    26   6 C    3.893 --    29 C    1.355    23 C    1.225    27 O    1.058
    27   8 O    2.435 --    28 C    1.279    26 C    1.058
    28   6 C    3.348 --    27 O    1.279    59 H    0.964    58 H    0.963
    29   6 C    3.910 --    20 C    1.413    26 C    1.355    61 H    0.960
    30   6 C    3.957 --    17 N    0.998    64 H    0.978    62 H    0.967
                            63 H    0.961
    31   6 C    3.973 --    33 C    1.009    32 C    1.008    65 H    0.960
                             3 C    0.943
    32   6 C    3.979 --    31 C    1.008    67 H    0.982    68 H    0.981
                            66 H    0.974
    33   6 C    3.983 --    31 C    1.009    70 H    0.983    71 H    0.980
                            69 H    0.977
    34   1 H    0.996 --     5 C    0.958
    35   1 H    0.993 --     8 C    0.974
    36   1 H    0.993 --     8 C    0.977
    37   1 H    0.994 --     8 C    0.973
    38   1 H    0.993 --    11 C    0.973
    39   1 H    0.993 --    11 C    0.977
    40   1 H    0.993 --    11 C    0.974
    41   1 H    0.996 --    12 C    0.964
    42   1 H    0.998 --    13 C    0.963
    43   1 H    0.995 --    14 C    0.969
    44   1 H    0.996 --    14 C    0.972
    45   1 H    0.995 --    15 C    0.961
    46   1 H    0.969 --    15 C    0.927
    47   1 H    0.987 --     2 C    0.901
    48   1 H    0.995 --    16 C    0.957
    49   1 H    0.991 --    18 C    0.964
    50   1 H    0.994 --    18 C    0.968
    51   1 H    0.996 --    19 C    0.972
    52   1 H    0.996 --    19 C    0.971
    53   1 H    0.997 --    21 C    0.968
    54   1 H    0.995 --    22 C    0.963
    55   1 H    0.994 --    25 C    0.974
    56   1 H    0.993 --    25 C    0.974
    57   1 H    0.992 --    25 C    0.977
    58   1 H    0.988 --    28 C    0.963
    59   1 H    0.995 --    28 C    0.964
    60   1 H    0.014
    61   1 H    0.996 --    29 C    0.960
    62   1 H    0.985 --    30 C    0.967
    63   1 H    0.987 --    30 C    0.961
    64   1 H    0.993 --    30 C    0.978
    65   1 H    0.993 --    31 C    0.960
    66   1 H    0.991 --    32 C    0.974
    67   1 H    0.997 --    32 C    0.982
    68   1 H    0.994 --    32 C    0.981
    69   1 H    0.993 --    33 C    0.977
    70   1 H    0.997 --    33 C    0.983
    71   1 H    0.994 --    33 C    0.980
    72   1 H    0.970 --     1 N    0.942
 ---------------------------------------------------------------------------

molecular dipole:
                 x           y           z       tot (Debye)
 q only:        0.915       1.261      -0.892
   full:        1.261       1.173      -1.042       5.117

           -------------------------------------------------
          | TOTAL ENERGY              -99.269200671411 Eh   |
          | GRADIENT NORM               0.002103195716 Eh/α |
          | HOMO-LUMO GAP               0.461153715372 eV   |
           -------------------------------------------------

 * finished run on 2024/04/06 at 11:14:34.715
