   * xtb version 6.6.1 (8d0f1dd) compiled by 'conda@1efc2f54142f' on 2023-08-01
          program call               : xtb struc.xyz --opt loose --input .xc1 --gfn2

   ID    Z sym.   atoms
    1    7 N      1, 17
    2    6 C      2-6, 8, 9, 11-16, 18-23, 25, 26, 28-33
    3    8 O      7, 10, 24, 27
    4    1 H      34-72
constraining bond 22 55 to    4.7133300 Å, actual value:    2.8435793 Å

          :  Hamiltonian                  GFN2-xTB          :
 * total energy  :  -100.0283472 Eh     change       -0.4035485E-08 Eh
 * total energy  :  -100.5002362 Eh     change       -0.4718890E+00 Eh
 * total energy  :  -101.0634039 Eh     change       -0.5631678E+00 Eh
 * total energy  :  -101.7106881 Eh     change       -0.6472842E+00 Eh
 * total energy  :   -97.2900481 Eh     change        0.4420640E+01 Eh
 * total energy  :  -101.7867248 Eh     change       -0.4496677E+01 Eh
 * total energy  :  -101.8467841 Eh     change       -0.6005931E-01 Eh
 * total energy  :  -101.8991997 Eh     change       -0.5241557E-01 Eh
 * total energy  :  -101.9244739 Eh     change       -0.2527426E-01 Eh
 * total energy  :  -101.9339042 Eh     change       -0.9430287E-02 Eh
 * total energy  :  -101.9849963 Eh     change       -0.9693242E-03 Eh
 * total energy  :  -101.9865299 Eh     change       -0.1533577E-02 Eh
 * total energy  :  -101.9872912 Eh     change       -0.7613851E-03 Eh
 * total energy  :  -101.9877265 Eh     change       -0.4352755E-03 Eh
 * total energy  :  -101.9879606 Eh     change       -0.2340619E-03 Eh
 * total energy  :  -101.9881119 Eh     change       -0.1513457E-03 Eh
 * total energy  :  -101.9882173 Eh     change       -0.1054157E-03 Eh
 * total energy  :  -101.9882812 Eh     change       -0.6389475E-04 Eh
 * total energy  :  -101.9883189 Eh     change       -0.3771043E-04 Eh
   *** GEOMETRY OPTIMIZATION CONVERGED AFTER 32 ITERATIONS ***

 final structure:
================
72
 xtb: 6.6.1 (8d0f1dd)
N           -1.97499095346293        2.84683394825174        2.27862844470724
C           -1.88473427136030        2.14522720428561        1.24910152829555
C           -2.99819791449445        1.91992152158895        0.26460722327110
C           -3.45774142497330        0.47075512749205        0.33727620262855
C           -4.37914519927561       -0.00965018305880       -0.59580644916920
C           -4.84355832531303       -1.31294657141983       -0.55041037512213
O           -5.74765578073384       -1.84843114396158       -1.39891406723242
C           -6.37979262271175       -1.01790700280601       -2.34389975705186
C           -4.35868866489528       -2.19373759722152        0.45253740763163
O           -4.85537209063011       -3.44827242996677        0.41383687538664
C           -4.48741341752296       -4.35932265855778        1.42233219268551
C           -3.44301813610561       -1.71255004628275        1.37348968278252
C           -3.00347261883851       -0.39516536925749        1.31871682618558
C           -2.39385397196823        2.20591283157370       -1.13502055191895
C           -1.42115575533799        1.12479787558031       -1.63779237246716
C           -0.10691383586012        1.13966817176534       -0.95530832434103
N            0.57154020759027        0.05910154481875       -0.56890922199430
C            1.95679024925481        0.17136013135383       -0.17743571656820
C            2.90389619440934       -0.14842381111715       -1.34920814034611
C            4.33902927156323        0.01122239383500       -0.92307985495885
C            4.99932860512857        1.16407041384432       -1.14955862375157
C            6.42906924604842        1.41381318740097       -0.74221158132988
C            6.99785330233961        0.22150950404876       -0.00217170146679
O            8.23850610678536        0.24236558774803        0.44260502052899
C            9.08439995927617        1.21941222117981        0.31864578616541
C            6.26609433989219       -0.97422118958240        0.19970192371920
O            6.95275435748055       -1.94400069902674        0.84253345696930
C            6.34464662346078       -3.19873126973901        1.04154822665185
C            4.96466310860724       -1.07449692057031       -0.24642673583300
C           -0.00138362724092       -1.26362614496587       -0.63447038759594
C           -4.23111197551709        2.83907649325340        0.50943969472570
C           -4.91419587219471        2.51433761366270        1.83593939030400
C           -3.89333957062071        4.32637561403284        0.45288713762129
H           -4.75096745470623        0.65191010243540       -1.36036881226591
H           -6.89622706026336       -0.18243897643119       -1.86146808921002
H           -7.10963755374794       -1.65028519650950       -2.84568830919010
H           -5.66931153809379       -0.63283015225403       -3.08276436851844
H           -4.76159468254608       -3.99103101279451        2.41543158619704
H           -5.04300783946747       -5.27052685093110        1.20958716594767
H           -3.41434379182918       -4.57575588048620        1.39620823964895
H           -3.07157718664828       -2.35261179572423        2.15736926935593
H           -2.31751911243779       -0.04847611671443        2.07618141088385
H           -3.20677567311251        2.28960462887884       -1.85545209999161
H           -1.87696672891471        3.16590236459843       -1.10743689988528
H           -1.89730047458201        0.14809619632050       -1.57072226984945
H           -1.23940126719662        1.33394674295967       -2.70068775939899
H           -0.95055704505007        1.64489214414309        0.92342413834712
H            0.42568437500371        2.07825059022326       -0.91708145086474
H            2.15327883981123       -0.51377128896823        0.65089350626112
H            2.15345337894888        1.18873264729785        0.16775186058884
H            2.68327573608408        0.53237398394871       -2.17250575328615
H            2.72972895807946       -1.16946557817056       -1.68969906483894
H            4.51867482113576        1.98534841183064       -1.66039624532899
H            7.00922949990884        1.47872976084666       -1.69836150615429
H            6.49075343774926        2.05034898280534       -0.36221455189303
H            8.85183528865175        2.14540242510889       -0.18122134031027
H           10.05432118379112        1.04151378360045        0.73912386720730
H            7.09971124965501       -3.81348135246766        1.52769465934254
H            5.46827519810525       -3.12139275837524        1.69199255455175
H            6.05895151699003       -3.65958395964741        0.09149860552820
H            4.40466224398368       -1.98227954996632       -0.10299824081413
H           -0.15309292982081       -1.58125133136950       -1.66866449624884
H           -0.96353909215784       -1.28689966481039       -0.11662763311277
H            0.66922057567866       -1.96915587003393       -0.15050146856765
H           -4.94293796844938        2.62583648715812       -0.29594542859680
H           -4.24674742842442        2.73674969350684        2.66192333663478
H           -5.19902666938344        1.46613896249201        1.88447185616276
H           -5.81149567649879        3.11843749916524        1.94143698296350
H           -3.16308749591580        4.57753857967010        1.21576245867262
H           -3.51077810187192        4.61878043655893       -0.52155445962248
H           -4.79456085264223        4.90341745836590        0.64277919962602
H           -1.14692262558924        2.94914662806240        2.85689123351877

          :  Hamiltonian                  GFN2-xTB          :
         :: total energy            -101.988318949084 Eh    ::
         :: gradient norm              0.003253046497 Eh/a0 ::
         :: HOMO-LUMO gap              1.146001188141 eV    ::
         :: SCC energy              -100.726317199875 Eh    ::
         :: -> dispersion             -0.075079558232 Eh    ::
         :: repulsion energy           1.550125248952 Eh    ::

    * Orbital Energies and Occupations

         #    Occupation            Energy/Eh            Energy/eV
      -------------------------------------------------------------
         1        2.0000           -0.8489022             -23.0998
       ...           ...                  ...                  ...
        78        1.9992           -0.5301856             -14.4271
        79        1.9987           -0.5224052             -14.2154
        80        1.9986           -0.5219538             -14.2031
        81        1.9986           -0.5210742             -14.1792
        82        1.9980           -0.5157313             -14.0338
        83        1.9968           -0.5083126             -13.8319
        84        1.9962           -0.5056127             -13.7584
        85        1.9955           -0.5028068             -13.6821
        86        1.9841           -0.4828844             -13.1400
        87        1.9830           -0.4817832             -13.1100
        88        1.9487           -0.4640611             -12.6277
        89        1.8944           -0.4521707             -12.3042
        90        1.6051           -0.4286671             -11.6646 (HOMO)
        91        0.4428           -0.3865524             -10.5186 (LUMO)
        92        0.1372           -0.3651674              -9.9367
        93        0.0173           -0.3313948              -9.0177
        94        0.0042           -0.3088756              -8.4049
        95        0.0035           -0.3057699              -8.3204
        96        0.0034           -0.3054278              -8.3111
        97        0.0000           -0.2254584              -6.1350
        98        0.0000           -0.1829443              -4.9782
        99                         -0.1310669              -3.5665
       100                         -0.0760569              -2.0696
       101                         -0.0612664              -1.6671
       ...                                ...                  ...
       171                          1.4102501              38.3749
      -------------------------------------------------------------
                  HL-Gap            0.0421148 Eh            1.1460 eV

     #   Z          covCN         q      C6AA      α(0)
     1   7 N        1.774    -0.272    27.884     7.820
     2   6 C        2.827     0.101    25.755     8.316
     3   6 C        3.908     0.006    20.415     6.422
     4   6 C        2.974     0.002    27.977     8.676
     5   6 C        2.921    -0.080    29.994     8.981
     6   6 C        2.862     0.129    25.181     8.225
     7   8 O        1.706    -0.234    17.872     5.708
     8   6 C        3.644     0.029    20.427     6.496
     9   6 C        2.864     0.127    25.209     8.230
    10   8 O        1.706    -0.233    17.855     5.705
    11   6 C        3.645     0.028    20.430     6.496
    12   6 C        2.914    -0.075    29.883     8.964
    13   6 C        2.921    -0.054    29.347     8.884
    14   6 C        3.813    -0.064    21.725     6.634
    15   6 C        3.802    -0.068    21.799     6.647
    16   6 C        2.843     0.002    27.982     8.669
    17   7 N        2.729     0.002    21.232     6.844
    18   6 C        3.755    -0.015    20.901     6.519
    19   6 C        3.810    -0.073    21.880     6.658
    20   6 C        2.953     0.005    27.900     8.664
    21   6 C        2.907    -0.066    29.639     8.927
    22   6 C        3.806    -0.101    22.429     6.742
    23   6 C        2.866     0.079    26.234     8.396
    24   8 O        1.712    -0.071    15.425     5.303
    25   6 C        2.744     0.002    27.957     8.658
    26   6 C        2.848     0.136    25.019     8.198
    27   8 O        1.706    -0.240    17.981     5.725
    28   6 C        3.644     0.028    20.445     6.499
    29   6 C        2.915    -0.095    30.396     9.041
    30   6 C        3.699    -0.068    21.973     6.704
    31   6 C        3.853    -0.008    20.676     6.467
    32   6 C        3.756    -0.118    22.820     6.811
    33   6 C        3.755    -0.118    22.807     6.810
    34   1 H        0.926     0.051     2.313     2.378
    35   1 H        0.924     0.052     2.293     2.368
    36   1 H        0.925     0.079     1.988     2.205
    37   1 H        0.924     0.046     2.370     2.408
    38   1 H        0.924     0.053     2.282     2.363
    39   1 H        0.925     0.079     1.989     2.205
    40   1 H        0.924     0.046     2.373     2.409
    41   1 H        0.926     0.049     2.329     2.386
    42   1 H        0.926     0.036     2.498     2.472
    43   1 H        0.925     0.058     2.224     2.332
    44   1 H        0.924     0.052     2.301     2.372
    45   1 H        0.925     0.065     2.145     2.290
    46   1 H        0.923     0.075     2.028     2.227
    47   1 H        0.922     0.006     2.957     2.689
    48   1 H        0.926     0.064     2.148     2.292
    49   1 H        0.924     0.066     2.129     2.282
    50   1 H        0.924     0.065     2.144     2.290
    51   1 H        0.924     0.053     2.284     2.364
    52   1 H        0.924     0.058     2.225     2.332
    53   1 H        0.926     0.045     2.389     2.417
    54   1 H        0.920     0.072     2.066     2.248
    55   1 H        0.931     0.124     1.581     1.966
    56   1 H        0.926     0.057     2.230     2.335
    57   1 H        0.926     0.086     1.916     2.165
    58   1 H        0.925     0.080     1.976     2.198
    59   1 H        0.924     0.049     2.338     2.391
    60   1 H        0.924     0.052     2.294     2.369
    61   1 H        0.926     0.046     2.371     2.408
    62   1 H        0.924     0.073     2.057     2.243
    63   1 H        0.924     0.078     1.996     2.209
    64   1 H        0.925     0.076     2.017     2.221
    65   1 H        0.924     0.036     2.507     2.476
    66   1 H        0.925     0.068     2.104     2.268
    67   1 H        0.925     0.035     2.521     2.483
    68   1 H        0.925     0.049     2.333     2.388
    69   1 H        0.925     0.059     2.213     2.327
    70   1 H        0.925     0.033     2.544     2.494
    71   1 H        0.925     0.053     2.288     2.365
    72   1 H        0.860     0.154     1.376     1.837

Wiberg/Mayer (AO) data.
largest (>0.10) Wiberg bond orders for each atom

     #   Z sym  total        # sym  WBO       # sym  WBO       # sym  WBO
 ---------------------------------------------------------------------------
     1   7 N    3.039 --     2 C    1.954    72 H    0.943
     2   6 C    3.924 --     1 N    1.954     3 C    0.996    47 H    0.897
     3   6 C    3.978 --     2 C    0.996     4 C    0.968    14 C    0.957
                            31 C    0.944
     4   6 C    3.954 --    13 C    1.419     5 C    1.367     3 C    0.968
     5   6 C    3.965 --     6 C    1.404     4 C    1.367    34 H    0.958
     6   6 C    3.910 --     5 C    1.404     9 C    1.226     7 O    1.095
     7   8 O    2.253 --     6 C    1.095     8 C    0.979
     8   6 C    3.934 --     7 O    0.979    36 H    0.977    35 H    0.974
                            37 H    0.974
     9   6 C    3.907 --    12 C    1.396     6 C    1.226    10 O    1.096
    10   8 O    2.251 --     9 C    1.096    11 C    0.979
    11   6 C    3.934 --    10 O    0.979    39 H    0.977    40 H    0.974
                            38 H    0.974
    12   6 C    3.965 --    13 C    1.400     9 C    1.396    41 H    0.964
    13   6 C    3.959 --     4 C    1.419    12 C    1.400    42 H    0.963
    14   6 C    3.974 --    15 C    0.984    44 H    0.973    43 H    0.969
                             3 C    0.957
    15   6 C    3.987 --    16 C    1.058    14 C    0.984    45 H    0.961
                            46 H    0.928
    16   6 C    3.561 --    17 N    1.374    15 C    1.058    48 H    0.958
    17   7 N    3.453 --    16 C    1.374    30 C    1.000    18 C    0.990
    18   6 C    3.960 --    17 N    0.990    19 C    0.969    50 H    0.968
                            49 H    0.965
    19   6 C    3.977 --    20 C    1.003    51 H    0.974    52 H    0.970
                            18 C    0.969
    20   6 C    3.966 --    21 C    1.672    29 C    1.210    19 C    1.003
    21   6 C    3.839 --    20 C    1.672    22 C    1.027    53 H    0.968
    22   6 C    3.973 --    21 C    1.027    23 C    1.007    55 H    0.947
                            54 H    0.912
    23   6 C    3.763 --    26 C    1.237    24 O    1.175    22 C    1.007
                            25 C    0.224
    24   8 O    2.566 --    25 C    1.277    23 C    1.175
    25   6 C    3.577 --    24 O    1.277    56 H    0.969    57 H    0.969
                            23 C    0.224
    26   6 C    3.899 --    29 C    1.419    23 C    1.237    27 O    1.093
    27   8 O    2.258 --    26 C    1.093    28 C    0.977
    28   6 C    3.934 --    58 H    0.977    27 O    0.977    59 H    0.975
                            60 H    0.975
    29   6 C    3.806 --    26 C    1.419    20 C    1.210    61 H    0.965
    30   6 C    3.960 --    17 N    1.000    64 H    0.978    62 H    0.967
                            63 H    0.962
    31   6 C    3.975 --    33 C    1.009    32 C    1.008    65 H    0.961
                             3 C    0.944
    32   6 C    3.982 --    31 C    1.008    67 H    0.982    68 H    0.982
                            66 H    0.975
    33   6 C    3.986 --    31 C    1.009    70 H    0.983    71 H    0.981
                            69 H    0.978
    34   1 H    0.996 --     5 C    0.958
    35   1 H    0.994 --     8 C    0.974
    36   1 H    0.993 --     8 C    0.977
    37   1 H    0.995 --     8 C    0.974
    38   1 H    0.994 --    11 C    0.974
    39   1 H    0.993 --    11 C    0.977
    40   1 H    0.994 --    11 C    0.974
    41   1 H    0.996 --    12 C    0.964
    42   1 H    0.998 --    13 C    0.963
    43   1 H    0.995 --    14 C    0.969
    44   1 H    0.996 --    14 C    0.973
    45   1 H    0.995 --    15 C    0.961
    46   1 H    0.968 --    15 C    0.928
    47   1 H    0.989 --     2 C    0.897
    48   1 H    0.995 --    16 C    0.958
    49   1 H    0.992 --    18 C    0.965
    50   1 H    0.994 --    18 C    0.968
    51   1 H    0.997 --    19 C    0.974
    52   1 H    0.996 --    19 C    0.970
    53   1 H    0.998 --    21 C    0.968
    54   1 H    0.964 --    22 C    0.912
    55   1 H    0.976 --    22 C    0.947
    56   1 H    0.997 --    25 C    0.969
    57   1 H    0.992 --    25 C    0.969
    58   1 H    0.993 --    28 C    0.977
    59   1 H    0.995 --    28 C    0.975
    60   1 H    0.995 --    28 C    0.975
    61   1 H    0.997 --    29 C    0.965
    62   1 H    0.985 --    30 C    0.967
    63   1 H    0.987 --    30 C    0.962
    64   1 H    0.994 --    30 C    0.978
    65   1 H    0.994 --    31 C    0.961
    66   1 H    0.992 --    32 C    0.975
    67   1 H    0.997 --    32 C    0.982
    68   1 H    0.995 --    32 C    0.982
    69   1 H    0.994 --    33 C    0.978
    70   1 H    0.998 --    33 C    0.983
    71   1 H    0.995 --    33 C    0.981
    72   1 H    0.972 --     1 N    0.943
 ---------------------------------------------------------------------------

molecular dipole:
                 x           y           z       tot (Debye)
 q only:        2.371       0.102      -0.750
   full:        2.729       0.023      -0.923       7.324

           -------------------------------------------------
          | TOTAL ENERGY             -101.988318949084 Eh   |
          | GRADIENT NORM               0.003253046497 Eh/α |
          | HOMO-LUMO GAP               1.146001188141 eV   |
           -------------------------------------------------

 * finished run on 2024/04/06 at 11:13:49.004
