   * xtb version 6.6.1 (8d0f1dd) compiled by 'conda@1efc2f54142f' on 2023-08-01
          program call               : xtb xtbopt.xyz --opt crude --input .xc2 --gfn2

   ID    Z sym.   atoms
    1    7 N      1, 17
    2    6 C      2-6, 8, 9, 11-16, 18-23, 25, 26, 28-33
    3    8 O      7, 10, 24, 27
    4    1 H      34-72
########################################################################
[WARNING] Please study the warnings concerning your input carefully
-1- readin_getIntValue: could not parse ''
########################################################################

          :  Hamiltonian                  GFN2-xTB          :
 * total energy  :   -99.1749614 Eh     change       -0.3308287E-10 Eh
 * total energy  :   -99.3367356 Eh     change       -0.1617742E+00 Eh
 * total energy  :   -99.3385285 Eh     change       -0.1792831E-02 Eh
 * total energy  :   -99.3395527 Eh     change       -0.1024222E-02 Eh
 * total energy  :   -99.3397442 Eh     change       -0.1914843E-03 Eh
   *** GEOMETRY OPTIMIZATION CONVERGED AFTER 5 ITERATIONS ***

 final structure:
================
72
 xtb: 6.6.1 (8d0f1dd)
N           -1.97305144521763        2.84786905166101        2.28005898625361
C           -1.88362931625338        2.14577735338413        1.25059887985244
C           -2.99732334739034        1.92056735295379        0.26640603285096
C           -3.45633230637210        0.47123998098279        0.33905585747243
C           -4.37564368298692       -0.01011689275628       -0.59558925733324
C           -4.83921317097073       -1.31370544113472       -0.55071951575662
O           -5.74041991502465       -1.85026800560898       -1.40159623143099
C           -6.37079488048967       -1.02008074290732       -2.34804122461984
C           -4.35640336049506       -2.19361982261488        0.45396050260795
O           -4.85283760049340       -3.44824780481450        0.41495791623519
C           -4.48725229612621       -4.35876882308247        1.42475717034339
C           -3.44283960395370       -1.71150913172634        1.37652727716988
C           -3.00349672431191       -0.39405188200537        1.32173914339625
C           -2.39331097865433        2.20721510546187       -1.13335999556818
C           -1.42174615179285        1.12577769782137       -1.63766283713759
C           -0.10727445660219        1.13900919344951       -0.95563137882588
N            0.56920327212906        0.05793859657852       -0.56691176717653
C            1.95562687685713        0.16737960698075       -0.17820287046807
C            2.89751538273731       -0.16234987169838       -1.35197430521503
C            4.33689808614586       -0.00374948136733       -0.93851366318323
C            5.00491967651270        1.14352355323775       -1.18323869379080
C            6.42644380241631        1.36217546253157       -0.78731804220844
C            7.00349090554431        0.20129678683117       -0.03833133719190
O            8.23585256906507        0.23383258505164        0.42429992363614
C            9.08069455274837        1.21087954627324        0.30469632540376
C            6.26592923160406       -0.99064951848126        0.18211191329667
O            6.94718514338080       -1.95589574923972        0.83874758676161
C            6.33251474152690       -3.20623886790342        1.05063012076316
C            4.96246253668715       -1.08737120197658       -0.25805639139289
C           -0.00453374241262       -1.26420560959852       -0.63577461243638
C           -4.23038695728343        2.83947644704104        0.51155344134782
C           -4.91357184511523        2.51416346915222        1.83783367321166
C           -3.89262061482844        4.32685753313850        0.45607083345267
H           -4.74611374092030        0.65123430731020       -1.36095980470725
H           -6.88857215926244       -0.18479944941766       -1.86676862349474
H           -7.09925980161018       -1.65267011584656       -2.85150101812189
H           -5.65872936692050       -0.63476284064407       -3.08524516118626
H           -4.76496619751492       -3.99062108613061        2.41690892320397
H           -5.04134253652466       -5.27049902760246        1.21038990078204
H           -3.41396915513216       -4.57428226987738        1.40215788396814
H           -3.07294962845318       -2.35100852507921        2.16160344238099
H           -2.31885064805486       -0.04684985315437        2.08013806138925
H           -3.20657455439104        2.29253029917137       -1.85325954935110
H           -1.87556537483785        3.16669708372632       -1.10502295657830
H           -1.89878068694010        0.14942222763852       -1.57165552969702
H           -1.24023919250205        1.33603709046214       -2.70036631914222
H           -0.94993649739123        1.64469175935871        0.92519380777662
H            0.42620085167814        2.07707287537992       -0.91734377242546
H            2.15066392634351       -0.51413443946086        0.65365091455117
H            2.15627252107449        1.18584662866565        0.16137633743042
H            2.67227114129017        0.51282505528725       -2.17888998361618
H            2.71745459937485       -1.18595536993563       -1.68381019395324
H            4.52948836111121        1.96078308428018       -1.70319504753862
H            7.02996170756816        1.53781729433420       -1.69656666816477
H            6.50841147072821        2.28137612467244       -0.19796574968238
H            8.85993524756454        2.12891918112639       -0.20992435036667
H           10.03667122153983        1.04717549379592        0.76376089145602
H            7.08323375446834       -3.81977956907284        1.54475303215930
H            5.45518190642368       -3.11747842215926        1.69857578017313
H            6.04631738980956       -3.67569792818195        0.10486525351378
H            4.39926729202481       -1.99225108493940       -0.10437745796317
H           -0.15222993940495       -1.58094119314326       -1.67086411523862
H           -0.96879984795697       -1.28733778013057       -0.12189463417069
H            0.66339476324467       -1.97061544851003       -0.14941543516826
H           -4.94211275978536        2.62664531367409       -0.29409482677203
H           -4.24608904202559        2.73620189541930        2.66393800859604
H           -5.19855316431203        1.46598921385889        1.88593061483190
H           -5.81079202060394        3.11838849628875        1.94355297156130
H           -3.16335415995502        4.57756165424524        1.22004360624502
H           -3.50878191196479        4.61987618625740       -0.51764678819841
H           -4.79411062929877        4.90377723698752        0.64518120279441
H           -1.14359192205571        2.94880494823567        2.85692873500644

          :  Hamiltonian                  GFN2-xTB          :
         :: total energy             -99.339744188904 Eh    ::
         :: gradient norm              0.007712977956 Eh/a0 ::
         :: HOMO-LUMO gap              1.150960426709 eV    ::
         :: SCC energy              -100.702411685269 Eh    ::
         :: -> dispersion             -0.075067336926 Eh    ::
         :: repulsion energy           1.361432085670 Eh    ::

    * Orbital Energies and Occupations

         #    Occupation            Energy/Eh            Energy/eV
      -------------------------------------------------------------
         1        2.0000           -0.8485093             -23.0891
       ...           ...                  ...                  ...
        78        1.9992           -0.5300038             -14.4221
        79        1.9987           -0.5224048             -14.2154
        80        1.9986           -0.5217196             -14.1967
        81        1.9985           -0.5207520             -14.1704
        82        1.9980           -0.5157538             -14.0344
        83        1.9968           -0.5083451             -13.8328
        84        1.9962           -0.5056379             -13.7591
        85        1.9954           -0.5028505             -13.6833
        86        1.9841           -0.4829552             -13.1419
        87        1.9823           -0.4813039             -13.0969
        88        1.9486           -0.4641262             -12.6295
        89        1.8942           -0.4522410             -12.3061
        90        1.6088           -0.4289515             -11.6724 (HOMO)
        91        0.4429           -0.3866545             -10.5214 (LUMO)
        92        0.1347           -0.3649429              -9.9306
        93        0.0172           -0.3314334              -9.0188
        94        0.0042           -0.3089428              -8.4068
        95        0.0034           -0.3057516              -8.3199
        96        0.0033           -0.3051133              -8.3026
        97        0.0000           -0.2266765              -6.1682
        98        0.0000           -0.1830055              -4.9798
        99                         -0.1310160              -3.5651
       100                         -0.0734354              -1.9983
       101                         -0.0610282              -1.6607
       ...                                ...                  ...
       171                          0.5804747              15.7955
      -------------------------------------------------------------
                  HL-Gap            0.0422970 Eh            1.1510 eV

     #   Z          covCN         q      C6AA      α(0)
     1   7 N        1.774    -0.272    27.886     7.820
     2   6 C        2.827     0.101    25.756     8.316
     3   6 C        3.908     0.006    20.415     6.422
     4   6 C        2.974     0.002    27.977     8.676
     5   6 C        2.921    -0.080    29.995     8.981
     6   6 C        2.863     0.128    25.182     8.225
     7   8 O        1.706    -0.234    17.872     5.708
     8   6 C        3.644     0.029    20.427     6.496
     9   6 C        2.864     0.127    25.210     8.230
    10   8 O        1.706    -0.233    17.855     5.705
    11   6 C        3.645     0.028    20.430     6.496
    12   6 C        2.914    -0.075    29.883     8.964
    13   6 C        2.921    -0.054    29.346     8.884
    14   6 C        3.813    -0.064    21.725     6.634
    15   6 C        3.802    -0.068    21.799     6.647
    16   6 C        2.843     0.002    27.980     8.669
    17   7 N        2.729     0.002    21.231     6.843
    18   6 C        3.754    -0.015    20.900     6.519
    19   6 C        3.809    -0.072    21.877     6.658
    20   6 C        2.954     0.006    27.888     8.662
    21   6 C        2.907    -0.061    29.512     8.908
    22   6 C        3.807    -0.069    21.822     6.650
    23   6 C        2.867     0.084    26.135     8.380
    24   8 O        1.712    -0.069    15.400     5.298
    25   6 C        2.744     0.002    27.951     8.657
    26   6 C        2.849     0.137    25.012     8.197
    27   8 O        1.706    -0.240    17.979     5.725
    28   6 C        3.644     0.028    20.446     6.500
    29   6 C        2.915    -0.095    30.380     9.038
    30   6 C        3.699    -0.068    21.973     6.704
    31   6 C        3.853    -0.007    20.675     6.467
    32   6 C        3.756    -0.118    22.819     6.811
    33   6 C        3.755    -0.118    22.808     6.810
    34   1 H        0.926     0.051     2.313     2.378
    35   1 H        0.924     0.052     2.293     2.368
    36   1 H        0.925     0.079     1.988     2.205
    37   1 H        0.924     0.046     2.371     2.408
    38   1 H        0.924     0.053     2.282     2.362
    39   1 H        0.925     0.079     1.989     2.205
    40   1 H        0.924     0.046     2.373     2.409
    41   1 H        0.926     0.049     2.328     2.386
    42   1 H        0.926     0.036     2.497     2.471
    43   1 H        0.925     0.058     2.224     2.332
    44   1 H        0.924     0.052     2.300     2.372
    45   1 H        0.925     0.065     2.144     2.290
    46   1 H        0.923     0.075     2.027     2.227
    47   1 H        0.922     0.006     2.957     2.689
    48   1 H        0.926     0.064     2.148     2.292
    49   1 H        0.924     0.066     2.129     2.282
    50   1 H        0.924     0.065     2.144     2.290
    51   1 H        0.924     0.053     2.283     2.363
    52   1 H        0.924     0.058     2.225     2.332
    53   1 H        0.926     0.046     2.372     2.408
    54   1 H        0.922     0.075     2.035     2.231
    55   1 H        0.924     0.072     2.064     2.246
    56   1 H        0.926     0.058     2.225     2.333
    57   1 H        0.926     0.087     1.909     2.160
    58   1 H        0.925     0.080     1.974     2.197
    59   1 H        0.924     0.049     2.338     2.391
    60   1 H        0.924     0.052     2.293     2.368
    61   1 H        0.926     0.046     2.370     2.407
    62   1 H        0.924     0.073     2.057     2.243
    63   1 H        0.924     0.078     1.995     2.209
    64   1 H        0.925     0.076     2.017     2.221
    65   1 H        0.924     0.036     2.508     2.476
    66   1 H        0.925     0.068     2.105     2.269
    67   1 H        0.925     0.035     2.521     2.483
    68   1 H        0.925     0.049     2.332     2.388
    69   1 H        0.925     0.059     2.212     2.326
    70   1 H        0.925     0.033     2.544     2.494
    71   1 H        0.925     0.053     2.288     2.365
    72   1 H        0.860     0.154     1.376     1.838

Wiberg/Mayer (AO) data.
largest (>0.10) Wiberg bond orders for each atom

     #   Z sym  total        # sym  WBO       # sym  WBO       # sym  WBO
 ---------------------------------------------------------------------------
     1   7 N    3.039 --     2 C    1.953    72 H    0.943
     2   6 C    3.924 --     1 N    1.953     3 C    0.996    47 H    0.898
     3   6 C    3.977 --     2 C    0.996     4 C    0.968    14 C    0.957
                            31 C    0.944
     4   6 C    3.954 --    13 C    1.419     5 C    1.367     3 C    0.968
     5   6 C    3.965 --     6 C    1.404     4 C    1.367    34 H    0.958
     6   6 C    3.910 --     5 C    1.404     9 C    1.226     7 O    1.095
     7   8 O    2.253 --     6 C    1.095     8 C    0.979
     8   6 C    3.934 --     7 O    0.979    36 H    0.977    35 H    0.974
                            37 H    0.974
     9   6 C    3.907 --    12 C    1.396     6 C    1.226    10 O    1.096
    10   8 O    2.251 --     9 C    1.096    11 C    0.979
    11   6 C    3.934 --    10 O    0.979    39 H    0.977    40 H    0.974
                            38 H    0.974
    12   6 C    3.965 --    13 C    1.401     9 C    1.396    41 H    0.964
    13   6 C    3.959 --     4 C    1.419    12 C    1.401    42 H    0.963
    14   6 C    3.974 --    15 C    0.984    44 H    0.973    43 H    0.969
                             3 C    0.957
    15   6 C    3.987 --    16 C    1.058    14 C    0.984    45 H    0.961
                            46 H    0.928
    16   6 C    3.561 --    17 N    1.374    15 C    1.058    48 H    0.959
    17   7 N    3.453 --    16 C    1.374    30 C    1.000    18 C    0.990
    18   6 C    3.960 --    17 N    0.990    19 C    0.969    50 H    0.968
                            49 H    0.965
    19   6 C    3.977 --    20 C    1.004    51 H    0.973    52 H    0.970
                            18 C    0.969
    20   6 C    3.966 --    21 C    1.665    29 C    1.212    19 C    1.004
    21   6 C    3.840 --    20 C    1.665    22 C    1.039    53 H    0.968
    22   6 C    3.986 --    21 C    1.039    23 C    1.020    55 H    0.931
                            54 H    0.923
    23   6 C    3.769 --    26 C    1.232    24 O    1.176    22 C    1.020
                            25 C    0.224
    24   8 O    2.568 --    25 C    1.279    23 C    1.176
    25   6 C    3.583 --    24 O    1.279    56 H    0.969    57 H    0.968
                            23 C    0.224
    26   6 C    3.899 --    29 C    1.421    23 C    1.232    27 O    1.094
    27   8 O    2.257 --    26 C    1.094    28 C    0.977
    28   6 C    3.933 --    58 H    0.977    27 O    0.977    60 H    0.975
                            59 H    0.975
    29   6 C    3.809 --    26 C    1.421    20 C    1.212    61 H    0.965
    30   6 C    3.960 --    17 N    1.000    64 H    0.978    62 H    0.967
                            63 H    0.962
    31   6 C    3.975 --    33 C    1.009    32 C    1.008    65 H    0.961
                             3 C    0.944
    32   6 C    3.982 --    31 C    1.008    67 H    0.982    68 H    0.982
                            66 H    0.975
    33   6 C    3.986 --    31 C    1.009    70 H    0.983    71 H    0.981
                            69 H    0.978
    34   1 H    0.996 --     5 C    0.958
    35   1 H    0.994 --     8 C    0.974
    36   1 H    0.993 --     8 C    0.977
    37   1 H    0.995 --     8 C    0.974
    38   1 H    0.994 --    11 C    0.974
    39   1 H    0.993 --    11 C    0.977
    40   1 H    0.994 --    11 C    0.974
    41   1 H    0.996 --    12 C    0.964
    42   1 H    0.998 --    13 C    0.963
    43   1 H    0.995 --    14 C    0.969
    44   1 H    0.996 --    14 C    0.973
    45   1 H    0.995 --    15 C    0.961
    46   1 H    0.968 --    15 C    0.928
    47   1 H    0.989 --     2 C    0.898
    48   1 H    0.995 --    16 C    0.959
    49   1 H    0.992 --    18 C    0.965
    50   1 H    0.994 --    18 C    0.968
    51   1 H    0.997 --    19 C    0.973
    52   1 H    0.996 --    19 C    0.970
    53   1 H    0.998 --    21 C    0.968
    54   1 H    0.967 --    22 C    0.923
    55   1 H    0.973 --    22 C    0.931
    56   1 H    0.997 --    25 C    0.969
    57   1 H    0.992 --    25 C    0.968
    58   1 H    0.993 --    28 C    0.977
    59   1 H    0.995 --    28 C    0.975
    60   1 H    0.995 --    28 C    0.975
    61   1 H    0.997 --    29 C    0.965
    62   1 H    0.985 --    30 C    0.967
    63   1 H    0.987 --    30 C    0.962
    64   1 H    0.994 --    30 C    0.978
    65   1 H    0.994 --    31 C    0.961
    66   1 H    0.992 --    32 C    0.975
    67   1 H    0.997 --    32 C    0.982
    68   1 H    0.995 --    32 C    0.982
    69   1 H    0.994 --    33 C    0.978
    70   1 H    0.998 --    33 C    0.983
    71   1 H    0.995 --    33 C    0.981
    72   1 H    0.972 --     1 N    0.943
 ---------------------------------------------------------------------------

molecular dipole:
                 x           y           z       tot (Debye)
 q only:        2.355       0.054      -0.754
   full:        2.723       0.014      -0.912       7.299

           -------------------------------------------------
          | TOTAL ENERGY              -99.339744188904 Eh   |
          | GRADIENT NORM               0.007712977956 Eh/α |
          | HOMO-LUMO GAP               1.150960426709 eV   |
           -------------------------------------------------

 * finished run on 2024/04/06 at 11:13:50.135
