   * xtb version 6.6.1 (8d0f1dd) compiled by 'conda@1efc2f54142f' on 2023-08-01
          program call               : xtb struc.xyz --opt loose --input .xc1 --gfn2

   ID    Z sym.   atoms
    1    7 N      1, 17
    2    6 C      2-6, 8, 9, 11-16, 18-23, 25, 26, 28-33
    3    8 O      7, 10, 24, 27
    4    1 H      34-72
constraining bond 1 42 to    5.6866700 Å, actual value:    2.8130409 Å

          :  Hamiltonian                  GFN2-xTB          :
 * total energy  :  -100.8785777 Eh     change       -0.4035485E-08 Eh
 * total energy  :  -101.6582222 Eh     change       -0.7796446E+00 Eh
 * total energy  :  -102.5465440 Eh     change       -0.8883218E+00 Eh
 * total energy  :  -103.4282645 Eh     change       -0.8817204E+00 Eh
 * total energy  :  -103.4653985 Eh     change       -0.3713402E-01 Eh
 * total energy  :  -103.4145484 Eh     change        0.5085005E-01 Eh
 * total energy  :  -103.5426075 Eh     change       -0.1280591E+00 Eh
 * total energy  :  -103.5629476 Eh     change       -0.2034010E-01 Eh
 * total energy  :  -103.5691107 Eh     change       -0.6163121E-02 Eh
 * total energy  :  -103.5745379 Eh     change       -0.5427146E-02 Eh
 * total energy  :  -103.7292882 Eh     change       -0.6120690E-03 Eh
 * total energy  :  -103.7293988 Eh     change       -0.1105716E-03 Eh
 * total energy  :  -103.7294705 Eh     change       -0.7167497E-04 Eh
 * total energy  :  -103.7295169 Eh     change       -0.4641170E-04 Eh
 * total energy  :  -103.7295380 Eh     change       -0.2116120E-04 Eh
 * total energy  :  -103.7295870 Eh     change       -0.4894288E-04 Eh
 * total energy  :  -103.7296222 Eh     change       -0.3525585E-04 Eh
 * total energy  :  -103.7296734 Eh     change       -0.5112994E-04 Eh
 * total energy  :  -103.7297017 Eh     change       -0.2835524E-04 Eh
   *** GEOMETRY OPTIMIZATION CONVERGED AFTER 127 ITERATIONS ***

 final structure:
================
72
 xtb: 6.6.1 (8d0f1dd)
N           -1.61058669981058        0.26285236366152        1.24599290020955
C           -1.38307820154306        1.37347551550582        0.31631787409892
C           -2.73670795947076        1.73722074865060       -0.35103686893166
C           -3.51625726524800        0.46814203257643       -0.08864059018786
C           -4.72619647129201        0.04798506364590       -0.61937441746047
C           -5.26007810072026       -1.16653712234638       -0.20898366282468
O           -6.41671512061275       -1.70131893982796       -0.66373129219326
C           -7.17631959248059       -0.98199269152186       -1.60571006768661
C           -4.58281832096729       -1.95702354680732        0.75858985721267
O           -5.20074454973845       -3.11333639858706        1.08591563835582
C           -4.62176097316092       -3.94271348712425        2.06401014036835
C           -3.37136681002824       -1.52547302183041        1.28534603041530
C           -2.86082980353701       -0.31710592214308        0.84135143120424
C           -2.39613584390599        1.88569896201555       -1.83843642817290
C           -1.38691813621857        0.76780445503808       -2.08176398253171
C           -0.47092292881457        0.85818698311040       -0.85934405942324
N            0.15813035195178       -0.41007630163742       -0.39792018010049
C            1.57986558204919       -0.24088619432545       -0.01022220180262
C            2.54356839923450       -0.12577653784987       -1.19317621575551
C            3.92801706158335        0.15194487080785       -0.66237655903005
C            4.41103385482835        1.44209524785437       -0.56847269700579
C            5.67897289442658        1.68641911009901       -0.05645629388096
C            6.47704538856992        0.64137725076852        0.37850833598657
O            7.72180203433590        0.76064158717838        0.88824997103743
C            8.29874206956477        2.04160389773923        0.98327955114378
C            5.98257193084611       -0.68645998249822        0.29626448305652
O            6.82305768292994       -1.64398247777053        0.75168223215579
C            6.43102759357596       -2.99134590050188        0.66905245788017
C            4.71907132531527       -0.90891906514665       -0.22100017760610
C           -0.04480940951495       -1.60448930659046       -1.22960076841409
C           -3.47371907003362        2.95566594840001        0.25051177984338
C           -3.70805027237721        2.77693411061214        1.75162485430213
C           -2.76719398021337        4.28704327620634       -0.00237687072701
H           -5.24169919047090        0.66319279344140       -1.33747607127727
H           -7.50183196362598       -0.01561005490489       -1.20771841020091
H           -8.04944365753538       -1.59927843023494       -1.80846602483075
H           -6.62067249984714       -0.82714114665087       -2.53673680114776
H           -4.54609098544608       -3.43384075523997        3.03026070052155
H           -5.29203467661759       -4.79450795870441        2.15878985981826
H           -3.63131541407884       -4.29643016336350        1.75833704102563
H           -2.84386214032955       -2.10105040163290        2.02780935265492
H           -1.50109422785860        0.35909662883210        1.92661631489091
H           -3.27705506875538        1.78634118699220       -2.46711414560437
H           -1.93572019924385        2.85248244150474       -2.03108198823496
H           -1.92661747767925       -0.17587550648804       -2.10823743341389
H           -0.84336915395398        0.89385081998216       -3.01608638403191
H           -0.91189303296124        2.20966803277251        0.83317699031511
H            0.31511796825992        1.58712515673152       -1.06028190468511
H            1.86961617251670       -1.09702624533754        0.60360183274797
H            1.66097890852481        0.65575511041302        0.60814561037874
H            2.23689895756695        0.68393081342605       -1.85623510092498
H            2.55583316625607       -1.05474815533653       -1.76331429599411
H            3.81236467798024        2.27448211871335       -0.90760424433712
H            6.03497437678872        2.70228068672414       -0.00633369717625
H            7.72001408051384        2.69535199469788        1.64395630409441
H            8.39823153443139        2.51167139182288       -0.00062958660577
H            9.28824848622230        1.88563995326590        1.40894143112501
H            7.26966732619705       -3.56514857667297        1.05767090066844
H            5.54515360228467       -3.19160370429105        1.28091870169515
H            6.23692059627564       -3.29233010121980       -0.36484983508375
H            4.33874971709267       -1.91545869836698       -0.30391724219190
H            0.25840417801400       -1.42314381808413       -2.25855046256293
H           -1.09058066385896       -1.90349159734277       -1.20658120080371
H            0.54977474376624       -2.42116349130664       -0.82393993314361
H           -4.45198007454172        2.99176889627693       -0.23972005858682
H           -2.77159561699690        2.82562455877826        2.30423856730086
H           -4.19595052179158        1.82850432918459        1.96327392168940
H           -4.34957585097505        3.57322725158589        2.11872042807345
H           -1.73759136342513        4.26791133822104        0.34939922444358
H           -2.77267581000572        4.55340365881958       -1.05538952278726
H           -3.28840840723675        5.07419118540136        0.53627691782278
H           -0.44507155797794       -0.53116654725771        0.51332088343624

          :  Hamiltonian                  GFN2-xTB          :
         :: total energy            -103.729701715411 Eh    ::
         :: gradient norm              0.001947312115 Eh/a0 ::
         :: HOMO-LUMO gap              3.533083428920 eV    ::
         :: SCC energy              -100.833313340009 Eh    ::
         :: -> dispersion             -0.077393525580 Eh    ::
         :: repulsion energy           1.549477025591 Eh    ::

    * Orbital Energies and Occupations

         #    Occupation            Energy/Eh            Energy/eV
      -------------------------------------------------------------
         1        2.0000           -0.8302194             -22.5914
       ...           ...                  ...                  ...
        78        1.9999           -0.5326067             -14.4930
        79        1.9998           -0.5304308             -14.4338
        80        1.9998           -0.5286633             -14.3857
        81        1.9998           -0.5246405             -14.2762
        82        1.9997           -0.5233640             -14.2415
        83        1.9997           -0.5191649             -14.1272
        84        1.9996           -0.5172477             -14.0750
        85        1.9994           -0.5104996             -13.8914
        86        1.9994           -0.5097542             -13.8711
        87        1.9976           -0.4873773             -13.2622
        88        1.9952           -0.4766932             -12.9715
        89        1.9743           -0.4499101             -12.2427
        90        1.9642           -0.4445755             -12.0975 (HOMO)
        91        0.0297           -0.3147370              -8.5644 (LUMO)
        92        0.0185           -0.3071709              -8.3585
        93        0.0133           -0.3019190              -8.2156
        94        0.0108           -0.2985062              -8.1228
        95        0.0000           -0.2058563              -5.6016
        96        0.0000           -0.1876788              -5.1070
        97        0.0000           -0.1756168              -4.7788
        98        0.0000           -0.1315997              -3.5810
        99        0.0000           -0.1224594              -3.3323
       100                         -0.1095266              -2.9804
       101                         -0.0952813              -2.5927
       ...                                ...                  ...
       171                          1.1810273              32.1374
      -------------------------------------------------------------
                  HL-Gap            0.1298384 Eh            3.5331 eV

     #   Z          covCN         q      C6AA      α(0)
     1   7 N        2.740    -0.246    26.392     7.630
     2   6 C        3.873     0.021    20.182     6.388
     3   6 C        3.946     0.008    20.378     6.415
     4   6 C        3.019    -0.031    28.761     8.797
     5   6 C        2.915    -0.080    29.996     8.981
     6   6 C        2.866     0.121    25.340     8.251
     7   8 O        1.706    -0.238    17.951     5.720
     8   6 C        3.645     0.029    20.416     6.494
     9   6 C        2.870     0.124    25.268     8.240
    10   8 O        1.706    -0.236    17.909     5.714
    11   6 C        3.645     0.030    20.401     6.491
    12   6 C        2.910    -0.103    30.590     9.069
    13   6 C        2.981     0.028    27.371     8.582
    14   6 C        3.832    -0.071    21.840     6.649
    15   6 C        3.822    -0.074    21.887     6.658
    16   6 C        3.807     0.000    20.569     6.456
    17   7 N        3.567    -0.009    21.432     6.876
    18   6 C        3.749    -0.024    21.067     6.546
    19   6 C        3.807    -0.072    21.874     6.658
    20   6 C        2.972    -0.013    28.343     8.733
    21   6 C        2.921    -0.056    29.388     8.890
    22   6 C        2.915    -0.072    29.798     8.951
    23   6 C        2.866     0.129    25.178     8.225
    24   8 O        1.706    -0.236    17.910     5.714
    25   6 C        3.645     0.029    20.420     6.494
    26   6 C        2.864     0.128    25.197     8.228
    27   8 O        1.706    -0.238    17.946     5.720
    28   6 C        3.645     0.032    20.376     6.488
    29   6 C        2.920    -0.086    30.155     9.005
    30   6 C        3.692    -0.079    22.195     6.741
    31   6 C        3.851    -0.017    20.840     6.493
    32   6 C        3.755    -0.110    22.655     6.787
    33   6 C        3.755    -0.114    22.743     6.800
    34   1 H        0.926     0.051     2.310     2.377
    35   1 H        0.924     0.049     2.334     2.389
    36   1 H        0.925     0.078     2.002     2.213
    37   1 H        0.924     0.045     2.388     2.416
    38   1 H        0.924     0.048     2.343     2.394
    39   1 H        0.925     0.079     1.993     2.208
    40   1 H        0.924     0.042     2.429     2.437
    41   1 H        0.926     0.043     2.412     2.429
    42   1 H        0.863     0.201     1.099     1.642
    43   1 H        0.925     0.062     2.181     2.309
    44   1 H        0.925     0.056     2.244     2.343
    45   1 H        0.925     0.061     2.181     2.310
    46   1 H        0.925     0.057     2.238     2.339
    47   1 H        0.925     0.049     2.334     2.389
    48   1 H        0.924     0.075     2.031     2.229
    49   1 H        0.924     0.074     2.040     2.234
    50   1 H        0.924     0.074     2.040     2.233
    51   1 H        0.924     0.052     2.290     2.367
    52   1 H        0.925     0.056     2.242     2.342
    53   1 H        0.926     0.034     2.532     2.489
    54   1 H        0.926     0.052     2.295     2.369
    55   1 H        0.924     0.047     2.357     2.401
    56   1 H        0.924     0.049     2.327     2.386
    57   1 H        0.925     0.077     2.013     2.219
    58   1 H        0.925     0.077     2.014     2.219
    59   1 H        0.924     0.040     2.447     2.446
    60   1 H        0.924     0.046     2.373     2.409
    61   1 H        0.926     0.037     2.496     2.470
    62   1 H        0.925     0.094     1.842     2.122
    63   1 H        0.925     0.088     1.895     2.153
    64   1 H        0.925     0.090     1.878     2.143
    65   1 H        0.924     0.047     2.354     2.399
    66   1 H        0.925     0.032     2.552     2.498
    67   1 H        0.925     0.040     2.453     2.449
    68   1 H        0.925     0.050     2.315     2.379
    69   1 H        0.925     0.033     2.547     2.496
    70   1 H        0.925     0.042     2.422     2.434
    71   1 H        0.925     0.056     2.245     2.343
    72   1 H        0.889     0.244     0.904     1.488

Wiberg/Mayer (AO) data.
largest (>0.10) Wiberg bond orders for each atom

     #   Z sym  total        # sym  WBO       # sym  WBO       # sym  WBO
 ---------------------------------------------------------------------------
     1   7 N    3.334 --    13 C    1.006     2 C    0.999    42 H    0.943
                            72 H    0.171
     2   6 C    3.969 --     1 N    0.999    47 H    0.966     3 C    0.963
                            16 C    0.953
     3   6 C    3.984 --     4 C    0.983    14 C    0.978     2 C    0.963
                            31 C    0.961
     4   6 C    3.961 --     5 C    1.380    13 C    1.376     3 C    0.983
     5   6 C    3.962 --     6 C    1.393     4 C    1.380    34 H    0.962
     6   6 C    3.921 --     5 C    1.393     9 C    1.242     7 O    1.089
     7   8 O    2.258 --     6 C    1.089     8 C    0.980
     8   6 C    3.937 --     7 O    0.980    36 H    0.977    37 H    0.975
                            35 H    0.975
     9   6 C    3.918 --    12 C    1.385     6 C    1.242    10 O    1.092
    10   8 O    2.265 --     9 C    1.092    11 C    0.981
    11   6 C    3.938 --    10 O    0.981    39 H    0.977    40 H    0.975
                            38 H    0.975
    12   6 C    3.957 --     9 C    1.385    13 C    1.369    41 H    0.964
    13   6 C    3.937 --     4 C    1.376    12 C    1.369     1 N    1.006
    14   6 C    3.990 --    15 C    1.001     3 C    0.978    43 H    0.973
                            44 H    0.970
    15   6 C    3.988 --    14 C    1.001    16 C    0.997    46 H    0.976
                            45 H    0.968
    16   6 C    3.938 --    15 C    0.997    48 H    0.964     2 C    0.953
                            17 N    0.935
    17   7 N    3.721 --    30 C    0.972    18 C    0.944    16 C    0.935
                            72 H    0.736
    18   6 C    3.936 --    19 C    0.994    50 H    0.970    49 H    0.969
                            17 N    0.944
    19   6 C    3.987 --    20 C    0.996    18 C    0.994    52 H    0.970
                            51 H    0.970
    20   6 C    3.964 --    21 C    1.436    29 C    1.366    19 C    0.996
    21   6 C    3.973 --    20 C    1.436    22 C    1.399    53 H    0.969
    22   6 C    3.972 --    23 C    1.401    21 C    1.399    54 H    0.964
    23   6 C    3.924 --    22 C    1.401    26 C    1.235    24 O    1.095
    24   8 O    2.264 --    23 C    1.095    25 C    0.979
    25   6 C    3.936 --    24 O    0.979    57 H    0.978    55 H    0.975
                            56 H    0.975
    26   6 C    3.924 --    29 C    1.410    23 C    1.235    27 O    1.087
    27   8 O    2.260 --    26 C    1.087    28 C    0.983
    28   6 C    3.940 --    27 O    0.983    58 H    0.978    59 H    0.975
                            60 H    0.975
    29   6 C    3.969 --    26 C    1.410    20 C    1.366    61 H    0.964
    30   6 C    3.938 --    62 H    0.976    63 H    0.975    64 H    0.974
                            17 N    0.972
    31   6 C    3.989 --    33 C    1.008    32 C    1.008    65 H    0.964
                             3 C    0.961
    32   6 C    3.994 --    31 C    1.008    66 H    0.986    68 H    0.984
                            67 H    0.983
    33   6 C    3.993 --    31 C    1.008    69 H    0.984    70 H    0.983
                            71 H    0.982
    34   1 H    0.997 --     5 C    0.962
    35   1 H    0.996 --     8 C    0.975
    36   1 H    0.993 --     8 C    0.977
    37   1 H    0.997 --     8 C    0.975
    38   1 H    0.997 --    11 C    0.975
    39   1 H    0.993 --    11 C    0.977
    40   1 H    0.997 --    11 C    0.975
    41   1 H    0.997 --    12 C    0.964
    42   1 H    0.959 --     1 N    0.943
    43   1 H    0.996 --    14 C    0.973
    44   1 H    0.996 --    14 C    0.970
    45   1 H    0.996 --    15 C    0.968
    46   1 H    0.996 --    15 C    0.976
    47   1 H    0.997 --     2 C    0.966
    48   1 H    0.994 --    16 C    0.964
    49   1 H    0.994 --    18 C    0.969
    50   1 H    0.994 --    18 C    0.970
    51   1 H    0.997 --    19 C    0.970
    52   1 H    0.996 --    19 C    0.970
    53   1 H    0.999 --    21 C    0.969
    54   1 H    0.996 --    22 C    0.964
    55   1 H    0.996 --    25 C    0.975
    56   1 H    0.996 --    25 C    0.975
    57   1 H    0.994 --    25 C    0.978
    58   1 H    0.994 --    28 C    0.978
    59   1 H    0.997 --    28 C    0.975
    60   1 H    0.997 --    28 C    0.975
    61   1 H    0.998 --    29 C    0.964
    62   1 H    0.991 --    30 C    0.976
    63   1 H    0.992 --    30 C    0.975
    64   1 H    0.992 --    30 C    0.974
    65   1 H    0.997 --    31 C    0.964
    66   1 H    0.999 --    32 C    0.986
    67   1 H    0.998 --    32 C    0.983
    68   1 H    0.997 --    32 C    0.984
    69   1 H    0.999 --    33 C    0.984
    70   1 H    0.998 --    33 C    0.983
    71   1 H    0.996 --    33 C    0.982
    72   1 H    0.940 --    17 N    0.736     1 N    0.171
 ---------------------------------------------------------------------------

molecular dipole:
                 x           y           z       tot (Debye)
 q only:       -0.267      -0.137      -0.528
   full:       -0.329       0.044      -0.293       1.124

           -------------------------------------------------
          | TOTAL ENERGY             -103.729701715411 Eh   |
          | GRADIENT NORM               0.001947312115 Eh/α |
          | HOMO-LUMO GAP               3.533083428920 eV   |
           -------------------------------------------------

 * finished run on 2024/04/06 at 11:15:38.771
