   * xtb version 6.6.1 (8d0f1dd) compiled by 'conda@1efc2f54142f' on 2023-08-01
          program call               : xtb xtbopt.xyz --opt crude --input .xc2 --gfn2

   ID    Z sym.   atoms
    1    7 N      1, 17
    2    6 C      2-6, 8, 9, 11-16, 18-23, 25, 26, 28-33
    3    8 O      7, 10, 24, 27
    4    1 H      34-72
########################################################################
[WARNING] Please study the warnings concerning your input carefully
-1- readin_getIntValue: could not parse ''
########################################################################

          :  Hamiltonian                  GFN2-xTB          :
 * total energy  :   -99.2826224 Eh     change        0.4263256E-13 Eh
 * total energy  :   -99.4635325 Eh     change       -0.1809101E+00 Eh
 * total energy  :   -99.4668068 Eh     change       -0.3274322E-02 Eh
 * total energy  :   -99.4672187 Eh     change       -0.4118873E-03 Eh
   *** GEOMETRY OPTIMIZATION CONVERGED AFTER 4 ITERATIONS ***

 final structure:
================
72
 xtb: 6.6.1 (8d0f1dd)
N           -1.60444644585872        0.22675419458161        1.19738225344781
C           -1.38557742118888        1.36402611176914        0.31072232287847
C           -2.74003186818417        1.73236398912263       -0.35678172459075
C           -3.52670848206510        0.46753982996897       -0.09053208336058
C           -4.73840312858281        0.04967172358774       -0.62023836359289
C           -5.27290825925659       -1.16414158410730       -0.20766816514743
O           -6.42868017247472       -1.69917135373257       -0.66348296425888
C           -7.18459920048287       -0.97962050874786       -1.60765242291167
C           -4.59765199202393       -1.95501065448743        0.76121309372643
O           -5.21361126943256       -3.11285854281564        1.08652001884291
C           -4.63119689518897       -3.94179477416195        2.06322851495939
C           -3.38602377578537       -1.52579216863008        1.28814877916552
C           -2.87393523799407       -0.31869106031562        0.84335093808053
C           -2.40021450805098        1.88084519034158       -1.84442646676164
C           -1.38713080658098        0.76686210842411       -2.08954115611519
C           -0.46827218084341        0.86036394566226       -0.86981418576165
N            0.16757388629203       -0.40683105283062       -0.41405233099070
C            1.58545567499960       -0.23753149414158       -0.02027634803358
C            2.55331260569061       -0.12250369711780       -1.19883615505626
C            3.93612237706763        0.15391406621661       -0.66576525099495
C            4.41818292267220        1.44388857503399       -0.57015073854423
C            5.68431837832526        1.68782448405911       -0.05443587639901
C            6.48150294284538        0.64276800186887        0.38199496583724
O            7.72518086775138        0.76295855584265        0.89427920861843
C            8.30096614228238        2.04467918208882        0.98566232071075
C            5.98786367349757       -0.68510263194368        0.29767553028211
O            6.82836203787013       -1.64358022729080        0.75118205382774
C            6.43404868720563       -2.99070702344896        0.66858891666315
C            4.72551935495391       -0.90706238421478       -0.22240868637362
C           -0.03743940285019       -1.60335783151984       -1.24060851818077
C           -3.47266356038236        2.95321065851579        0.24602667216771
C           -3.70711941828441        2.77405028687318        1.74704851952268
C           -2.76444540752701        4.28386967287440       -0.00557051456414
H           -5.25285676625781        0.66384355391873       -1.33990014704719
H           -7.50820034388230       -0.01247116170151       -1.21079156160841
H           -8.05817852644714       -1.59542145691975       -1.81103506501795
H           -6.62670076437737       -0.82629134455405       -2.53732263812999
H           -4.55072790692191       -3.43156638191933        3.02838647417527
H           -5.30180750648427       -4.79278672974169        2.16204701965157
H           -3.64235279556447       -4.29732208857876        1.75379515088299
H           -2.85590898179919       -2.10266904418628        2.02730547658128
H           -1.45775692712708        0.38121900974439        2.19227280760437
H           -3.28074184411388        1.77953682435364       -2.47307172987692
H           -1.94241585969279        2.84905829196414       -2.03700095066154
H           -1.92280164710841       -0.17899684867603       -2.11261979936722
H           -0.84787910620668        0.89375452661318       -3.02621283180954
H           -0.91965936219158        2.19687142469769        0.83494772808975
H            0.31324059122941        1.59393581804674       -1.06971975113762
H            1.87052128871672       -1.09428092387839        0.59471986778687
H            1.66239922719004        0.65789676388212        0.60016956044041
H            2.24752281174303        0.68772523447425       -1.86165921370717
H            2.56468827338837       -1.05131763179304       -1.76898310769430
H            3.81987518808834        2.27596322102253       -0.91034083071277
H            6.04001848856427        2.70346882920497       -0.00410006718588
H            7.72229458450918        2.69895886750030        1.64531214657044
H            8.39832644636786        2.51207824347823        0.00090887171040
H            9.29083075138471        1.88977928747086        1.41030952124748
H            7.27209569214800       -3.56512393443743        1.05842190747083
H            5.54680117507414       -3.18930249792933        1.27992926994307
H            6.24061994450115       -3.29200181009085       -0.36605793616072
H            4.34438648465536       -1.91313134503046       -0.30531598411853
H            0.26364062790174       -1.42969383502556       -2.27094882144830
H           -1.08343388493740       -1.90028734625450       -1.21367256755944
H            0.55534525462958       -2.41835134587104       -0.82950313683503
H           -4.45116902102574        2.99153264031970       -0.24336305272505
H           -2.77025015843222        2.82081196257500        2.29892444929025
H           -4.19638422972003        1.82643896020913        1.95872920490638
H           -4.34703186998799        3.57144150683521        2.11446533756604
H           -1.73503007037765        4.26295598353199        0.34548616103917
H           -2.77011520074294        4.55222174991151       -1.05776087152065
H           -3.28408429522797        5.07069328127528        0.53456172094781
H           -0.44795428287968       -0.52686431925323        0.49917007393962

          :  Hamiltonian                  GFN2-xTB          :
         :: total energy             -99.467218678358 Eh    ::
         :: gradient norm              0.008067421702 Eh/a0 ::
         :: HOMO-LUMO gap              3.515839542302 eV    ::
         :: SCC energy              -100.797276395864 Eh    ::
         :: -> dispersion             -0.077264347079 Eh    ::
         :: repulsion energy           1.328840744106 Eh    ::

    * Orbital Energies and Occupations

         #    Occupation            Energy/Eh            Energy/eV
      -------------------------------------------------------------
         1        2.0000           -0.8274322             -22.5156
       ...           ...                  ...                  ...
        78        1.9999           -0.5328289             -14.4990
        79        1.9998           -0.5306926             -14.4409
        80        1.9998           -0.5282743             -14.3751
        81        1.9998           -0.5244887             -14.2721
        82        1.9997           -0.5233257             -14.2404
        83        1.9997           -0.5187327             -14.1154
        84        1.9996           -0.5173308             -14.0773
        85        1.9994           -0.5110305             -13.9058
        86        1.9994           -0.5093464             -13.8600
        87        1.9976           -0.4875793             -13.2677
        88        1.9950           -0.4762175             -12.9585
        89        1.9750           -0.4504133             -12.2564
        90        1.9630           -0.4441295             -12.0854 (HOMO)
        91        0.0299           -0.3149247              -8.5695 (LUMO)
        92        0.0199           -0.3083807              -8.3915
        93        0.0128           -0.3013070              -8.1990
        94        0.0103           -0.2979012              -8.1063
        95        0.0000           -0.2043663              -5.5611
        96        0.0000           -0.1888961              -5.1401
        97        0.0000           -0.1748365              -4.7575
        98        0.0000           -0.1362880              -3.7086
        99        0.0000           -0.1271423              -3.4597
       100        0.0000           -0.1161754              -3.1613
       101                         -0.0976608              -2.6575
       ...                                ...                  ...
       171                          0.5929430              16.1348
      -------------------------------------------------------------
                  HL-Gap            0.1292047 Eh            3.5158 eV

     #   Z          covCN         q      C6AA      α(0)
     1   7 N        2.778    -0.214    25.665     7.524
     2   6 C        3.870     0.023    20.149     6.383
     3   6 C        3.945     0.008    20.376     6.414
     4   6 C        3.019    -0.030    28.731     8.793
     5   6 C        2.914    -0.080    29.999     8.981
     6   6 C        2.866     0.121    25.333     8.250
     7   8 O        1.706    -0.238    17.943     5.719
     8   6 C        3.645     0.029    20.414     6.494
     9   6 C        2.870     0.125    25.262     8.239
    10   8 O        1.706    -0.236    17.906     5.713
    11   6 C        3.646     0.030    20.402     6.491
    12   6 C        2.910    -0.102    30.574     9.067
    13   6 C        2.979     0.033    27.249     8.563
    14   6 C        3.831    -0.071    21.830     6.648
    15   6 C        3.822    -0.073    21.873     6.655
    16   6 C        3.807     0.002    20.539     6.452
    17   7 N        3.565    -0.016    21.548     6.894
    18   6 C        3.749    -0.023    21.050     6.544
    19   6 C        3.807    -0.072    21.870     6.657
    20   6 C        2.972    -0.013    28.332     8.731
    21   6 C        2.921    -0.056    29.386     8.890
    22   6 C        2.915    -0.072    29.799     8.952
    23   6 C        2.866     0.129    25.180     8.225
    24   8 O        1.706    -0.236    17.913     5.714
    25   6 C        3.646     0.029    20.419     6.494
    26   6 C        2.864     0.128    25.197     8.228
    27   8 O        1.706    -0.238    17.948     5.720
    28   6 C        3.645     0.032    20.377     6.488
    29   6 C        2.920    -0.086    30.152     9.005
    30   6 C        3.692    -0.077    22.168     6.737
    31   6 C        3.851    -0.017    20.842     6.493
    32   6 C        3.755    -0.109    22.648     6.786
    33   6 C        3.755    -0.114    22.741     6.800
    34   1 H        0.926     0.051     2.309     2.376
    35   1 H        0.924     0.049     2.334     2.389
    36   1 H        0.925     0.078     2.001     2.212
    37   1 H        0.924     0.045     2.386     2.415
    38   1 H        0.924     0.048     2.345     2.395
    39   1 H        0.925     0.079     1.991     2.207
    40   1 H        0.924     0.042     2.424     2.435
    41   1 H        0.926     0.044     2.401     2.423
    42   1 H        0.860     0.166     1.295     1.783
    43   1 H        0.925     0.061     2.187     2.312
    44   1 H        0.925     0.056     2.248     2.345
    45   1 H        0.925     0.061     2.188     2.313
    46   1 H        0.925     0.056     2.241     2.341
    47   1 H        0.925     0.050     2.324     2.384
    48   1 H        0.924     0.074     2.042     2.235
    49   1 H        0.924     0.073     2.051     2.240
    50   1 H        0.924     0.073     2.054     2.241
    51   1 H        0.924     0.052     2.295     2.369
    52   1 H        0.925     0.056     2.245     2.343
    53   1 H        0.926     0.034     2.532     2.488
    54   1 H        0.926     0.052     2.297     2.370
    55   1 H        0.924     0.047     2.357     2.401
    56   1 H        0.924     0.049     2.327     2.385
    57   1 H        0.925     0.077     2.014     2.219
    58   1 H        0.925     0.077     2.014     2.219
    59   1 H        0.924     0.040     2.446     2.446
    60   1 H        0.924     0.046     2.373     2.409
    61   1 H        0.926     0.037     2.493     2.469
    62   1 H        0.925     0.092     1.858     2.132
    63   1 H        0.925     0.087     1.911     2.162
    64   1 H        0.925     0.089     1.888     2.149
    65   1 H        0.924     0.047     2.355     2.400
    66   1 H        0.925     0.031     2.567     2.506
    67   1 H        0.925     0.039     2.460     2.453
    68   1 H        0.925     0.051     2.310     2.377
    69   1 H        0.925     0.033     2.548     2.496
    70   1 H        0.925     0.042     2.419     2.432
    71   1 H        0.925     0.056     2.245     2.343
    72   1 H        0.923     0.246     0.893     1.478

Wiberg/Mayer (AO) data.
largest (>0.10) Wiberg bond orders for each atom

     #   Z sym  total        # sym  WBO       # sym  WBO       # sym  WBO
 ---------------------------------------------------------------------------
     1   7 N    3.354 --    13 C    1.011     2 C    1.001    42 H    0.941
                            72 H    0.193
     2   6 C    3.968 --     1 N    1.001    47 H    0.967     3 C    0.962
                            16 C    0.952
     3   6 C    3.984 --     4 C    0.983    14 C    0.978     2 C    0.962
                            31 C    0.961
     4   6 C    3.961 --     5 C    1.380    13 C    1.374     3 C    0.983
     5   6 C    3.962 --     6 C    1.392     4 C    1.380    34 H    0.962
     6   6 C    3.920 --     5 C    1.392     9 C    1.241     7 O    1.089
     7   8 O    2.259 --     6 C    1.089     8 C    0.980
     8   6 C    3.937 --     7 O    0.980    36 H    0.977    37 H    0.975
                            35 H    0.975
     9   6 C    3.919 --    12 C    1.387     6 C    1.241    10 O    1.092
    10   8 O    2.265 --     9 C    1.092    11 C    0.981
    11   6 C    3.938 --    10 O    0.981    39 H    0.977    40 H    0.975
                            38 H    0.975
    12   6 C    3.957 --     9 C    1.387    13 C    1.367    41 H    0.963
    13   6 C    3.935 --     4 C    1.374    12 C    1.367     1 N    1.011
    14   6 C    3.990 --    15 C    1.002     3 C    0.978    43 H    0.973
                            44 H    0.970
    15   6 C    3.989 --    14 C    1.002    16 C    0.997    46 H    0.976
                            45 H    0.968
    16   6 C    3.940 --    15 C    0.997    48 H    0.964     2 C    0.952
                            17 N    0.937
    17   7 N    3.712 --    30 C    0.973    18 C    0.946    16 C    0.937
                            72 H    0.714
    18   6 C    3.938 --    19 C    0.994    50 H    0.970    49 H    0.969
                            17 N    0.946
    19   6 C    3.987 --    20 C    0.997    18 C    0.994    51 H    0.970
                            52 H    0.970
    20   6 C    3.964 --    21 C    1.436    29 C    1.366    19 C    0.997
    21   6 C    3.973 --    20 C    1.436    22 C    1.399    53 H    0.969
    22   6 C    3.972 --    23 C    1.401    21 C    1.399    54 H    0.964
    23   6 C    3.924 --    22 C    1.401    26 C    1.235    24 O    1.094
    24   8 O    2.263 --    23 C    1.094    25 C    0.979
    25   6 C    3.936 --    24 O    0.979    57 H    0.978    55 H    0.975
                            56 H    0.975
    26   6 C    3.924 --    29 C    1.410    23 C    1.235    27 O    1.087
    27   8 O    2.259 --    26 C    1.087    28 C    0.983
    28   6 C    3.940 --    27 O    0.983    58 H    0.978    59 H    0.975
                            60 H    0.975
    29   6 C    3.969 --    26 C    1.410    20 C    1.366    61 H    0.964
    30   6 C    3.939 --    62 H    0.977    63 H    0.975    64 H    0.974
                            17 N    0.973
    31   6 C    3.989 --    33 C    1.008    32 C    1.008    65 H    0.964
                             3 C    0.961
    32   6 C    3.994 --    31 C    1.008    66 H    0.985    68 H    0.984
                            67 H    0.983
    33   6 C    3.993 --    31 C    1.008    69 H    0.984    70 H    0.982
                            71 H    0.982
    34   1 H    0.997 --     5 C    0.962
    35   1 H    0.997 --     8 C    0.975
    36   1 H    0.993 --     8 C    0.977
    37   1 H    0.997 --     8 C    0.975
    38   1 H    0.997 --    11 C    0.975
    39   1 H    0.993 --    11 C    0.977
    40   1 H    0.997 --    11 C    0.975
    41   1 H    0.997 --    12 C    0.963
    42   1 H    0.971 --     1 N    0.941
    43   1 H    0.996 --    14 C    0.973
    44   1 H    0.996 --    14 C    0.970
    45   1 H    0.996 --    15 C    0.968
    46   1 H    0.996 --    15 C    0.976
    47   1 H    0.997 --     2 C    0.967
    48   1 H    0.994 --    16 C    0.964
    49   1 H    0.994 --    18 C    0.969
    50   1 H    0.995 --    18 C    0.970
    51   1 H    0.997 --    19 C    0.970
    52   1 H    0.996 --    19 C    0.970
    53   1 H    0.999 --    21 C    0.969
    54   1 H    0.996 --    22 C    0.964
    55   1 H    0.996 --    25 C    0.975
    56   1 H    0.996 --    25 C    0.975
    57   1 H    0.994 --    25 C    0.978
    58   1 H    0.994 --    28 C    0.978
    59   1 H    0.997 --    28 C    0.975
    60   1 H    0.997 --    28 C    0.975
    61   1 H    0.998 --    29 C    0.964
    62   1 H    0.991 --    30 C    0.977
    63   1 H    0.992 --    30 C    0.975
    64   1 H    0.992 --    30 C    0.974
    65   1 H    0.997 --    31 C    0.964
    66   1 H    0.999 --    32 C    0.985
    67   1 H    0.998 --    32 C    0.983
    68   1 H    0.997 --    32 C    0.984
    69   1 H    0.999 --    33 C    0.984
    70   1 H    0.998 --    33 C    0.982
    71   1 H    0.996 --    33 C    0.982
    72   1 H    0.939 --    17 N    0.714     1 N    0.193
 ---------------------------------------------------------------------------

molecular dipole:
                 x           y           z       tot (Debye)
 q only:       -0.328      -0.118      -0.469
   full:       -0.399       0.092      -0.215       1.175

           -------------------------------------------------
          | TOTAL ENERGY              -99.467218678358 Eh   |
          | GRADIENT NORM               0.008067421702 Eh/α |
          | HOMO-LUMO GAP               3.515839542302 eV   |
           -------------------------------------------------

 * finished run on 2024/04/06 at 11:15:39.730
