   * xtb version 6.6.1 (8d0f1dd) compiled by 'conda@1efc2f54142f' on 2023-08-01
          program call               : xtb struc.xyz --opt loose --input .xc1 --gfn2

   ID    Z sym.   atoms
    1    7 N      1, 17
    2    6 C      2-6, 8, 9, 11-16, 18-23, 25, 26, 28-33
    3    8 O      7, 10, 24, 27
    4    1 H      34-72
constraining bond 14 33 to    6.0000000 Å, actual value:    3.0654104 Å

          :  Hamiltonian                  GFN2-xTB          :
 * total energy  :   -97.8664635 Eh     change       -0.4035485E-08 Eh
 * total energy  :   -98.2613948 Eh     change       -0.3949313E+00 Eh
 * total energy  :   -98.4978255 Eh     change       -0.2364307E+00 Eh
 * total energy  :   -98.6646538 Eh     change       -0.1668283E+00 Eh
 * total energy  :   -98.7894771 Eh     change       -0.1248234E+00 Eh
 * total energy  :   -98.8889313 Eh     change       -0.9945421E-01 Eh
 * total energy  :   -98.9720135 Eh     change       -0.8308221E-01 Eh
 * total energy  :   -99.0408624 Eh     change       -0.6884884E-01 Eh
 * total energy  :   -99.0923042 Eh     change       -0.5144186E-01 Eh
 * total energy  :   -99.1256324 Eh     change       -0.3332814E-01 Eh
 * total energy  :   -99.2621190 Eh     change       -0.8208796E-03 Eh
 * total energy  :   -99.2627165 Eh     change       -0.5975567E-03 Eh
 * total energy  :   -99.2629760 Eh     change       -0.2594713E-03 Eh
 * total energy  :   -99.2631028 Eh     change       -0.1267743E-03 Eh
 * total energy  :   -99.2632143 Eh     change       -0.1115490E-03 Eh
 * total energy  :   -99.2633238 Eh     change       -0.1095102E-03 Eh
 * total energy  :   -99.2634013 Eh     change       -0.7743178E-04 Eh
 * total energy  :   -99.2634558 Eh     change       -0.5451614E-04 Eh
 * total energy  :   -99.2635039 Eh     change       -0.4810063E-04 Eh
   *** GEOMETRY OPTIMIZATION CONVERGED AFTER 32 ITERATIONS ***

 final structure:
================
72
 xtb: 6.6.1 (8d0f1dd)
N           -2.05863213349512        2.64414221412227        2.03105959217030
C           -1.85861154718321        2.05644116779248        0.94537067516476
C           -2.95259508571798        1.74804301163816       -0.06648708515063
C           -3.44731548813098        0.31816459899221        0.15027956249598
C           -4.47588162558006       -0.15066489349345       -0.66901410867071
C           -4.96925886429675       -1.43738671554990       -0.53887462712716
O           -5.95391924137558       -1.97494652794038       -1.28905223115636
C           -6.58141009755150       -1.18240664776862       -2.26929090150038
C           -4.42440594254684       -2.29535598073909        0.45364724052785
O           -4.96212669790318       -3.53202870536127        0.51283788664490
C           -4.52970104519629       -4.41556186420946        1.52089221999271
C           -3.41275448929028       -1.81586750273214        1.26913873914491
C           -2.92688945118522       -0.52187190677380        1.11758244227828
C           -2.34971761080850        1.89283969354577       -1.48522772808874
C           -1.37283997434413        0.77349290710668       -1.88230793297282
C           -0.05443466763398        0.86046153734750       -1.21335790041586
N            0.61972500033073       -0.17401676977146       -0.71073228676069
C            1.99626682614160       -0.01571793606903       -0.30716866322120
C            2.97550070352106       -0.45864351854381       -1.41230182220396
C            4.38823538034730       -0.22707806068255       -0.95654664577403
C            5.01092163324958        0.99003344911468       -1.17505612062581
C            6.30012677311012        1.21915385834340       -0.71872936076579
C            6.99020986908703        0.23398377735997       -0.02834311799145
O            8.24075001515379        0.34686870092872        0.46078218561780
C            8.95350053693568        1.54338294221663        0.24881822502017
C            6.35867906169743       -1.01833698652813        0.20192642717511
O            7.10092801644872       -1.92107720582490        0.87678085703908
C            6.56904967225729       -3.20042479423639        1.12271806004546
C            5.06982188961697       -1.22412650014214       -0.26222444334545
C            0.07774036765122       -1.51084251703312       -0.70662158000764
C           -4.08830242946233        2.69737450796781        0.09762222533070
C           -4.85738991421789        2.73714168273949        1.33947966273208
C           -4.81827795691106        6.12158224340872        1.98132679419673
H           -4.89919496184969        0.51634099031696       -1.40232150381079
H           -7.05472408823153       -0.29899880958626       -1.83009027323142
H           -7.34594003892687       -1.81791430199285       -2.71210078057742
H           -5.87591123818318       -0.87154022959053       -3.04693245093892
H           -4.70506754814588       -4.00171586835094        2.51821128325144
H           -5.12556767044242       -5.31721375643686        1.39479257336097
H           -3.46929837337893       -4.66494311135158        1.40928129473853
H           -2.99327096173295       -2.44010354260408        2.04127681694710
H           -2.15126545055419       -0.17811258556515        1.78447463193508
H           -3.16965945822527        1.88546995819587       -2.20357508674776
H           -1.85400977080457        2.86359072588973       -1.56072127487137
H           -1.84743117628218       -0.19100602702867       -1.71042661137383
H           -1.20259870601531        0.87053948329268       -2.96359625749868
H           -0.87264207002837        1.70817714078736        0.59065254898492
H            0.47272717789505        1.80105098536892       -1.26129014130853
H            2.17610531359057       -0.60700171084715        0.59472260251720
H            2.18500783406513        1.03331235447309       -0.06953959643462
H            2.77173095061696        0.12133972775586       -2.31422539097633
H            2.81906706643682       -1.51439085502746       -1.63706571449641
H            4.49794570908502        1.77064523040415       -1.71620001945579
H            6.76116577270836        2.17413407138966       -0.91011435922897
H            8.45916431286775        2.39482245045588        0.72689849202863
H            9.08416946611462        1.74813083167019       -0.81802775595293
H            9.92769268909725        1.38803590352564        0.70837878824294
H            7.34670235546660       -3.74246955226353        1.65719660744471
H            5.67103195747176       -3.14941924809650        1.74708618128887
H            6.33793506055838       -3.72532960130803        0.19048478719294
H            4.58342485286868       -2.17328111169677       -0.09983610964520
H           -0.02597540147364       -1.90035974239320       -1.72199422843615
H           -0.90262717353533       -1.52445608465650       -0.22514018006762
H            0.74526580065917       -2.16434471237439       -0.15085689595335
H           -4.21298530276128        3.47797350282094       -0.63526106255488
H           -4.18690809558415        3.07720120171218        2.14323028989628
H           -5.18917398546200        1.74225940283555        1.64182527817035
H           -5.70387271743500        3.41504272028729        1.27423033237576
H           -4.12774908957267        5.79019836938744        2.72504516308713
H           -4.45809883976206        6.44615573572218        1.02893273140269
H           -5.85862606092566        6.20716113470044        2.21459251554297
H           -1.25701402590717        2.80840719345323        2.63034137795632

          :  Hamiltonian                  GFN2-xTB          :
         :: total energy             -99.263503900354 Eh    ::
         :: gradient norm              0.003099617100 Eh/a0 ::
         :: HOMO-LUMO gap              0.140667265148 eV    ::
         :: SCC energy              -100.646778927963 Eh    ::
         :: -> dispersion             -0.072028389832 Eh    ::
         :: repulsion energy           1.382277418724 Eh    ::

    * Orbital Energies and Occupations

         #    Occupation            Energy/Eh            Energy/eV
      -------------------------------------------------------------
         1        2.0000           -0.8042973             -21.8860
       ...           ...                  ...                  ...
        78        1.9993           -0.5342364             -14.5373
        79        1.9992           -0.5310643             -14.4510
        80        1.9989           -0.5263278             -14.3221
        81        1.9988           -0.5248468             -14.2818
        82        1.9986           -0.5225019             -14.2180
        83        1.9981           -0.5174827             -14.0814
        84        1.9976           -0.5138608             -13.9829
        85        1.9888           -0.4891740             -13.3111
        86        1.9835           -0.4830281             -13.1439
        87        1.9819           -0.4815373             -13.1033
        88        1.9172           -0.4569544             -12.4344
        89        1.8713           -0.4495917             -12.2340
        90        0.9682           -0.4061956             -11.0531 (HOMO)
        91        0.8074           -0.4010261             -10.9125 (LUMO)
        92        0.4443           -0.3873597             -10.5406
        93        0.0356           -0.3436844              -9.3521
        94        0.0055           -0.3138467              -8.5402
        95        0.0044           -0.3104667              -8.4482
        96        0.0033           -0.3056926              -8.3183
        97        0.0028           -0.3031822              -8.2500
        98        0.0000           -0.1873894              -5.0991
        99        0.0000           -0.1805613              -4.9133
       100                         -0.1280549              -3.4846
       101                         -0.0612185              -1.6658
       ...                                ...                  ...
       171                          0.5839436              15.8899
      -------------------------------------------------------------
                  HL-Gap            0.0051694 Eh            0.1407 eV

     #   Z          covCN         q      C6AA      α(0)
     1   7 N        1.773    -0.284    28.172     7.860
     2   6 C        2.825     0.096    25.860     8.333
     3   6 C        3.910     0.015    20.270     6.399
     4   6 C        2.976     0.001    28.002     8.680
     5   6 C        2.921    -0.080    29.999     8.982
     6   6 C        2.863     0.129    25.163     8.222
     7   8 O        1.706    -0.232    17.848     5.704
     8   6 C        3.645     0.028    20.441     6.498
     9   6 C        2.864     0.128    25.195     8.228
    10   8 O        1.706    -0.232    17.848     5.704
    11   6 C        3.645     0.028    20.439     6.497
    12   6 C        2.915    -0.076    29.892     8.965
    13   6 C        2.920    -0.056    29.380     8.889
    14   6 C        3.810    -0.067    21.774     6.642
    15   6 C        3.802    -0.067    21.787     6.645
    16   6 C        2.843    -0.003    28.088     8.686
    17   7 N        2.729     0.004    21.193     6.837
    18   6 C        3.756    -0.015    20.901     6.519
    19   6 C        3.808    -0.070    21.832     6.651
    20   6 C        2.970    -0.002    28.067     8.690
    21   6 C        2.922    -0.050    29.242     8.868
    22   6 C        2.914    -0.068    29.705     8.937
    23   6 C        2.865     0.132    25.112     8.214
    24   8 O        1.706    -0.226    17.752     5.689
    25   6 C        3.645     0.026    20.464     6.501
    26   6 C        2.863     0.132    25.117     8.215
    27   8 O        1.706    -0.229    17.792     5.695
    28   6 C        3.645     0.029    20.429     6.496
    29   6 C        2.920    -0.080    30.009     8.983
    30   6 C        3.699    -0.069    21.988     6.706
    31   6 C        2.900    -0.033    28.812     8.801
    32   6 C        3.752    -0.120    22.853     6.817
    33   6 C        2.780    -0.144    31.685     9.220
    34   1 H        0.926     0.050     2.315     2.379
    35   1 H        0.924     0.052     2.301     2.372
    36   1 H        0.925     0.080     1.976     2.198
    37   1 H        0.924     0.047     2.361     2.403
    38   1 H        0.924     0.053     2.288     2.365
    39   1 H        0.925     0.080     1.979     2.200
    40   1 H        0.924     0.047     2.364     2.404
    41   1 H        0.926     0.050     2.314     2.379
    42   1 H        0.926     0.035     2.520     2.483
    43   1 H        0.925     0.060     2.202     2.321
    44   1 H        0.924     0.050     2.326     2.385
    45   1 H        0.925     0.065     2.141     2.288
    46   1 H        0.923     0.076     2.019     2.222
    47   1 H        0.923     0.019     2.749     2.593
    48   1 H        0.926     0.064     2.154     2.295
    49   1 H        0.924     0.065     2.139     2.287
    50   1 H        0.924     0.065     2.142     2.289
    51   1 H        0.924     0.053     2.282     2.362
    52   1 H        0.924     0.054     2.271     2.357
    53   1 H        0.926     0.043     2.413     2.429
    54   1 H        0.926     0.056     2.244     2.343
    55   1 H        0.924     0.052     2.295     2.369
    56   1 H        0.924     0.054     2.272     2.357
    57   1 H        0.925     0.080     1.976     2.198
    58   1 H        0.925     0.080     1.980     2.201
    59   1 H        0.924     0.046     2.365     2.405
    60   1 H        0.924     0.051     2.310     2.377
    61   1 H        0.926     0.045     2.381     2.413
    62   1 H        0.924     0.073     2.051     2.239
    63   1 H        0.924     0.078     1.999     2.211
    64   1 H        0.925     0.078     2.002     2.213
    65   1 H        0.926     0.050     2.324     2.384
    66   1 H        0.923     0.121     1.603     1.980
    67   1 H        0.924     0.074     2.044     2.236
    68   1 H        0.925     0.066     2.130     2.282
    69   1 H        0.927     0.061     2.186     2.312
    70   1 H        0.927     0.058     2.217     2.329
    71   1 H        0.927     0.063     2.163     2.300
    72   1 H        0.860     0.161     1.326     1.804

Wiberg/Mayer (AO) data.
largest (>0.10) Wiberg bond orders for each atom

     #   Z sym  total        # sym  WBO       # sym  WBO       # sym  WBO
 ---------------------------------------------------------------------------
     1   7 N    3.038 --     2 C    1.951    72 H    0.939
     2   6 C    3.877 --     1 N    1.951     3 C    0.948    47 H    0.902
     3   6 C    3.983 --    31 C    1.032    14 C    0.962     2 C    0.948
                             4 C    0.938
     4   6 C    3.933 --    13 C    1.427     5 C    1.366     3 C    0.938
     5   6 C    3.965 --     6 C    1.405     4 C    1.366    34 H    0.960
     6   6 C    3.916 --     5 C    1.405     9 C    1.226     7 O    1.097
     7   8 O    2.260 --     6 C    1.097     8 C    0.979
     8   6 C    3.934 --     7 O    0.979    36 H    0.977    37 H    0.974
                            35 H    0.974
     9   6 C    3.914 --    12 C    1.399     6 C    1.226    10 O    1.098
    10   8 O    2.257 --     9 C    1.098    11 C    0.978
    11   6 C    3.934 --    10 O    0.978    39 H    0.977    40 H    0.974
                            38 H    0.974
    12   6 C    3.966 --     9 C    1.399    13 C    1.395    41 H    0.964
    13   6 C    3.964 --     4 C    1.427    12 C    1.395    42 H    0.963
    14   6 C    3.973 --    15 C    0.986    44 H    0.975    43 H    0.971
                             3 C    0.962
    15   6 C    3.988 --    16 C    1.057    14 C    0.986    45 H    0.962
                            46 H    0.929
    16   6 C    3.547 --    17 N    1.375    15 C    1.057    48 H    0.958
    17   7 N    3.448 --    16 C    1.375    30 C    1.000    18 C    0.990
    18   6 C    3.957 --    17 N    0.990    50 H    0.968    19 C    0.966
                            49 H    0.965
    19   6 C    3.975 --    20 C    1.008    51 H    0.972    52 H    0.972
                            18 C    0.966
    20   6 C    3.950 --    21 C    1.414    29 C    1.377    19 C    1.008
    21   6 C    3.955 --    22 C    1.414    20 C    1.414    53 H    0.968
    22   6 C    3.963 --    21 C    1.414    23 C    1.388    54 H    0.963
    23   6 C    3.901 --    22 C    1.388    26 C    1.224    24 O    1.105
    24   8 O    2.254 --    23 C    1.105    25 C    0.977
    25   6 C    3.931 --    24 O    0.977    57 H    0.977    56 H    0.973
                            55 H    0.973
    26   6 C    3.905 --    29 C    1.399    23 C    1.224    27 O    1.098
    27   8 O    2.254 --    26 C    1.098    28 C    0.980
    28   6 C    3.934 --    27 O    0.980    58 H    0.977    59 H    0.974
                            60 H    0.974
    29   6 C    3.962 --    26 C    1.399    20 C    1.377    61 H    0.963
    30   6 C    3.959 --    17 N    1.000    64 H    0.978    62 H    0.967
                            63 H    0.962
    31   6 C    3.246 --    32 C    1.130     3 C    1.032    65 H    0.970
    32   6 C    3.960 --    31 C    1.130    68 H    0.976    67 H    0.945
                            66 H    0.879
    33   6 C    2.986 --    70 H    0.994    71 H    0.994    69 H    0.993
    34   1 H    0.996 --     5 C    0.960
    35   1 H    0.995 --     8 C    0.974
    36   1 H    0.993 --     8 C    0.977
    37   1 H    0.995 --     8 C    0.974
    38   1 H    0.994 --    11 C    0.974
    39   1 H    0.993 --    11 C    0.977
    40   1 H    0.995 --    11 C    0.974
    41   1 H    0.996 --    12 C    0.964
    42   1 H    0.998 --    13 C    0.963
    43   1 H    0.995 --    14 C    0.971
    44   1 H    0.997 --    14 C    0.975
    45   1 H    0.995 --    15 C    0.962
    46   1 H    0.966 --    15 C    0.929
    47   1 H    0.986 --     2 C    0.902
    48   1 H    0.995 --    16 C    0.958
    49   1 H    0.991 --    18 C    0.965
    50   1 H    0.994 --    18 C    0.968
    51   1 H    0.996 --    19 C    0.972
    52   1 H    0.996 --    19 C    0.972
    53   1 H    0.998 --    21 C    0.968
    54   1 H    0.995 --    22 C    0.963
    55   1 H    0.993 --    25 C    0.973
    56   1 H    0.993 --    25 C    0.973
    57   1 H    0.993 --    25 C    0.977
    58   1 H    0.993 --    28 C    0.977
    59   1 H    0.994 --    28 C    0.974
    60   1 H    0.994 --    28 C    0.974
    61   1 H    0.997 --    29 C    0.963
    62   1 H    0.984 --    30 C    0.967
    63   1 H    0.987 --    30 C    0.962
    64   1 H    0.994 --    30 C    0.978
    65   1 H    0.996 --    31 C    0.970
    66   1 H    0.926 --    32 C    0.879
    67   1 H    0.966 --    32 C    0.945
    68   1 H    0.992 --    32 C    0.976
    69   1 H    0.996 --    33 C    0.993
    70   1 H    0.996 --    33 C    0.994
    71   1 H    0.996 --    33 C    0.994
    72   1 H    0.968 --     1 N    0.939
 ---------------------------------------------------------------------------

molecular dipole:
                 x           y           z       tot (Debye)
 q only:       -0.273       0.413      -0.483
   full:        0.088       0.515      -0.640       2.100

           -------------------------------------------------
          | TOTAL ENERGY              -99.263503900354 Eh   |
          | GRADIENT NORM               0.003099617100 Eh/α |
          | HOMO-LUMO GAP               0.140667265148 eV   |
           -------------------------------------------------

 * finished run on 2024/04/06 at 11:13:07.600
