   * xtb version 6.6.1 (8d0f1dd) compiled by 'conda@1efc2f54142f' on 2023-08-01
          program call               : xtb xtbopt.xyz --opt crude --input .xc2 --gfn2

   ID    Z sym.   atoms
    1    6 C      1, 3, 5-7, 10, 11, 14
    2    7 N      2, 4, 9, 13
    3    8 O      8, 12
    4    1 H      15-25
########################################################################
[WARNING] Please study the warnings concerning your input carefully
-1- readin_getIntValue: could not parse ''
########################################################################

          :  Hamiltonian                  GFN2-xTB          :
 * total energy  :   -42.1183411 Eh     change        0.1136868E-12 Eh
 * total energy  :   -42.1184337 Eh     change       -0.9262317E-04 Eh
   *** GEOMETRY OPTIMIZATION CONVERGED AFTER 2 ITERATIONS ***

 final structure:
================
25
 xtb: 6.6.1 (8d0f1dd)
C            3.08298548771381        0.97041829844937        0.11718741054620
N            2.08630231186149       -0.05160269707630        0.32623237304408
C            2.36438245210424       -1.23103389287616        0.86569914567257
N            1.24827619691591       -1.96474166460745        0.91095116317112
C            0.21560728219345       -1.22325598480068        0.38535619880707
C            0.74353954229025        0.00656449892974        0.02008551866211
C            0.10685304394444        1.27234939698472       -0.50642264243160
O            0.81783830124607        2.16932766076785       -0.96268982876541
N           -1.20135669563153        1.28388411009746       -0.38060191049838
C           -1.96580590638016        2.42692829218637       -0.72596804607578
C           -1.45368586706431       -2.62066309319478        1.22836390436133
O           -1.29496067021128       -3.31769539121770        2.15535710356331
N           -1.07374885014001       -1.79241505503343        0.32025506760035
C           -1.95920437603979       -1.44804113317412       -0.79097744199464
H            3.60527102878170        1.17572442374306        1.05034416152571
H            3.80308175017964        0.63627615270861       -0.62995267783040
H            2.59518842826333        1.87514882129876       -0.24980822091438
H            3.33024208359183       -1.54534870871047        1.21076570107230
H           -1.34747586877246        3.23197204550793       -1.13572100588932
H           -2.72896682634779        2.14473414088778       -1.45573810825186
H           -2.48036051747899        2.78803053667947        0.16910426974224
H           -1.56009377284054       -1.85523811376332       -1.71958883902535
H           -2.00274382844309       -0.35352053074398       -0.85213510962519
H           -2.94787562106301       -1.85817277535909       -0.60434337993912
H            1.17714240543583       -2.90139079609490        1.28541681137493

          :  Hamiltonian                  GFN2-xTB          :
         :: total energy             -42.118433679791 Eh    ::
         :: gradient norm              0.002201061088 Eh/a0 ::
         :: HOMO-LUMO gap              1.168523578058 eV    ::
         :: SCC energy               -42.649777502403 Eh    ::
         :: -> dispersion             -0.021740738086 Eh    ::
         :: repulsion energy           0.531170692348 Eh    ::

    * Orbital Energies and Occupations

         #    Occupation            Energy/Eh            Energy/eV
      -------------------------------------------------------------
         1        2.0000           -0.9272364             -25.2314
       ...           ...                  ...                  ...
        25        2.0000           -0.6673417             -18.1593
        26        2.0000           -0.6655885             -18.1116
        27        1.9999           -0.6386120             -17.3775
        28        1.9999           -0.6372650             -17.3409
        29        1.9998           -0.6243924             -16.9906
        30        1.9996           -0.6175505             -16.8044
        31        1.9995           -0.6146245             -16.7248
        32        1.9992           -0.6053042             -16.4712
        33        1.9984           -0.5949755             -16.1901
        34        1.9952           -0.5775639             -15.7163
        35        1.9372           -0.5362902             -14.5932
        36        1.7302           -0.5114119             -13.9162
        37        1.6995           -0.5094221             -13.8621 (HOMO)
        38        0.5460           -0.4664796             -12.6936 (LUMO)
        39        0.0598           -0.4268970             -11.6165
        40        0.0340           -0.4177351             -11.3672
        41        0.0019           -0.3715214             -10.1096
        42        0.0000           -0.2943470              -8.0096
        43        0.0000           -0.2172527              -5.9117
        44                         -0.1915995              -5.2137
        45                         -0.1382416              -3.7617
        46                         -0.0766354              -2.0854
        47                         -0.0572202              -1.5570
        48                         -0.0450014              -1.2246
       ...                                ...                  ...
        67                          0.7652024              20.8222
      -------------------------------------------------------------
                  HL-Gap            0.0429425 Eh            1.1685 eV

     #   Z          covCN         q      C6AA      α(0)
     1   6 C        3.694    -0.100    22.601     6.802
     2   7 N        2.859     0.086    19.752     6.601
     3   6 C        3.029     0.056    26.714     8.478
     4   7 N        2.803    -0.057    22.347     7.021
     5   6 C        3.051     0.089    25.971     8.358
     6   6 C        3.074     0.011    27.695     8.628
     7   6 C        2.764     0.281    22.250     7.725
     8   8 O        0.858    -0.415    21.985     6.286
     9   7 N        1.831    -0.267    27.778     7.810
    10   6 C        3.702    -0.027    21.211     6.586
    11   6 C        1.822     0.260    25.193     8.110
    12   8 O        0.856    -0.169    17.562     5.619
    13   7 N        2.729     0.026    20.792     6.772
    14   6 C        3.704    -0.099    22.544     6.788
    15   1 H        0.925     0.101     1.773     2.083
    16   1 H        0.925     0.107     1.721     2.052
    17   1 H        0.924     0.156     1.351     1.818
    18   1 H        0.926     0.128     1.548     1.945
    19   1 H        0.924     0.089     1.892     2.151
    20   1 H        0.924     0.081     1.965     2.192
    21   1 H        0.924     0.088     1.896     2.153
    22   1 H        0.925     0.100     1.789     2.092
    23   1 H        0.924     0.139     1.469     1.895
    24   1 H        0.925     0.107     1.723     2.053
    25   1 H        0.860     0.229     0.970     1.543

Wiberg/Mayer (AO) data.
largest (>0.10) Wiberg bond orders for each atom

     #   Z sym  total        # sym  WBO       # sym  WBO       # sym  WBO
 ---------------------------------------------------------------------------
     1   6 C    3.893 --     2 N    0.979    15 H    0.963    16 H    0.956
                            17 H    0.937
     2   7 N    3.701 --     3 C    1.384     6 C    1.191     1 C    0.979
     3   6 C    3.883 --     2 N    1.384     4 N    1.317    18 H    0.951
     4   7 N    3.594 --     3 C    1.317     5 C    1.177    25 H    0.918
     5   6 C    3.854 --     6 C    1.445     4 N    1.177    13 N    1.011
     6   6 C    3.881 --     5 C    1.445     2 N    1.191     7 C    0.959
     7   6 C    3.928 --     8 O    1.530     9 N    1.375     6 C    0.959
     8   8 O    1.804 --     7 C    1.530     9 N    0.151
     9   7 N    2.721 --     7 C    1.375    10 C    1.064     8 O    0.151
    10   6 C    3.901 --     9 N    1.064    20 H    0.938    19 H    0.937
                            21 H    0.930
    11   6 C    3.453 --    12 O    1.963    13 N    1.402
    12   8 O    2.199 --    11 C    1.963    13 N    0.171
    13   7 N    3.587 --    11 C    1.402     5 C    1.011    14 C    0.936
                            12 O    0.171
    14   6 C    3.861 --    24 H    0.974    22 H    0.968    13 N    0.936
                            23 H    0.916
    15   1 H    0.987 --     1 C    0.963
    16   1 H    0.986 --     1 C    0.956
    17   1 H    0.974 --     1 C    0.937
    18   1 H    0.983 --     3 C    0.951
    19   1 H    0.943 --    10 C    0.937
    20   1 H    0.957 --    10 C    0.938
    21   1 H    0.951 --    10 C    0.930
    22   1 H    0.989 --    14 C    0.968
    23   1 H    0.979 --    14 C    0.916
    24   1 H    0.987 --    14 C    0.974
    25   1 H    0.947 --     4 N    0.918
 ---------------------------------------------------------------------------

molecular dipole:
                 x           y           z       tot (Debye)
 q only:        1.122      -2.363       0.677
   full:        1.241      -2.639       0.815       7.697

           -------------------------------------------------
          | TOTAL ENERGY              -42.118433679791 Eh   |
          | GRADIENT NORM               0.002201061088 Eh/α |
          | HOMO-LUMO GAP               1.168523578058 eV   |
           -------------------------------------------------

 * finished run on 2024/06/05 at 19:58:01.564
