   * xtb version 6.6.1 (8d0f1dd) compiled by 'conda@1efc2f54142f' on 2023-08-01
          program call               : xtb struc.xyz --opt loose --input .xc1 --gfn2

   ID    Z sym.   atoms
    1    7 N      1, 17
    2    6 C      2-6, 8, 9, 11-16, 18-23, 25, 26, 28-33
    3    8 O      7, 10, 24, 27
    4    1 H      34-72
constraining bond 4 5 to    4.0000000 Å, actual value:    1.3972926 Å

          :  Hamiltonian                  GFN2-xTB          :
 * total energy  :   -98.1945962 Eh     change       -0.4035485E-08 Eh
 * total energy  :   -98.3795235 Eh     change       -0.1849273E+00 Eh
 * total energy  :   -98.5761093 Eh     change       -0.1965858E+00 Eh
 * total energy  :   -98.7724749 Eh     change       -0.1963656E+00 Eh
 * total energy  :   -98.9697122 Eh     change       -0.1972373E+00 Eh
 * total energy  :   -99.0620522 Eh     change       -0.9234006E-01 Eh
 * total energy  :   -99.0896817 Eh     change       -0.2762945E-01 Eh
 * total energy  :   -99.1152460 Eh     change       -0.2556434E-01 Eh
 * total energy  :   -99.1301533 Eh     change       -0.1490723E-01 Eh
 * total energy  :   -99.1449456 Eh     change       -0.1479232E-01 Eh
 * total energy  :   -99.2100616 Eh     change        0.1039212E-04 Eh
 * total energy  :   -99.2104292 Eh     change       -0.3676291E-03 Eh
 * total energy  :   -99.2106004 Eh     change       -0.1711536E-03 Eh
 * total energy  :   -99.2107294 Eh     change       -0.1289980E-03 Eh
 * total energy  :   -99.2108529 Eh     change       -0.1235313E-03 Eh
 * total energy  :   -99.2109730 Eh     change       -0.1201324E-03 Eh
 * total energy  :   -99.2110755 Eh     change       -0.1025138E-03 Eh
 * total energy  :   -99.2111433 Eh     change       -0.6777577E-04 Eh
 * total energy  :   -99.2111862 Eh     change       -0.4285097E-04 Eh
   *** GEOMETRY OPTIMIZATION CONVERGED AFTER 83 ITERATIONS ***

 final structure:
================
72
 xtb: 6.6.1 (8d0f1dd)
N           -2.16469422185722        2.70149827799510        2.38991647801869
C           -1.95251673273065        1.99688132494537        1.27289610950366
C           -3.10447840505425        1.81671251638779        0.18555743563151
C           -2.71933411903180        0.71424783511377        1.03283832110670
C           -4.25354491568865       -1.25219911230627       -2.08216246804003
C           -4.71906241131483       -1.10271658258845       -0.86857546463941
O           -5.68631982828312       -0.24145021225922       -0.46557574529573
C           -6.42863839838201        0.35471500871065       -1.50568104022721
C           -4.25783237767506       -2.01191029692320        0.24661913504034
O           -4.79524079508573       -3.22883147471450        0.03539148965765
C           -4.49447950374089       -4.31093147784683        0.89220050247822
C           -3.41871513033181       -1.70677904201176        1.26029976917875
C           -2.71769796913791       -0.49062321998317        1.58546754644287
C           -2.61164443230494        1.88427990132020       -1.25432682945762
C           -1.59699440735078        0.79701572299364       -1.63535373343980
C           -0.24306310628568        1.01033780530916       -1.08031696285223
N            0.53038031407638        0.05910954422950       -0.57803755268569
C            1.90976247563346        0.32227282737151       -0.24148070514344
C            2.86644063075714       -0.19090992934776       -1.33529070814126
C            4.29377444001156       -0.01629078830284       -0.89867265429879
C            4.96362634441814        1.17610610689936       -1.11955700064847
C            6.27367688837441        1.34176452342409       -0.69799615736520
C            6.94067660195852        0.31653147252132       -0.04194898997653
O            8.20839932122375        0.36398970698982        0.40470676193497
C            8.97330996479051        1.52675630220923        0.18339025891873
C            6.25914696443237       -0.90995920808008        0.19391924612340
O            6.97932403066240       -1.85352796279996        0.83137381289907
C            6.40142767516057       -3.11316814902085        1.07799326242562
C            4.94850521013335       -1.05056553502036       -0.23415254944919
C            0.08052711032701       -1.30781634236260       -0.45618210136743
C           -4.40140110957909        2.57871356663613        0.45231731144320
C           -5.08960291368611        2.10668141925399        1.72845298904661
C           -4.14344893982082        4.08323254210708        0.51313272511173
H           -3.56134349400617       -1.92147021318770       -2.53880686188408
H           -5.77388169058967        0.90154439898859       -2.19557308676057
H           -7.13571081476687        1.03657981749069       -1.03095346080934
H           -6.97054810911436       -0.40531625750726       -2.07723156957897
H           -4.84273866161401       -4.12178917200850        1.91099341468910
H           -5.03138412687681       -5.16280539484235        0.47961570589464
H           -3.42166077348508       -4.52596952942818        0.90223421717945
H           -3.21415844296279       -2.50031140247175        1.96783420045154
H           -2.05278059348883       -0.60837928745656        2.43661360336267
H           -3.47993896559808        1.75951944878705       -1.90420862034671
H           -2.19199537308433        2.87327023738201       -1.45254965566782
H           -2.00717642398536       -0.17305906098548       -1.35782202918332
H           -1.50839260035793        0.81627953318299       -2.73004780285648
H           -0.95828280631936        2.00785487028441        0.79707453756389
H            0.20631257917748        1.98481828818196       -1.20294976675033
H            2.14456269294673       -0.17077416887106        0.70581356701095
H            2.05645097916945        1.39592218845551       -0.11134730601956
H            2.68310745352720        0.36681420712023       -2.25507420705885
H            2.66564671586499       -1.24578258548475       -1.52622779424632
H            4.47085992721157        1.98524198786245       -1.63657436522783
H            6.77158934928375        2.27768453495878       -0.89083789325443
H            8.53583437338222        2.39556906416577        0.68445477123623
H            9.08191070565987        1.73622061952118       -0.88491003200181
H            9.95169526334877        1.31825140856393        0.61184399577992
H            7.17556827624319       -3.69866484341053        1.57008369411816
H            5.53337786146936       -3.03376806608662        1.74050188144786
H            6.10902879931996       -3.60990474869807        0.14756477645521
H            4.42563734199457       -1.97946749219131       -0.06752556298576
H           -0.06958483401242       -1.76100941273533       -1.43837243639844
H           -0.85935195089401       -1.35027081107682        0.09705879118503
H            0.82757542252944       -1.88321206316392        0.08418331258212
H           -5.06700458010664        2.38104240009908       -0.39383004120232
H           -4.42819887984777        2.25105360914660        2.57868997780462
H           -5.35535467434332        1.05596508627578        1.65076544422256
H           -5.99626382102373        2.68387011086241        1.89013317117938
H           -3.51142275649667        4.30302481399037        1.37216654334242
H           -3.65874026175988        4.44559578314475       -0.39073590121022
H           -5.08319310036396        4.61560978308075        0.63156542454332
H           -1.38380266363515        3.26119476966614        2.70648971406734

          :  Hamiltonian                  GFN2-xTB          :
         :: total energy             -99.211186168111 Eh    ::
         :: gradient norm              0.003872949929 Eh/a0 ::
         :: HOMO-LUMO gap              0.083306539913 eV    ::
         :: SCC energy              -100.582269837831 Eh    ::
         :: -> dispersion             -0.075472995423 Eh    ::
         :: repulsion energy           1.369442543660 Eh    ::

    * Orbital Energies and Occupations

         #    Occupation            Energy/Eh            Energy/eV
      -------------------------------------------------------------
         1        2.0000           -0.8182092             -22.2646
       ...           ...                  ...                  ...
        78        1.9982           -0.5308604             -14.4454
        79        1.9980           -0.5290693             -14.3967
        80        1.9968           -0.5221529             -14.2085
        81        1.9966           -0.5210310             -14.1780
        82        1.9958           -0.5174882             -14.0816
        83        1.9933           -0.5102559             -13.8848
        84        1.9911           -0.5057318             -13.7617
        85        1.9773           -0.4907448             -13.3538
        86        1.9300           -0.4725265             -12.8581
        87        1.9147           -0.4692788             -12.7697
        88        1.8798           -0.4635540             -12.6139
        89        1.8341           -0.4580585             -12.4644
        90        1.0951           -0.4230275             -11.5112 (HOMO)
        91        0.9987           -0.4199660             -11.4279 (LUMO)
        92        0.3872           -0.3974173             -10.8143
        93        0.0179           -0.3454687              -9.4007
        94        0.0026           -0.3147243              -8.5641
        95        0.0022           -0.3123350              -8.4991
        96        0.0003           -0.2801709              -7.6238
        97        0.0000           -0.2442402              -6.6461
        98        0.0000           -0.1898285              -5.1655
        99        0.0000           -0.1687276              -4.5913
       100                         -0.1382881              -3.7630
       101                         -0.0732554              -1.9934
       ...                                ...                  ...
       171                          0.7137301              19.4216
      -------------------------------------------------------------
                  HL-Gap            0.0030615 Eh            0.0833 eV

     #   Z          covCN         q      C6AA      α(0)
     1   7 N        1.773    -0.328    29.330     8.020
     2   6 C        3.776     0.087    19.157     6.236
     3   6 C        3.902     0.025    20.100     6.373
     4   6 C        2.943     0.003    27.954     8.671
     5   6 C        1.917    -0.161    35.684     9.647
     6   6 C        2.851     0.145    24.839     8.169
     7   8 O        1.705    -0.243    18.025     5.732
     8   6 C        3.659     0.031    20.330     6.471
     9   6 C        2.838     0.139    24.957     8.187
    10   8 O        1.707    -0.230    17.821     5.700
    11   6 C        3.639     0.024    20.537     6.518
    12   6 C        2.890    -0.084    30.098     8.995
    13   6 C        2.887    -0.035    28.875     8.810
    14   6 C        3.803    -0.063    21.708     6.633
    15   6 C        3.803    -0.072    21.873     6.658
    16   6 C        2.843     0.007    27.849     8.649
    17   7 N        2.729     0.016    20.968     6.801
    18   6 C        3.756    -0.018    20.945     6.525
    19   6 C        3.808    -0.071    21.852     6.654
    20   6 C        2.969     0.000    28.020     8.683
    21   6 C        2.922    -0.048    29.190     8.860
    22   6 C        2.914    -0.067    29.665     8.931
    23   6 C        2.865     0.134    25.065     8.206
    24   8 O        1.706    -0.220    17.651     5.672
    25   6 C        3.645     0.024    20.500     6.507
    26   6 C        2.863     0.134    25.077     8.208
    27   8 O        1.706    -0.223    17.703     5.681
    28   6 C        3.645     0.027    20.459     6.501
    29   6 C        2.920    -0.080    29.989     8.980
    30   6 C        3.701    -0.073    22.070     6.718
    31   6 C        3.851    -0.005    20.630     6.460
    32   6 C        3.756    -0.122    22.900     6.823
    33   6 C        3.756    -0.114    22.732     6.798
    34   1 H        0.927     0.056     2.250     2.346
    35   1 H        0.924     0.045     2.386     2.416
    36   1 H        0.924     0.074     2.045     2.236
    37   1 H        0.924     0.060     2.202     2.321
    38   1 H        0.924     0.062     2.181     2.309
    39   1 H        0.925     0.085     1.926     2.170
    40   1 H        0.924     0.051     2.313     2.379
    41   1 H        0.925     0.057     2.230     2.335
    42   1 H        0.925     0.057     2.231     2.336
    43   1 H        0.924     0.067     2.120     2.277
    44   1 H        0.924     0.058     2.225     2.333
    45   1 H        0.925     0.072     2.064     2.247
    46   1 H        0.923     0.086     1.915     2.164
    47   1 H        0.923     0.003     3.006     2.711
    48   1 H        0.926     0.072     2.062     2.245
    49   1 H        0.924     0.070     2.082     2.257
    50   1 H        0.924     0.069     2.097     2.264
    51   1 H        0.924     0.056     2.242     2.342
    52   1 H        0.924     0.056     2.245     2.343
    53   1 H        0.926     0.047     2.361     2.403
    54   1 H        0.926     0.060     2.200     2.320
    55   1 H        0.924     0.055     2.253     2.347
    56   1 H        0.924     0.057     2.237     2.339
    57   1 H        0.925     0.083     1.946     2.181
    58   1 H        0.925     0.083     1.952     2.185
    59   1 H        0.924     0.049     2.332     2.388
    60   1 H        0.924     0.053     2.287     2.365
    61   1 H        0.926     0.047     2.360     2.402
    62   1 H        0.924     0.077     2.008     2.216
    63   1 H        0.924     0.080     1.975     2.198
    64   1 H        0.925     0.082     1.956     2.187
    65   1 H        0.924     0.053     2.277     2.360
    66   1 H        0.925     0.073     2.050     2.239
    67   1 H        0.925     0.053     2.278     2.360
    68   1 H        0.925     0.052     2.299     2.371
    69   1 H        0.925     0.065     2.145     2.290
    70   1 H        0.925     0.035     2.522     2.484
    71   1 H        0.925     0.055     2.264     2.353
    72   1 H        0.860     0.145     1.437     1.878

Wiberg/Mayer (AO) data.
largest (>0.10) Wiberg bond orders for each atom

     #   Z sym  total        # sym  WBO       # sym  WBO       # sym  WBO
 ---------------------------------------------------------------------------
     1   7 N    2.390 --     2 C    1.329    72 H    0.949
     2   6 C    3.840 --     1 N    1.329    47 H    0.909     4 C    0.813
                             3 C    0.724
     3   6 C    3.792 --     4 C    1.026    14 C    0.979    31 C    0.962
                             2 C    0.724
     4   6 C    3.781 --    13 C    1.746     3 C    1.026     2 C    0.813
     5   6 C    3.016 --     6 C    1.844    34 H    0.958     7 O    0.115
     6   6 C    3.888 --     5 C    1.844     7 O    1.063     9 C    0.905
     7   8 O    2.212 --     6 C    1.063     8 C    0.975     5 C    0.115
     8   6 C    3.926 --    36 H    0.977     7 O    0.975    37 H    0.973
                            35 H    0.969
     9   6 C    3.811 --    12 C    1.610    10 O    1.116     6 C    0.905
    10   8 O    2.274 --     9 C    1.116    11 C    0.967
    11   6 C    3.924 --    39 H    0.975    40 H    0.973    38 H    0.972
                            10 O    0.967
    12   6 C    3.886 --     9 C    1.610    13 C    1.147    41 H    0.949
    13   6 C    3.954 --     4 C    1.746    12 C    1.147    42 H    0.948
    14   6 C    3.964 --    15 C    0.985     3 C    0.979    44 H    0.966
                            43 H    0.959
    15   6 C    3.985 --    16 C    1.062    14 C    0.985    45 H    0.957
                            46 H    0.923
    16   6 C    3.595 --    17 N    1.416    15 C    1.062    48 H    0.956
    17   7 N    3.487 --    16 C    1.416    30 C    0.997    18 C    0.988
    18   6 C    3.954 --    17 N    0.988    50 H    0.968    19 C    0.966
                            49 H    0.963
    19   6 C    3.976 --    20 C    1.008    51 H    0.972    52 H    0.971
                            18 C    0.966
    20   6 C    3.942 --    21 C    1.408    29 C    1.380    19 C    1.008
    21   6 C    3.948 --    22 C    1.418    20 C    1.408    53 H    0.968
    22   6 C    3.958 --    21 C    1.418    23 C    1.382    54 H    0.963
    23   6 C    3.893 --    22 C    1.382    26 C    1.218    24 O    1.113
    24   8 O    2.256 --    23 C    1.113    25 C    0.975
    25   6 C    3.927 --    57 H    0.977    24 O    0.975    56 H    0.972
                            55 H    0.972
    26   6 C    3.897 --    29 C    1.394    23 C    1.218    27 O    1.105
    27   8 O    2.255 --    26 C    1.105    28 C    0.978
    28   6 C    3.931 --    27 O    0.978    58 H    0.977    59 H    0.973
                            60 H    0.973
    29   6 C    3.958 --    26 C    1.394    20 C    1.380    61 H    0.962
    30   6 C    3.956 --    17 N    0.997    64 H    0.977    62 H    0.966
                            63 H    0.959
    31   6 C    3.966 --    32 C    1.008    33 C    0.998     3 C    0.962
                            65 H    0.942
    32   6 C    3.972 --    31 C    1.008    68 H    0.981    67 H    0.979
                            66 H    0.970
    33   6 C    3.969 --    31 C    0.998    70 H    0.984    71 H    0.981
                            69 H    0.967
    34   1 H    0.979 --     5 C    0.958
    35   1 H    0.994 --     8 C    0.969
    36   1 H    0.994 --     8 C    0.977
    37   1 H    0.991 --     8 C    0.973
    38   1 H    0.992 --    11 C    0.972
    39   1 H    0.992 --    11 C    0.975
    40   1 H    0.994 --    11 C    0.973
    41   1 H    0.986 --    12 C    0.949
    42   1 H    0.989 --    13 C    0.948
    43   1 H    0.985 --    14 C    0.959
    44   1 H    0.993 --    14 C    0.966
    45   1 H    0.994 --    15 C    0.957
    46   1 H    0.966 --    15 C    0.923
    47   1 H    0.979 --     2 C    0.909
    48   1 H    0.994 --    16 C    0.956
    49   1 H    0.990 --    18 C    0.963
    50   1 H    0.994 --    18 C    0.968
    51   1 H    0.995 --    19 C    0.972
    52   1 H    0.996 --    19 C    0.971
    53   1 H    0.997 --    21 C    0.968
    54   1 H    0.995 --    22 C    0.963
    55   1 H    0.991 --    25 C    0.972
    56   1 H    0.991 --    25 C    0.972
    57   1 H    0.992 --    25 C    0.977
    58   1 H    0.992 --    28 C    0.977
    59   1 H    0.993 --    28 C    0.973
    60   1 H    0.993 --    28 C    0.973
    61   1 H    0.997 --    29 C    0.962
    62   1 H    0.985 --    30 C    0.966
    63   1 H    0.987 --    30 C    0.959
    64   1 H    0.993 --    30 C    0.977
    65   1 H    0.979 --    31 C    0.942
    66   1 H    0.989 --    32 C    0.970
    67   1 H    0.994 --    32 C    0.979
    68   1 H    0.993 --    32 C    0.981
    69   1 H    0.991 --    33 C    0.967
    70   1 H    0.997 --    33 C    0.984
    71   1 H    0.993 --    33 C    0.981
    72   1 H    0.971 --     1 N    0.949
 ---------------------------------------------------------------------------

molecular dipole:
                 x           y           z       tot (Debye)
 q only:        0.928      -0.373      -0.876
   full:        1.323      -0.433      -1.077       4.473

           -------------------------------------------------
          | TOTAL ENERGY              -99.211186168111 Eh   |
          | GRADIENT NORM               0.003872949929 Eh/α |
          | HOMO-LUMO GAP               0.083306539913 eV   |
           -------------------------------------------------

 * finished run on 2024/04/06 at 11:12:16.789
