   * xtb version 6.6.1 (8d0f1dd) compiled by 'conda@1efc2f54142f' on 2023-08-01
          program call               : xtb struc.xyz --opt loose --input .xc1 --gfn2

   ID    Z sym.   atoms
    1    6 C      1, 3, 5-7, 10, 11, 14
    2    7 N      2, 4, 9, 13
    3    8 O      8, 12
    4    1 H      15-25
constraining bond 6 24 to    4.7133300 Å, actual value:    4.4571317 Å

          :  Hamiltonian                  GFN2-xTB          :
 * total energy  :   -42.4822545 Eh     change       -0.6650680E-10 Eh
 * total energy  :   -45.5790750 Eh     change       -0.3096821E+01 Eh
 * total energy  :   -52.1548672 Eh     change       -0.6575792E+01 Eh
 * total energy  :   -62.5806747 Eh     change       -0.1042581E+02 Eh
 * total energy  :   -76.0262718 Eh     change       -0.1344560E+02 Eh
 * total energy  :   -87.7258266 Eh     change       -0.1169955E+02 Eh
 * total energy  :  -101.8446948 Eh     change       -0.1411887E+02 Eh
 * total energy  :   -94.3581307 Eh     change        0.7486564E+01 Eh
 * total energy  :  -106.4479158 Eh     change       -0.1208979E+02 Eh
 * total energy  :  -106.8421202 Eh     change       -0.3942044E+00 Eh
 * total energy  :  -107.6584574 Eh     change       -0.1159835E-03 Eh
 * total energy  :  -107.6585808 Eh     change       -0.1234139E-03 Eh
 * total energy  :  -107.6586857 Eh     change       -0.1048751E-03 Eh
 * total energy  :  -107.6587307 Eh     change       -0.4498962E-04 Eh
 * total energy  :  -107.6587524 Eh     change       -0.2171360E-04 Eh
 * total energy  :  -107.6587925 Eh     change       -0.4012931E-04 Eh
 * total energy  :  -107.6588069 Eh     change       -0.1439871E-04 Eh
 * total energy  :  -107.6588229 Eh     change       -0.1599533E-04 Eh
 * total energy  :  -107.6588302 Eh     change       -0.7279070E-05 Eh
   *** GEOMETRY OPTIMIZATION CONVERGED AFTER 114 ITERATIONS ***

 final structure:
================
25
 xtb: 6.6.1 (8d0f1dd)
C            2.38617649923474        1.67650178470005        0.18585672550047
N            1.54706678868182        0.50973217232219        0.10179851006747
C            1.95163277358311       -0.58965558685352       -0.44715354334014
N            1.21668731138338       -1.71288512424409       -0.51732529213155
C           -0.01209065740303       -1.87056669532755        0.07050699621453
C           -0.65565319922020       -0.78801704556640        0.87792574352089
C            0.19637649801656        0.64785395955262        0.87701714745036
O            0.33721181447399        1.24319973932663        1.94570378980127
N           -0.79308747386110        1.13834460484127       -0.14517163708375
C           -1.08402757475539        2.48845354249150       -0.54620048313878
C           -1.56139669483752        0.05472636325757       -0.21932714446392
O           -2.52420368529176       -0.29415552032907       -0.81632385748030
N           -0.69857225303476       -2.92904383257932       -0.23456109472083
C           -1.50062171383592       -3.79793955020341        0.20366163924975
H            2.23363919387494        2.12316744310607        1.17014416200527
H            3.43302635388720        1.41801313762553        0.04991987732574
H            2.08501712515256        2.40167088174300       -0.57167188565298
H            2.94203181641339       -0.63065111168827       -0.88757609482721
H           -0.39678533426830        2.80729034026614       -1.33187992868087
H           -2.10618070693423        2.53300552274220       -0.91820051631453
H           -0.97701136925770        3.14344541321601        0.31960333251280
H           -1.52359065454787       -4.11348068042647        1.24284860391435
H           -2.15107350852105       -4.29394158073631       -0.50324031322183
H           -0.79116628114761       -0.83133853969286        1.12451072475193
H            1.60702644631488       -2.51549109616291       -0.99969384327363

          :  Hamiltonian                  GFN2-xTB          :
         :: total energy            -107.658830208078 Eh    ::
         :: gradient norm              0.003981491438 Eh/a0 ::
         :: HOMO-LUMO gap              1.581365017558 eV    ::
         :: SCC energy               -42.632386061317 Eh    ::
         :: -> dispersion             -0.022924025037 Eh    ::
         :: repulsion energy           5.012336762373 Eh    ::

    * Orbital Energies and Occupations

         #    Occupation            Energy/Eh            Energy/eV
      -------------------------------------------------------------
         1        2.0000           -0.8974043             -24.4196
       ...           ...                  ...                  ...
        25        2.0000           -0.6785384             -18.4640
        26        1.9999           -0.6607319             -17.9794
        27        1.9998           -0.6501856             -17.6925
        28        1.9997           -0.6449365             -17.5496
        29        1.9996           -0.6404339             -17.4271
        30        1.9992           -0.6290373             -17.1170
        31        1.9987           -0.6221104             -16.9285
        32        1.9977           -0.6133669             -16.6906
        33        1.9892           -0.5886521             -16.0180
        34        1.9586           -0.5670794             -15.4310
        35        1.9403           -0.5611390             -15.2694
        36        1.9175           -0.5558225             -15.1247
        37        1.7947           -0.5403424             -14.7035 (HOMO)
        38        0.3642           -0.4822283             -13.1221 (LUMO)
        39        0.0393           -0.4440881             -12.0843
        40        0.0017           -0.3936905             -10.7129
        41        0.0003           -0.3664420              -9.9714
        42        0.0000           -0.2598016              -7.0696
        43                         -0.2198374              -5.9821
        44                         -0.2041483              -5.5552
        45                         -0.1882415              -5.1223
        46                         -0.1477049              -4.0193
        47                         -0.1193762              -3.2484
        48                         -0.0789984              -2.1497
       ...                                ...                  ...
        67                         25.4504508             692.5420
      -------------------------------------------------------------
                  HL-Gap            0.0581141 Eh            1.5814 eV

     #   Z          covCN         q      C6AA      α(0)
     1   6 C        3.703    -0.078    22.148     6.729
     2   7 N        2.721    -0.024    21.715     6.921
     3   6 C        2.783     0.100    25.773     8.315
     4   7 N        2.701    -0.071    22.629     7.065
     5   6 C        2.860     0.141    24.932     8.184
     6   6 C        3.892    -0.177    23.881     6.947
     7   6 C        3.805     0.294    16.184     5.727
     8   8 O        0.856    -0.428    22.246     6.324
     9   7 N        2.811    -0.123    23.675     7.227
    10   6 C        3.685    -0.053    21.733     6.674
    11   6 C        2.928     0.289    22.123     7.714
    12   8 O        0.856    -0.304    19.847     5.973
    13   7 N        1.839    -0.057    23.076     7.119
    14   6 C        2.771     0.032    27.256     8.550
    15   1 H        0.924     0.136     1.487     1.907
    16   1 H        0.925     0.093     1.853     2.129
    17   1 H        0.924     0.105     1.743     2.064
    18   1 H        0.925     0.119     1.625     1.993
    19   1 H        0.924     0.081     1.965     2.192
    20   1 H        0.925     0.101     1.776     2.084
    21   1 H        0.924     0.104     1.749     2.068
    22   1 H        0.925     0.125     1.576     1.963
    23   1 H        0.926     0.144     1.433     1.872
    24   1 H        0.968     0.216     1.020     1.578
    25   1 H        0.860     0.237     0.935     1.515

Wiberg/Mayer (AO) data.
largest (>0.10) Wiberg bond orders for each atom

     #   Z sym  total        # sym  WBO       # sym  WBO       # sym  WBO
 ---------------------------------------------------------------------------
     1   6 C    3.915 --     2 N    0.992    16 H    0.970    17 H    0.949
                            15 H    0.949
     2   7 N    3.562 --     3 C    1.541     1 C    0.992     7 C    0.756
                             4 N    0.104
     3   6 C    3.867 --     2 N    1.541     4 N    1.257    18 H    0.937
     4   7 N    3.572 --     3 C    1.257     5 C    1.146    25 H    0.912
                             2 N    0.104
     5   6 C    3.830 --    13 N    1.435     4 N    1.146     6 C    1.048
     6   6 C    3.785 --     5 C    1.048    24 H    0.904     7 C    0.785
                            11 C    0.734
     7   6 C    3.938 --     8 O    1.464     9 N    0.835     6 C    0.785
                             2 N    0.756
     8   8 O    1.745 --     7 C    1.464
     9   7 N    3.421 --    11 C    1.276    10 C    0.982     7 C    0.835
                            12 O    0.189
    10   6 C    3.914 --     9 N    0.982    20 H    0.965    19 H    0.958
                            21 H    0.957
    11   6 C    3.929 --    12 O    1.791     9 N    1.276     6 C    0.734
    12   8 O    2.160 --    11 C    1.791     9 N    0.189
    13   7 N    3.381 --    14 C    1.758     5 C    1.435
    14   6 C    3.725 --    13 N    1.758    23 H    0.937    22 H    0.926
    15   1 H    0.976 --     1 C    0.949
    16   1 H    0.989 --     1 C    0.970
    17   1 H    0.981 --     1 C    0.949
    18   1 H    0.982 --     3 C    0.937
    19   1 H    0.979 --    10 C    0.958
    20   1 H    0.982 --    10 C    0.965
    21   1 H    0.978 --    10 C    0.957
    22   1 H    0.966 --    14 C    0.926
    23   1 H    0.969 --    14 C    0.937
    24   1 H    0.952 --     6 C    0.904
    25   1 H    0.944 --     4 N    0.912
 ---------------------------------------------------------------------------

molecular dipole:
                 x           y           z       tot (Debye)
 q only:        1.754      -2.203      -1.085
   full:        1.933      -2.458      -1.235       8.545

           -------------------------------------------------
          | TOTAL ENERGY             -107.658830208078 Eh   |
          | GRADIENT NORM               0.003981491438 Eh/α |
          | HOMO-LUMO GAP               1.581365017558 eV   |
           -------------------------------------------------

 * finished run on 2024/06/05 at 19:58:06.249
