   * xtb version 6.6.1 (8d0f1dd) compiled by 'conda@1efc2f54142f' on 2023-08-01
          program call               : xtb xtbopt.xyz --opt crude --input .xc2 --gfn2

   ID    Z sym.   atoms
    1    6 C      1, 3, 5-7, 10, 11, 14
    2    7 N      2, 4, 9, 13
    3    8 O      8, 12
    4    1 H      15-25
########################################################################
[WARNING] Please study the warnings concerning your input carefully
-1- readin_getIntValue: could not parse ''
########################################################################

          :  Hamiltonian                  GFN2-xTB          :
 * total energy  :   -37.6198719 Eh     change       -0.5684342E-13 Eh
 * total energy  :   -42.0776289 Eh     change       -0.4457757E+01 Eh
 * total energy  :   -42.1029942 Eh     change       -0.2536526E-01 Eh
 * total energy  :   -42.1084338 Eh     change       -0.5439561E-02 Eh
 * total energy  :   -42.1101099 Eh     change       -0.1676105E-02 Eh
 * total energy  :   -42.1119727 Eh     change       -0.1862816E-02 Eh
 * total energy  :   -42.1142629 Eh     change       -0.2290200E-02 Eh
 * total energy  :   -42.1167937 Eh     change       -0.2530797E-02 Eh
 * total energy  :   -42.1184988 Eh     change       -0.1705073E-02 Eh
 * total energy  :   -42.1190619 Eh     change       -0.5631551E-03 Eh
 * total energy  :   -42.1191984 Eh     change       -0.1365095E-03 Eh
   *** GEOMETRY OPTIMIZATION CONVERGED AFTER 11 ITERATIONS ***

 final structure:
================
25
 xtb: 6.6.1 (8d0f1dd)
C            2.36334748219351        1.66399805906841        0.15092343630186
N            1.53298993317398        0.49121898083174        0.05250245509489
C            1.95481009389785       -0.61142695085502       -0.47903326673212
N            1.23215983944586       -1.74322816720084       -0.54910167159934
C           -0.00607262847875       -1.90935798746364        0.02314880891284
C           -0.65682967309748       -0.73709127465267        0.59776552691408
C            0.17633835519742        0.61061495263926        0.79805661423788
O            0.30371269558639        1.11344327379899        1.92266688532552
N           -0.76844781188483        1.22568331575594       -0.20784895829577
C           -1.05866488576791        2.60267335225596       -0.48320136190740
C           -1.52742226278917        0.13024864210059       -0.37822886155268
O           -2.47842698256006       -0.14370792280807       -1.03861604023293
N           -0.61176423358938       -3.03352248594653       -0.16555943092128
C           -1.42741383509817       -3.88089447108751        0.29441861308018
H            2.22864193661948        2.08556038034619        1.14873972144246
H            3.40959941755524        1.42076848294523       -0.01400824186634
H            2.03693682568043        2.40381778040818       -0.58158405343118
H            2.95538378226030       -0.65104288393439       -0.89468169961625
H           -0.38026725179015        2.99239235342678       -1.24585142162541
H           -2.08408714884512        2.68041039985123       -0.84106321085837
H           -0.94105290337939        3.17984902626674        0.43520802175286
H           -1.53759834051397       -4.08470133022783        1.35728027119398
H           -1.99926523213011       -4.47121609710835       -0.40465528524702
H           -1.20449363516818       -0.95689509339709        1.51961447033464
H            1.64831797758232       -2.55935579363255       -0.98571970272067

          :  Hamiltonian                  GFN2-xTB          :
         :: total energy             -42.119198421563 Eh    ::
         :: gradient norm              0.008750936746 Eh/a0 ::
         :: HOMO-LUMO gap              1.583947351651 eV    ::
         :: SCC energy               -42.642933871412 Eh    ::
         :: -> dispersion             -0.022711233418 Eh    ::
         :: repulsion energy           0.523555891950 Eh    ::

    * Orbital Energies and Occupations

         #    Occupation            Energy/Eh            Energy/eV
      -------------------------------------------------------------
         1        2.0000           -0.8932912             -24.3077
       ...           ...                  ...                  ...
        25        2.0000           -0.6742415             -18.3470
        26        1.9999           -0.6565527             -17.8657
        27        1.9998           -0.6492849             -17.6679
        28        1.9997           -0.6442972             -17.5322
        29        1.9995           -0.6368430             -17.3294
        30        1.9993           -0.6299753             -17.1425
        31        1.9986           -0.6201261             -16.8745
        32        1.9973           -0.6092077             -16.5774
        33        1.9892           -0.5873217             -15.9818
        34        1.9537           -0.5640008             -15.3472
        35        1.9258           -0.5562802             -15.1372
        36        1.9004           -0.5514230             -15.0050
        37        1.8095           -0.5403731             -14.7043 (HOMO)
        38        0.3877           -0.4821641             -13.1204 (LUMO)
        39        0.0379           -0.4422206             -12.0334
        40        0.0016           -0.3917390             -10.6598
        41        0.0003           -0.3644136              -9.9162
        42                         -0.2266933              -6.1686
        43                         -0.1907382              -5.1903
        44                         -0.1842660              -5.0141
        45                         -0.1706268              -4.6430
        46                         -0.1223179              -3.3284
        47                         -0.1010500              -2.7497
        48                         -0.0687092              -1.8697
       ...                                ...                  ...
        67                          0.6232473              16.9594
      -------------------------------------------------------------
                  HL-Gap            0.0582090 Eh            1.5839 eV

     #   Z          covCN         q      C6AA      α(0)
     1   6 C        3.702    -0.077    22.138     6.728
     2   7 N        2.723    -0.018    21.593     6.902
     3   6 C        2.782     0.100    25.772     8.315
     4   7 N        2.705    -0.067    22.546     7.052
     5   6 C        2.825     0.152    24.694     8.143
     6   6 C        3.998    -0.089    22.115     6.681
     7   6 C        3.874     0.296    16.123     5.709
     8   8 O        0.856    -0.439    22.471     6.355
     9   7 N        2.874    -0.122    23.654     7.223
    10   6 C        3.684    -0.052    21.715     6.672
    11   6 C        2.988     0.291    22.083     7.708
    12   8 O        0.856    -0.312    20.008     5.997
    13   7 N        1.839    -0.051    22.961     7.101
    14   6 C        2.770     0.027    27.370     8.568
    15   1 H        0.924     0.135     1.501     1.916
    16   1 H        0.925     0.092     1.858     2.131
    17   1 H        0.924     0.105     1.737     2.061
    18   1 H        0.925     0.119     1.620     1.990
    19   1 H        0.924     0.083     1.949     2.183
    20   1 H        0.925     0.103     1.762     2.076
    21   1 H        0.924     0.104     1.753     2.070
    22   1 H        0.925     0.123     1.589     1.971
    23   1 H        0.926     0.144     1.436     1.874
    24   1 H        0.924     0.118     1.629     1.996
    25   1 H        0.860     0.237     0.935     1.515

Wiberg/Mayer (AO) data.
largest (>0.10) Wiberg bond orders for each atom

     #   Z sym  total        # sym  WBO       # sym  WBO       # sym  WBO
 ---------------------------------------------------------------------------
     1   6 C    3.916 --     2 N    0.992    16 H    0.971    15 H    0.950
                            17 H    0.950
     2   7 N    3.565 --     3 C    1.539     1 C    0.992     7 C    0.767
                             4 N    0.104
     3   6 C    3.872 --     2 N    1.539     4 N    1.261    18 H    0.937
     4   7 N    3.575 --     3 C    1.261     5 C    1.144    25 H    0.913
                             2 N    0.104
     5   6 C    3.830 --    13 N    1.458     4 N    1.144     6 C    1.048
     6   6 C    3.884 --     5 C    1.048    24 H    0.932     7 C    0.830
                            11 C    0.821
     7   6 C    3.939 --     8 O    1.421     6 C    0.830     9 N    0.829
                             2 N    0.767
     8   8 O    1.696 --     7 C    1.421
     9   7 N    3.393 --    11 C    1.244    10 C    0.994     7 C    0.829
                            12 O    0.186
    10   6 C    3.914 --     9 N    0.994    20 H    0.962    21 H    0.955
                            19 H    0.954
    11   6 C    3.937 --    12 O    1.766     9 N    1.244     6 C    0.821
    12   8 O    2.109 --    11 C    1.766     9 N    0.186
    13   7 N    3.384 --    14 C    1.739     5 C    1.458
    14   6 C    3.704 --    13 N    1.739    23 H    0.936    22 H    0.926
    15   1 H    0.976 --     1 C    0.950
    16   1 H    0.989 --     1 C    0.971
    17   1 H    0.981 --     1 C    0.950
    18   1 H    0.982 --     3 C    0.937
    19   1 H    0.973 --    10 C    0.954
    20   1 H    0.980 --    10 C    0.962
    21   1 H    0.974 --    10 C    0.955
    22   1 H    0.966 --    14 C    0.926
    23   1 H    0.969 --    14 C    0.936
    24   1 H    0.982 --     6 C    0.932
    25   1 H    0.943 --     4 N    0.913
 ---------------------------------------------------------------------------

molecular dipole:
                 x           y           z       tot (Debye)
 q only:        1.818      -2.251      -0.951
   full:        1.950      -2.517      -0.970       8.461

           -------------------------------------------------
          | TOTAL ENERGY              -42.119198421563 Eh   |
          | GRADIENT NORM               0.008750936746 Eh/α |
          | HOMO-LUMO GAP               1.583947351651 eV   |
           -------------------------------------------------

 * finished run on 2024/06/05 at 19:58:06.591
