   * xtb version 6.6.1 (8d0f1dd) compiled by 'conda@1efc2f54142f' on 2023-08-01
          program call               : xtb struc.xyz --opt loose --input .xc1 --gfn2

   ID    Z sym.   atoms
    1    7 N      1, 17
    2    6 C      2-6, 8, 9, 11-16, 18-23, 25, 26, 28-33
    3    8 O      7, 10, 24, 27
    4    1 H      34-72
constraining bond 13 67 to    5.7133300 Å, actual value:    2.9230013 Å

          :  Hamiltonian                  GFN2-xTB          :
 * total energy  :  -100.7943344 Eh     change       -0.4035485E-08 Eh
 * total energy  :  -101.5456408 Eh     change       -0.7513064E+00 Eh
 * total energy  :  -102.3960151 Eh     change       -0.8503743E+00 Eh
 * total energy  :  -103.3264336 Eh     change       -0.9304184E+00 Eh
 * total energy  :  -100.3693638 Eh     change        0.2957070E+01 Eh
 * total energy  :  -103.4024809 Eh     change       -0.3033117E+01 Eh
 * total energy  :  -103.4709559 Eh     change       -0.6847493E-01 Eh
 * total energy  :  -103.5179862 Eh     change       -0.4703036E-01 Eh
 * total energy  :  -103.5312779 Eh     change       -0.1329169E-01 Eh
 * total energy  :  -103.5418824 Eh     change       -0.1060445E-01 Eh
 * total energy  :  -103.6351331 Eh     change       -0.3376763E-03 Eh
 * total energy  :  -103.6353850 Eh     change       -0.2519551E-03 Eh
 * total energy  :  -103.6355737 Eh     change       -0.1887139E-03 Eh
 * total energy  :  -103.6356657 Eh     change       -0.9192833E-04 Eh
 * total energy  :  -103.6357301 Eh     change       -0.6447801E-04 Eh
 * total energy  :  -103.6358243 Eh     change       -0.9418412E-04 Eh
 * total energy  :  -103.6358914 Eh     change       -0.6703943E-04 Eh
 * total energy  :  -103.6359621 Eh     change       -0.7075844E-04 Eh
 * total energy  :  -103.6359942 Eh     change       -0.3210011E-04 Eh
   *** GEOMETRY OPTIMIZATION CONVERGED AFTER 73 ITERATIONS ***

 final structure:
================
72
 xtb: 6.6.1 (8d0f1dd)
N           -2.62608068447501        2.84045126809566        2.43408295040398
C           -2.01558121034488        2.26290511053223        1.38925547810356
C           -2.98362289496183        1.98211178533298        0.29023486026597
C           -3.48936035814274        0.54615668975220        0.36017443453080
C           -4.29523549348330        0.03276385326799       -0.61529307086058
C           -4.77814871966758       -1.28074497509896       -0.59024848991694
O           -5.56031504298220       -1.84490234981495       -1.53283910865425
C           -5.98767940669839       -1.07976827895163       -2.63269652835980
C           -4.42831930433067       -2.13938885727484        0.51030197244707
O           -4.94123158672301       -3.38819095505313        0.41793652790454
C           -4.71976138091784       -4.28877297693942        1.47730070529845
C           -3.65454413099011       -1.66973277745897        1.51620707696155
C           -3.12729624272535       -0.25258577660945        1.59574245994954
C           -2.39409495635630        2.29729963186512       -1.10215194259952
C           -1.44624430966150        1.22133561633322       -1.65765101474325
C           -0.16063379084480        1.12837612059262       -0.93322443735959
N            0.42886654880290       -0.00864584303251       -0.53455105613562
C            1.81991305835730        0.00761505080612       -0.14825987064924
C            2.75222103050104       -0.33936916475904       -1.32705266937233
C            4.18700272540142       -0.14544786586239       -0.92652684405142
C            4.82982677734269        1.05689585045159       -1.16073597100058
C            6.14675861232291        1.24636258818080       -0.76759203799682
C            6.84311301214761        0.23567198725815       -0.12425401436277
O            8.12283858792441        0.30967591980164        0.30145317267291
C            8.84996439039261        1.49276475197280        0.06881807059848
C            6.19074095388044       -1.00034067340272        0.12467952253345
O            6.94326421371013       -1.93122990000637        0.75434918474285
C            6.38870659549604       -3.19767522846863        1.01225521211606
C            4.87671349303694       -1.16829067158131       -0.27753239089151
C           -0.15775229448013       -1.30262139966690       -0.78452910034136
C           -4.16535246545762        2.94044507215248        0.68428362956283
C           -4.04001533862530        3.01357874537522        2.21560093623288
C           -4.05999791926947        4.34365868417358        0.09681341399198
H           -4.56763707115896        0.65967880195537       -1.44956234158017
H           -6.58236867188494       -0.21657561507608       -2.31696742210389
H           -6.61011980614429       -1.74554922737346       -3.22775245594308
H           -5.14240673712222       -0.73910002057980       -3.24030048269368
H           -5.11865734205419       -3.90197687728123        2.42087662331840
H           -5.25274617595292       -5.19788054268633        1.20650778840125
H           -3.65502465772217       -4.51386701187949        1.59586371713791
H           -3.40042750051914       -2.29034816424752        2.35927358303603
H           -2.01109084427290       -0.33827856834537        1.59489621167019
H           -3.21414121838114        2.41170749034917       -1.80969083598539
H           -1.86019070436383        3.24579497385342       -1.05116433186666
H           -1.95788782850730        0.26210731572373       -1.68502126275249
H           -1.23016356915064        1.50845068304458       -2.69594799089828
H           -0.96554991770933        2.05506300530399        1.38713772511847
H            0.39688933625891        2.03676100746020       -0.77251336714601
H            1.97564722264333       -0.70904534696401        0.66249136798056
H            2.07656767375993        1.00288964854497        0.22058724771211
H            2.50885172498537        0.31616258228104       -2.16525239452313
H            2.58272508337809       -1.37223918698274       -1.63386542123717
H            4.31186580040398        1.85758780341640       -1.66699302211494
H            6.62339660087395        2.19057265705346       -0.97401810432915
H            8.39522659446874        2.35011596018742        0.57521897996524
H            8.93872519138592        1.70558472226577       -1.00102071034516
H            9.83999959977283        1.31341254828962        0.48375135198974
H            7.17678349567006       -3.76783299577828        1.50046762674274
H            5.52479399455183       -3.13018541134856        1.68203888913945
H            6.09583572305770       -3.70495973584182        0.08740062875164
H            4.37433023570197       -2.10691333700208       -0.10270467911457
H           -0.11279479577802       -1.56829754291344       -1.84440122459436
H           -1.20044089636831       -1.31984770564565       -0.46838923907824
H            0.38674511006221       -2.05368972742475       -0.21627722621746
H           -5.11939047755885        2.50059904798188        0.39048482877654
H           -4.38088329275836        3.96942152345657        2.61509881256698
H           -3.35196360152251        0.05913566838078        2.19357646427753
H           -4.60714800564431        2.21297291531485        2.70626228564786
H           -3.12178580498590        4.81245867279508        0.37868399819154
H           -4.13609998010046        4.33322313929435       -0.98437713391035
H           -4.87565095794713        4.95355693990127        0.47775499067747
H           -2.17596040053819        3.06310840105736        3.30476030690765

          :  Hamiltonian                  GFN2-xTB          :
         :: total energy            -103.635994233760 Eh    ::
         :: gradient norm              0.003374644189 Eh/a0 ::
         :: HOMO-LUMO gap              0.253790070914 eV    ::
         :: SCC energy              -100.748798808359 Eh    ::
         :: -> dispersion             -0.074019559009 Eh    ::
         :: repulsion energy           1.580148513457 Eh    ::

    * Orbital Energies and Occupations

         #    Occupation            Energy/Eh            Energy/eV
      -------------------------------------------------------------
         1        2.0000           -0.8038398             -21.8736
       ...           ...                  ...                  ...
        78        1.9997           -0.5304289             -14.4337
        79        1.9997           -0.5296571             -14.4127
        80        1.9996           -0.5247896             -14.2803
        81        1.9996           -0.5244867             -14.2720
        82        1.9993           -0.5156425             -14.0313
        83        1.9991           -0.5125954             -13.9484
        84        1.9991           -0.5121307             -13.9358
        85        1.9984           -0.5036429             -13.7048
        86        1.9983           -0.5022500             -13.6669
        87        1.9878           -0.4709965             -12.8165
        88        1.9852           -0.4679953             -12.7348
        89        1.9133           -0.4393802             -11.9561
        90        0.9060           -0.3873938             -10.5415 (HOMO)
        91        0.6297           -0.3780672             -10.2877 (LUMO)
        92        0.5694           -0.3757941             -10.2259
        93        0.0086           -0.3042160              -8.2781
        94        0.0048           -0.2948914              -8.0244
        95        0.0040           -0.2919408              -7.9441
        96        0.0000           -0.2133660              -5.8060
        97        0.0000           -0.1692221              -4.6048
        98                         -0.1151406              -3.1331
        99                         -0.1079963              -2.9387
       100                         -0.0782839              -2.1302
       101                         -0.0647956              -1.7632
       ...                                ...                  ...
       171                          1.7040745              46.3702
      -------------------------------------------------------------
                  HL-Gap            0.0093266 Eh            0.2538 eV

     #   Z          covCN         q      C6AA      α(0)
     1   7 N        2.710    -0.089    22.985     7.120
     2   6 C        2.897    -0.011    28.293     8.721
     3   6 C        3.927     0.013    20.300     6.403
     4   6 C        2.957    -0.028    28.699     8.787
     5   6 C        2.901    -0.077    29.925     8.969
     6   6 C        2.860     0.115    25.466     8.272
     7   8 O        1.705    -0.221    17.669     5.675
     8   6 C        3.644     0.028    20.441     6.499
     9   6 C        2.848     0.128    25.186     8.225
    10   8 O        1.706    -0.245    18.060     5.738
    11   6 C        3.646     0.029    20.423     6.495
    12   6 C        2.900    -0.103    30.606     9.071
    13   6 C        3.808    -0.098    22.371     6.733
    14   6 C        3.805    -0.069    21.815     6.649
    15   6 C        3.802    -0.068    21.803     6.648
    16   6 C        2.842    -0.020    28.495     8.748
    17   7 N        2.728    -0.009    21.432     6.876
    18   6 C        3.756    -0.014    20.881     6.515
    19   6 C        3.807    -0.070    21.825     6.650
    20   6 C        2.969    -0.004    28.122     8.699
    21   6 C        2.922    -0.052    29.293     8.876
    22   6 C        2.915    -0.070    29.748     8.944
    23   6 C        2.865     0.129    25.167     8.223
    24   8 O        1.706    -0.233    17.870     5.707
    25   6 C        3.645     0.029    20.423     6.495
    26   6 C        2.863     0.129    25.169     8.223
    27   8 O        1.706    -0.235    17.901     5.712
    28   6 C        3.645     0.031    20.392     6.490
    29   6 C        2.920    -0.081    30.036     8.987
    30   6 C        3.699    -0.066    21.930     6.697
    31   6 C        3.890    -0.022    20.919     6.502
    32   6 C        3.793    -0.010    20.756     6.488
    33   6 C        3.755    -0.118    22.810     6.810
    34   1 H        0.926     0.048     2.346     2.395
    35   1 H        0.924     0.052     2.301     2.372
    36   1 H        0.925     0.080     1.980     2.200
    37   1 H        0.924     0.047     2.352     2.399
    38   1 H        0.924     0.048     2.348     2.396
    39   1 H        0.925     0.077     2.013     2.218
    40   1 H        0.924     0.044     2.398     2.422
    41   1 H        0.926     0.044     2.395     2.420
    42   1 H        0.920     0.046     2.367     2.406
    43   1 H        0.925     0.056     2.244     2.342
    44   1 H        0.925     0.055     2.255     2.348
    45   1 H        0.925     0.062     2.171     2.304
    46   1 H        0.923     0.070     2.085     2.258
    47   1 H        0.926     0.051     2.311     2.377
    48   1 H        0.926     0.053     2.277     2.360
    49   1 H        0.924     0.060     2.202     2.320
    50   1 H        0.924     0.062     2.181     2.309
    51   1 H        0.924     0.050     2.317     2.380
    52   1 H        0.924     0.052     2.300     2.372
    53   1 H        0.926     0.039     2.460     2.453
    54   1 H        0.926     0.052     2.294     2.369
    55   1 H        0.924     0.048     2.341     2.393
    56   1 H        0.924     0.051     2.312     2.378
    57   1 H        0.925     0.077     2.012     2.218
    58   1 H        0.925     0.077     2.015     2.220
    59   1 H        0.924     0.043     2.405     2.425
    60   1 H        0.924     0.048     2.347     2.396
    61   1 H        0.926     0.042     2.421     2.433
    62   1 H        0.924     0.069     2.098     2.265
    63   1 H        0.925     0.075     2.034     2.230
    64   1 H        0.925     0.073     2.057     2.243
    65   1 H        0.924     0.054     2.272     2.357
    66   1 H        0.924     0.069     2.098     2.265
    67   1 H        0.931     0.122     1.595     1.975
    68   1 H        0.924     0.058     2.220     2.330
    69   1 H        0.925     0.047     2.358     2.401
    70   1 H        0.925     0.053     2.281     2.362
    71   1 H        0.925     0.055     2.263     2.353
    72   1 H        0.860     0.177     1.233     1.739

Wiberg/Mayer (AO) data.
largest (>0.10) Wiberg bond orders for each atom

     #   Z sym  total        # sym  WBO       # sym  WBO       # sym  WBO
 ---------------------------------------------------------------------------
     1   7 N    3.322 --     2 C    1.331    32 C    0.999    72 H    0.941
     2   6 C    3.402 --     1 N    1.331     3 C    1.024    47 H    0.963
     3   6 C    3.987 --     2 C    1.024     4 C    0.966    14 C    0.966
                            31 C    0.933
     4   6 C    3.653 --     5 C    1.552    13 C    1.016     3 C    0.966
     5   6 C    3.973 --     4 C    1.552     6 C    1.296    34 H    0.955
     6   6 C    3.641 --     5 C    1.296     9 C    1.135     7 O    1.106
     7   8 O    2.215 --     6 C    1.106     8 C    0.980
     8   6 C    3.935 --     7 O    0.980    36 H    0.977    35 H    0.973
                            37 H    0.973
     9   6 C    3.933 --    12 C    1.594     6 C    1.135    10 O    1.080
    10   8 O    2.251 --     9 C    1.080    11 C    0.981    12 C    0.105
    11   6 C    3.938 --    10 O    0.981    39 H    0.978    40 H    0.975
                            38 H    0.975
    12   6 C    3.772 --     9 C    1.594    13 C    1.020    41 H    0.965
                            10 O    0.105
    13   6 C    3.969 --    12 C    1.020     4 C    1.016    67 H    0.945
                            42 H    0.918
    14   6 C    3.956 --    15 C    0.985    44 H    0.973    43 H    0.969
                             3 C    0.966
    15   6 C    3.989 --    16 C    1.058    14 C    0.985    45 H    0.961
                            46 H    0.933
    16   6 C    3.455 --    17 N    1.337    15 C    1.058    48 H    0.961
    17   7 N    3.396 --    16 C    1.337    30 C    1.002    18 C    0.991
    18   6 C    3.959 --    17 N    0.991    50 H    0.969    49 H    0.966
                            19 C    0.965
    19   6 C    3.975 --    20 C    1.008    51 H    0.973    52 H    0.972
                            18 C    0.965
    20   6 C    3.959 --    21 C    1.422    29 C    1.373    19 C    1.008
    21   6 C    3.963 --    20 C    1.422    22 C    1.409    53 H    0.969
    22   6 C    3.968 --    21 C    1.409    23 C    1.394    54 H    0.964
    23   6 C    3.910 --    22 C    1.394    26 C    1.232    24 O    1.095
    24   8 O    2.253 --    23 C    1.095    25 C    0.979
    25   6 C    3.935 --    24 O    0.979    57 H    0.978    55 H    0.974
                            56 H    0.974
    26   6 C    3.914 --    29 C    1.405    23 C    1.232    27 O    1.089
    27   8 O    2.252 --    26 C    1.089    28 C    0.982
    28   6 C    3.938 --    27 O    0.982    58 H    0.978    59 H    0.975
                            60 H    0.975
    29   6 C    3.966 --    26 C    1.405    20 C    1.373    61 H    0.963
    30   6 C    3.963 --    17 N    1.002    64 H    0.978    63 H    0.968
                            62 H    0.966
    31   6 C    3.965 --    33 C    1.012    32 C    0.989    65 H    0.969
                             3 C    0.933
    32   6 C    3.962 --     1 N    0.999    31 C    0.989    66 H    0.966
                            68 H    0.957
    33   6 C    3.989 --    31 C    1.012    69 H    0.985    70 H    0.981
                            71 H    0.980
    34   1 H    0.997 --     5 C    0.955
    35   1 H    0.991 --     8 C    0.973
    36   1 H    0.993 --     8 C    0.977
    37   1 H    0.991 --     8 C    0.973
    38   1 H    0.997 --    11 C    0.975
    39   1 H    0.994 --    11 C    0.978
    40   1 H    0.997 --    11 C    0.975
    41   1 H    0.997 --    12 C    0.965
    42   1 H    0.954 --    13 C    0.918
    43   1 H    0.995 --    14 C    0.969
    44   1 H    0.996 --    14 C    0.973
    45   1 H    0.995 --    15 C    0.961
    46   1 H    0.964 --    15 C    0.933
    47   1 H    0.997 --     2 C    0.963
    48   1 H    0.997 --    16 C    0.961
    49   1 H    0.992 --    18 C    0.966
    50   1 H    0.995 --    18 C    0.969
    51   1 H    0.997 --    19 C    0.973
    52   1 H    0.996 --    19 C    0.972
    53   1 H    0.998 --    21 C    0.969
    54   1 H    0.996 --    22 C    0.964
    55   1 H    0.995 --    25 C    0.974
    56   1 H    0.994 --    25 C    0.974
    57   1 H    0.994 --    25 C    0.978
    58   1 H    0.994 --    28 C    0.978
    59   1 H    0.996 --    28 C    0.975
    60   1 H    0.995 --    28 C    0.975
    61   1 H    0.997 --    29 C    0.963
    62   1 H    0.982 --    30 C    0.966
    63   1 H    0.989 --    30 C    0.968
    64   1 H    0.994 --    30 C    0.978
    65   1 H    0.997 --    31 C    0.969
    66   1 H    0.990 --    32 C    0.966
    67   1 H    0.969 --    13 C    0.945
    68   1 H    0.983 --    32 C    0.957
    69   1 H    0.998 --    33 C    0.985
    70   1 H    0.997 --    33 C    0.981
    71   1 H    0.996 --    33 C    0.980
    72   1 H    0.968 --     1 N    0.941
 ---------------------------------------------------------------------------

molecular dipole:
                 x           y           z       tot (Debye)
 q only:       -1.548       1.559       0.631
   full:       -1.510       1.734       0.784       6.175

           -------------------------------------------------
          | TOTAL ENERGY             -103.635994233760 Eh   |
          | GRADIENT NORM               0.003374644189 Eh/α |
          | HOMO-LUMO GAP               0.253790070914 eV   |
           -------------------------------------------------

 * finished run on 2024/04/06 at 11:16:39.265
