   * xtb version 6.6.1 (8d0f1dd) compiled by 'conda@1efc2f54142f' on 2023-08-01
          program call               : xtb xtbopt.xyz --opt crude --input .xc2 --gfn2

   ID    Z sym.   atoms
    1    7 N      1, 17
    2    6 C      2-6, 8, 9, 11-16, 18-23, 25, 26, 28-33
    3    8 O      7, 10, 24, 27
    4    1 H      34-72
########################################################################
[WARNING] Please study the warnings concerning your input carefully
-1- readin_getIntValue: could not parse ''
########################################################################

          :  Hamiltonian                  GFN2-xTB          :
 * total energy  :   -99.1674125 Eh     change       -0.1099920E-10 Eh
 * total energy  :   -99.3813065 Eh     change       -0.2138939E+00 Eh
 * total energy  :   -99.3833045 Eh     change       -0.1998055E-02 Eh
 * total energy  :   -99.3843043 Eh     change       -0.9997553E-03 Eh
 * total energy  :   -99.3845503 Eh     change       -0.2460410E-03 Eh
 * total energy  :   -99.3846779 Eh     change       -0.1275625E-03 Eh
   *** GEOMETRY OPTIMIZATION CONVERGED AFTER 6 ITERATIONS ***

 final structure:
================
72
 xtb: 6.6.1 (8d0f1dd)
N           -2.62374653339036        2.84304554212680        2.42713057803017
C           -2.01324127136338        2.26598727119171        1.38301580305760
C           -2.98139320502367        1.97885242469191        0.28635275381481
C           -3.47954064801030        0.53958036527194        0.35679311651484
C           -4.30575088625728        0.03695073841923       -0.61016622711196
C           -4.78070373200219       -1.27915178502722       -0.59299689394750
O           -5.56891872620337       -1.83987952644100       -1.53374094400099
C           -5.99900700174942       -1.07252264081306       -2.63077248189124
C           -4.41800000713396       -2.14654520804757        0.49624426739882
O           -4.94379437368436       -3.39017598057111        0.40833418530591
C           -4.71760144679131       -4.29418242290632        1.46303304640226
C           -3.61358115030235       -1.69087284177989        1.48645276681258
C           -3.08733023086887       -0.29437670636635        1.53561282315223
C           -2.39322856107899        2.29335797113077       -1.10744470690297
C           -1.44557593650796        1.21673210395833       -1.66129529219147
C           -0.16095651855535        1.12538182741535       -0.93507162247599
N            0.42792625043020       -0.01090948660604       -0.53413792371349
C            1.81806855966122        0.00664284571706       -0.14494811939744
C            2.75179313622036       -0.33807105956840       -1.32313723650680
C            4.18617306111304       -0.14390006265679       -0.92182265599306
C            4.82846122847849        1.05919059436709       -1.15366246999039
C            6.14578409793621        1.24772637489806       -0.76145271621374
C            6.84290181269265        0.23544920051745       -0.12135755169798
O            8.12343038411831        0.30826989239639        0.30197913532384
C            8.85089753701964        1.49098540932437        0.06844158878500
C            6.19061104165951       -1.00091173552373        0.12625335612002
O            6.94330563119799       -1.93322911964154        0.75344611343876
C            6.38824815596486       -3.19995222810022        1.00908821821317
C            4.87622855024234       -1.16792719462357       -0.27518597169582
C           -0.15638366823663       -1.30558375579266       -0.78606043302301
C           -4.16479737007955        2.93574752796594        0.67740909677719
C           -4.03721889884807        3.02064253532032        2.20762927148020
C           -4.06497034913361        4.33702203432207        0.08196956578961
H           -4.59709221823132        0.67423438048584       -1.43042118653594
H           -6.59438186153538       -0.21103891922537       -2.31251352864649
H           -6.62159368720077       -1.73760217668797       -3.22635059296696
H           -5.15519100113729       -0.72940520064155       -3.23885325941801
H           -5.10970403488174       -3.90893691020727        2.40947102922894
H           -5.25432877053301       -5.20102586109264        1.19218562920889
H           -3.65310286483222       -4.52232493459434        1.57594624357994
H           -3.34021029595239       -2.32080444110121        2.31694900460752
H           -1.98925334560143       -0.31800545682468        1.62722529391322
H           -3.21310054314756        2.40681403631949       -1.81534815388268
H           -1.85961040700687        3.24223877585716       -1.05751373323729
H           -1.95800020050025        0.25757446227436       -1.68588860517413
H           -1.22875741597744        1.50064488273863       -2.70051469924968
H           -0.96372382287820        2.05398754475863        1.38082329299162
H            0.39555554500772        2.03421288555298       -0.77352385229689
H            1.97330228020935       -0.71060813891162        0.66528126941931
H            2.07321596428732        1.00169792366204        0.22531705535576
H            2.50843865947408        0.31828985334252       -2.16065331839089
H            2.58324270191302       -1.37062490209384       -1.63131837110097
H            4.30983233037520        1.86095571848480       -1.65752011687994
H            6.62225939860040        2.19238234777573       -0.96626389313749
H            8.39812121863405        2.34829061098137        0.57661499316632
H            8.93705204134554        1.70451079330803       -1.00146247326069
H            9.84180867950795        1.31051466181232        0.48069840645422
H            7.17636856741122       -3.77165252689775        1.49535239781892
H            5.52496606196398       -3.13339354736994        1.67972382959891
H            6.09428487117505       -3.70496907663524        0.08337142263831
H            4.37378190044722       -2.10677003521543       -0.10182387310263
H           -0.10665160602970       -1.57100351037016       -1.84585282702076
H           -1.20014462982336       -1.32403407494397       -0.47337746710053
H            0.38697276851411       -2.05594423116415       -0.21577633791615
H           -5.11772173014433        2.49121344830515        0.38947525064605
H           -4.37206704388978        3.98193419084298        2.60048457257952
H           -3.43856681394542        0.18081418380466        2.46390481234928
H           -4.61017877713014        2.22778474170955        2.70426703731568
H           -3.12426417538037        4.80845251401423        0.35602173748871
H           -4.14861990796971        4.32296224257989       -0.99988753917888
H           -4.87865741059422        4.94757914675198        0.46655917508081
H           -2.17585375904994        3.06182121654926        3.30052377798821

          :  Hamiltonian                  GFN2-xTB          :
         :: total energy             -99.384677884774 Eh    ::
         :: gradient norm              0.003038586178 Eh/a0 ::
         :: HOMO-LUMO gap              0.260225861585 eV    ::
         :: SCC energy              -100.723693888751 Eh    ::
         :: -> dispersion             -0.074080103917 Eh    ::
         :: repulsion energy           1.337779630438 Eh    ::

    * Orbital Energies and Occupations

         #    Occupation            Energy/Eh            Energy/eV
      -------------------------------------------------------------
         1        2.0000           -0.8036720             -21.8690
       ...           ...                  ...                  ...
        78        1.9997           -0.5305009             -14.4357
        79        1.9997           -0.5297766             -14.4160
        80        1.9996           -0.5246570             -14.2766
        81        1.9996           -0.5241262             -14.2622
        82        1.9993           -0.5158337             -14.0365
        83        1.9991           -0.5130009             -13.9595
        84        1.9991           -0.5123624             -13.9421
        85        1.9984           -0.5038196             -13.7096
        86        1.9982           -0.5016142             -13.6496
        87        1.9877           -0.4711757             -12.8213
        88        1.9844           -0.4673241             -12.7165
        89        1.9129           -0.4395467             -11.9607
        90        0.9108           -0.3877982             -10.5525 (HOMO)
        91        0.6274           -0.3782351             -10.2923 (LUMO)
        92        0.5687           -0.3760154             -10.2319
        93        0.0083           -0.3038872              -8.2692
        94        0.0048           -0.2950632              -8.0291
        95        0.0040           -0.2921202              -7.9490
        96        0.0000           -0.2147821              -5.8445
        97        0.0000           -0.1693913              -4.6094
        98                         -0.1151970              -3.1347
        99                         -0.1083991              -2.9497
       100                         -0.0776260              -2.1123
       101                         -0.0607475              -1.6530
       ...                                ...                  ...
       171                          0.5955023              16.2044
      -------------------------------------------------------------
                  HL-Gap            0.0095631 Eh            0.2602 eV

     #   Z          covCN         q      C6AA      α(0)
     1   7 N        2.710    -0.089    22.973     7.119
     2   6 C        2.897    -0.009    28.250     8.715
     3   6 C        3.927     0.013    20.302     6.403
     4   6 C        2.958    -0.023    28.582     8.769
     5   6 C        2.903    -0.077    29.910     8.967
     6   6 C        2.859     0.115    25.459     8.270
     7   8 O        1.705    -0.221    17.675     5.676
     8   6 C        3.644     0.028    20.441     6.499
     9   6 C        2.850     0.129    25.175     8.223
    10   8 O        1.706    -0.244    18.043     5.735
    11   6 C        3.646     0.029    20.422     6.494
    12   6 C        2.901    -0.098    30.468     9.050
    13   6 C        3.809    -0.059    21.622     6.619
    14   6 C        3.805    -0.069    21.813     6.649
    15   6 C        3.802    -0.068    21.797     6.647
    16   6 C        2.842    -0.020    28.486     8.747
    17   7 N        2.728    -0.009    21.430     6.875
    18   6 C        3.757    -0.014    20.877     6.515
    19   6 C        3.808    -0.069    21.824     6.650
    20   6 C        2.969    -0.004    28.122     8.699
    21   6 C        2.922    -0.052    29.292     8.875
    22   6 C        2.915    -0.070    29.747     8.944
    23   6 C        2.865     0.129    25.166     8.223
    24   8 O        1.706    -0.233    17.868     5.707
    25   6 C        3.645     0.029    20.424     6.495
    26   6 C        2.863     0.129    25.168     8.223
    27   8 O        1.706    -0.235    17.900     5.712
    28   6 C        3.645     0.031    20.392     6.490
    29   6 C        2.920    -0.081    30.036     8.987
    30   6 C        3.699    -0.065    21.924     6.696
    31   6 C        3.890    -0.023    20.923     6.503
    32   6 C        3.793    -0.009    20.737     6.485
    33   6 C        3.754    -0.118    22.808     6.810
    34   1 H        0.926     0.048     2.339     2.392
    35   1 H        0.924     0.051     2.302     2.373
    36   1 H        0.925     0.080     1.979     2.200
    37   1 H        0.924     0.047     2.354     2.399
    38   1 H        0.924     0.048     2.347     2.396
    39   1 H        0.925     0.077     2.009     2.217
    40   1 H        0.924     0.044     2.398     2.422
    41   1 H        0.926     0.045     2.377     2.411
    42   1 H        0.923     0.051     2.313     2.379
    43   1 H        0.925     0.057     2.239     2.340
    44   1 H        0.925     0.055     2.253     2.347
    45   1 H        0.925     0.062     2.174     2.306
    46   1 H        0.923     0.070     2.084     2.257
    47   1 H        0.926     0.051     2.307     2.375
    48   1 H        0.926     0.053     2.277     2.360
    49   1 H        0.924     0.060     2.202     2.320
    50   1 H        0.924     0.061     2.182     2.310
    51   1 H        0.924     0.050     2.317     2.380
    52   1 H        0.924     0.052     2.300     2.371
    53   1 H        0.926     0.039     2.460     2.453
    54   1 H        0.926     0.052     2.293     2.368
    55   1 H        0.924     0.048     2.340     2.392
    56   1 H        0.924     0.051     2.312     2.378
    57   1 H        0.925     0.077     2.011     2.218
    58   1 H        0.925     0.077     2.015     2.220
    59   1 H        0.924     0.043     2.404     2.425
    60   1 H        0.924     0.048     2.347     2.396
    61   1 H        0.926     0.042     2.421     2.433
    62   1 H        0.924     0.069     2.100     2.266
    63   1 H        0.925     0.075     2.029     2.228
    64   1 H        0.925     0.072     2.059     2.244
    65   1 H        0.924     0.054     2.266     2.354
    66   1 H        0.924     0.069     2.095     2.263
    67   1 H        0.923     0.056     2.242     2.342
    68   1 H        0.924     0.058     2.225     2.333
    69   1 H        0.925     0.047     2.358     2.401
    70   1 H        0.925     0.053     2.281     2.362
    71   1 H        0.925     0.055     2.260     2.351
    72   1 H        0.860     0.177     1.229     1.736

Wiberg/Mayer (AO) data.
largest (>0.10) Wiberg bond orders for each atom

     #   Z sym  total        # sym  WBO       # sym  WBO       # sym  WBO
 ---------------------------------------------------------------------------
     1   7 N    3.324 --     2 C    1.334    32 C    0.998    72 H    0.941
     2   6 C    3.405 --     1 N    1.334     3 C    1.025    47 H    0.963
     3   6 C    3.987 --     2 C    1.025    14 C    0.965     4 C    0.965
                            31 C    0.934
     4   6 C    3.655 --     5 C    1.544    13 C    1.030     3 C    0.965
     5   6 C    3.972 --     4 C    1.544     6 C    1.300    34 H    0.956
     6   6 C    3.646 --     5 C    1.300     9 C    1.137     7 O    1.105
     7   8 O    2.215 --     6 C    1.105     8 C    0.980
     8   6 C    3.935 --     7 O    0.980    36 H    0.977    37 H    0.973
                            35 H    0.973
     9   6 C    3.934 --    12 C    1.588     6 C    1.137    10 O    1.081
    10   8 O    2.251 --     9 C    1.081    11 C    0.981    12 C    0.104
    11   6 C    3.938 --    10 O    0.981    39 H    0.978    40 H    0.975
                            38 H    0.975
    12   6 C    3.776 --     9 C    1.588    13 C    1.035    41 H    0.964
                            10 O    0.104
    13   6 C    3.986 --    12 C    1.035     4 C    1.030    42 H    0.930
                            67 H    0.925
    14   6 C    3.956 --    15 C    0.985    44 H    0.973    43 H    0.969
                             3 C    0.965
    15   6 C    3.989 --    16 C    1.058    14 C    0.985    45 H    0.961
                            46 H    0.933
    16   6 C    3.456 --    17 N    1.338    15 C    1.058    48 H    0.961
    17   7 N    3.397 --    16 C    1.338    30 C    1.002    18 C    0.991
    18   6 C    3.959 --    17 N    0.991    50 H    0.969    49 H    0.966
                            19 C    0.965
    19   6 C    3.975 --    20 C    1.008    51 H    0.973    52 H    0.972
                            18 C    0.965
    20   6 C    3.959 --    21 C    1.421    29 C    1.373    19 C    1.008
    21   6 C    3.963 --    20 C    1.421    22 C    1.409    53 H    0.969
    22   6 C    3.968 --    21 C    1.409    23 C    1.394    54 H    0.964
    23   6 C    3.910 --    22 C    1.394    26 C    1.232    24 O    1.095
    24   8 O    2.253 --    23 C    1.095    25 C    0.979
    25   6 C    3.935 --    24 O    0.979    57 H    0.978    55 H    0.974
                            56 H    0.974
    26   6 C    3.913 --    29 C    1.405    23 C    1.232    27 O    1.090
    27   8 O    2.252 --    26 C    1.090    28 C    0.982
    28   6 C    3.938 --    27 O    0.982    58 H    0.978    59 H    0.975
                            60 H    0.975
    29   6 C    3.966 --    26 C    1.405    20 C    1.373    61 H    0.963
    30   6 C    3.963 --    17 N    1.002    64 H    0.978    63 H    0.967
                            62 H    0.966
    31   6 C    3.966 --    33 C    1.012    32 C    0.990    65 H    0.969
                             3 C    0.934
    32   6 C    3.962 --     1 N    0.998    31 C    0.990    66 H    0.965
                            68 H    0.955
    33   6 C    3.989 --    31 C    1.012    69 H    0.985    70 H    0.982
                            71 H    0.980
    34   1 H    0.997 --     5 C    0.956
    35   1 H    0.991 --     8 C    0.973
    36   1 H    0.993 --     8 C    0.977
    37   1 H    0.991 --     8 C    0.973
    38   1 H    0.997 --    11 C    0.975
    39   1 H    0.994 --    11 C    0.978
    40   1 H    0.997 --    11 C    0.975
    41   1 H    0.997 --    12 C    0.964
    42   1 H    0.961 --    13 C    0.930
    43   1 H    0.995 --    14 C    0.969
    44   1 H    0.996 --    14 C    0.973
    45   1 H    0.995 --    15 C    0.961
    46   1 H    0.964 --    15 C    0.933
    47   1 H    0.997 --     2 C    0.963
    48   1 H    0.997 --    16 C    0.961
    49   1 H    0.992 --    18 C    0.966
    50   1 H    0.995 --    18 C    0.969
    51   1 H    0.997 --    19 C    0.973
    52   1 H    0.996 --    19 C    0.972
    53   1 H    0.998 --    21 C    0.969
    54   1 H    0.996 --    22 C    0.964
    55   1 H    0.995 --    25 C    0.974
    56   1 H    0.994 --    25 C    0.974
    57   1 H    0.994 --    25 C    0.978
    58   1 H    0.994 --    28 C    0.978
    59   1 H    0.996 --    28 C    0.975
    60   1 H    0.995 --    28 C    0.975
    61   1 H    0.997 --    29 C    0.963
    62   1 H    0.982 --    30 C    0.966
    63   1 H    0.989 --    30 C    0.967
    64   1 H    0.994 --    30 C    0.978
    65   1 H    0.997 --    31 C    0.969
    66   1 H    0.990 --    32 C    0.965
    67   1 H    0.955 --    13 C    0.925
    68   1 H    0.983 --    32 C    0.955
    69   1 H    0.998 --    33 C    0.985
    70   1 H    0.997 --    33 C    0.982
    71   1 H    0.996 --    33 C    0.980
    72   1 H    0.968 --     1 N    0.941
 ---------------------------------------------------------------------------

molecular dipole:
                 x           y           z       tot (Debye)
 q only:       -1.520       1.549       0.562
   full:       -1.477       1.739       0.763       6.114

           -------------------------------------------------
          | TOTAL ENERGY              -99.384677884774 Eh   |
          | GRADIENT NORM               0.003038586178 Eh/α |
          | HOMO-LUMO GAP               0.260225861585 eV   |
           -------------------------------------------------

 * finished run on 2024/04/06 at 11:16:40.577
