   * xtb version 6.6.1 (8d0f1dd) compiled by 'conda@1efc2f54142f' on 2023-08-01
          program call               : xtb struc.xyz --opt loose --input .xc1 --gfn2

   ID    Z sym.   atoms
    1    6 C      1, 3, 5-7, 10, 11, 14
    2    7 N      2, 4, 9, 13
    3    8 O      8, 12
    4    1 H      15-25
constraining bond 6 16 to    3.7133300 Å, actual value:    3.2546852 Å

          :  Hamiltonian                  GFN2-xTB          :
 * total energy  :   -42.6356460 Eh     change       -0.2401990E-09 Eh
 * total energy  :   -44.5932564 Eh     change       -0.1957610E+01 Eh
 * total energy  :   -48.1030095 Eh     change       -0.3509753E+01 Eh
 * total energy  :   -53.4409943 Eh     change       -0.5337985E+01 Eh
 * total energy  :   -58.8506736 Eh     change       -0.5409679E+01 Eh
 * total energy  :   -58.8159752 Eh     change        0.3469842E-01 Eh
 * total energy  :   -58.8349803 Eh     change       -0.1900512E-01 Eh
 * total energy  :   -59.2411351 Eh     change       -0.4061548E+00 Eh
 * total energy  :   -59.3422071 Eh     change       -0.1010720E+00 Eh
 * total energy  :   -59.3778118 Eh     change       -0.3560470E-01 Eh
 * total energy  :   -59.7717322 Eh     change       -0.2613896E-03 Eh
 * total energy  :   -59.7720073 Eh     change       -0.2751084E-03 Eh
 * total energy  :   -59.7721284 Eh     change       -0.1211893E-03 Eh
 * total energy  :   -59.7722460 Eh     change       -0.1175774E-03 Eh
 * total energy  :   -59.7723402 Eh     change       -0.9415741E-04 Eh
 * total energy  :   -59.7723941 Eh     change       -0.5387816E-04 Eh
 * total energy  :   -59.7724378 Eh     change       -0.4372792E-04 Eh
 * total energy  :   -59.7724628 Eh     change       -0.2502373E-04 Eh
 * total energy  :   -59.7724802 Eh     change       -0.1735127E-04 Eh
   *** GEOMETRY OPTIMIZATION CONVERGED AFTER 43 ITERATIONS ***

 final structure:
================
25
 xtb: 6.6.1 (8d0f1dd)
C            3.27596944784833        1.15933758984868       -0.11285828355968
N            2.41772266438570        0.15990852987898       -0.05271225033611
C            2.54889421283414       -1.03439687841397        0.56128831209037
N            1.39854836667843       -1.75477054258232        0.44699328636402
C            0.48192897927243       -1.07269925569645       -0.28081448757920
C            1.08237939833912        0.24398249135885       -0.72670212345040
C            0.17747259340517        1.31901431244739        0.09315275060217
O            0.68573907839840        2.23003392445028        0.68411658218171
N           -1.14787429466931        1.05679770876967       -0.05551880022467
C           -2.09903964652171        2.11068263043091        0.28591971392843
C           -1.72036459699232       -0.17484818728133       -0.39794385153598
O           -2.89213576811345       -0.29708413136029       -0.63357653634400
N           -0.85367198201346       -1.27553489838022       -0.34390201665050
C           -1.42953849564567       -2.60690214964042       -0.28129638545290
H            4.22513864133184        1.07356979585495        0.38143197015306
H            1.08607871103607        0.35496008828793       -1.13635526563694
H            3.00904916221115        2.05713860208448       -0.63315638512914
H            3.41936178246926       -1.36459374510111        1.08485072048233
H           -1.55999279357358        3.05105694245403        0.36977410051926
H           -2.85325566372225        2.16860438585295       -0.49829498292838
H           -2.59299013440071        1.88532555222709        1.23140590696854
H           -1.35554526542032       -3.01399301239132        0.72915435443144
H           -0.92609516577321       -3.26635621616194       -0.98757638552624
H           -2.48202334552157       -2.52222476361618       -0.55098121093294
H            1.26467562825739       -2.66877023172060        0.85477288546568

          :  Hamiltonian                  GFN2-xTB          :
         :: total energy             -59.772480165228 Eh    ::
         :: gradient norm              0.003617515695 Eh/a0 ::
         :: HOMO-LUMO gap              1.589077842592 eV    ::
         :: SCC energy               -42.711378361176 Eh    ::
         :: -> dispersion             -0.023131383777 Eh    ::
         :: repulsion energy           2.252529838225 Eh    ::

    * Orbital Energies and Occupations

         #    Occupation            Energy/Eh            Energy/eV
      -------------------------------------------------------------
         1        2.0000           -0.9107474             -24.7827
       ...           ...                  ...                  ...
        25        1.9994           -0.6774661             -18.4348
        26        1.9993           -0.6726725             -18.3044
        27        1.9991           -0.6659958             -18.1227
        28        1.9989           -0.6609659             -17.9858
        29        1.9974           -0.6409195             -17.4403
        30        1.9964           -0.6332283             -17.2310
        31        1.9956           -0.6282516             -17.0956
        32        1.9916           -0.6129672             -16.6797
        33        1.9890           -0.6063811             -16.5005
        34        1.9747           -0.5864789             -15.9589
        35        1.9666           -0.5798452             -15.7784
        36        1.9540           -0.5720574             -15.5665
        37        1.5551           -0.5127437             -13.9525 (HOMO)
        38        0.4604           -0.4543461             -12.3634 (LUMO)
        39        0.0831           -0.4084679             -11.1150
        40        0.0350           -0.3873223             -10.5396
        41        0.0062           -0.3459882              -9.4148
        42        0.0001           -0.2376893              -6.4679
        43        0.0000           -0.2003475              -5.4517
        44        0.0000           -0.1965943              -5.3496
        45        0.0000           -0.1589211              -4.3245
        46        0.0000           -0.1306645              -3.5556
        47        0.0000           -0.0898147              -2.4440
        48                         -0.0654883              -1.7820
       ...                                ...                  ...
        67                         10.4498934             284.3561
      -------------------------------------------------------------
                  HL-Gap            0.0583975 Eh            1.5891 eV

     #   Z          covCN         q      C6AA      α(0)
     1   6 C        2.786    -0.065    29.598     8.911
     2   7 N        2.781     0.082    19.823     6.613
     3   6 C        2.906     0.015    27.679     8.627
     4   7 N        2.727    -0.059    22.391     7.028
     5   6 C        2.970     0.074    26.339     8.418
     6   6 C        3.831    -0.060    21.634     6.618
     7   6 C        2.755     0.257    22.666     7.796
     8   8 O        0.857    -0.323    20.207     6.027
     9   7 N        2.734    -0.082    22.841     7.098
    10   6 C        3.707    -0.060    21.803     6.674
    11   6 C        2.723     0.309    21.757     7.636
    12   8 O        0.859    -0.341    20.542     6.077
    13   7 N        2.734    -0.059    22.383     7.027
    14   6 C        3.697    -0.072    22.046     6.716
    15   1 H        0.926     0.109     1.703     2.041
    16   1 H        0.940     0.189     1.156     1.681
    17   1 H        0.926     0.119     1.623     1.992
    18   1 H        0.927     0.117     1.637     2.001
    19   1 H        0.925     0.108     1.714     2.047
    20   1 H        0.925     0.114     1.660     2.015
    21   1 H        0.924     0.100     1.789     2.091
    22   1 H        0.924     0.084     1.935     2.175
    23   1 H        0.925     0.090     1.875     2.141
    24   1 H        0.925     0.128     1.553     1.949
    25   1 H        0.860     0.227     0.978     1.550

Wiberg/Mayer (AO) data.
largest (>0.10) Wiberg bond orders for each atom

     #   Z sym  total        # sym  WBO       # sym  WBO       # sym  WBO
 ---------------------------------------------------------------------------
     1   6 C    3.518 --     2 N    1.388    17 H    0.963    15 H    0.961
                             3 C    0.115
     2   7 N    3.667 --     1 C    1.388     3 C    1.240     6 C    0.957
     3   6 C    3.630 --     2 N    1.240     4 N    1.204    18 H    0.953
                             1 C    0.115
     4   7 N    3.493 --     5 C    1.223     3 C    1.204    25 H    0.918
     5   6 C    3.637 --     4 N    1.223    13 N    1.197     6 C    1.012
     6   6 C    3.905 --     5 C    1.012     2 N    0.957    16 H    0.925
                             7 C    0.797
     7   6 C    3.838 --     8 O    1.748     9 N    1.186     6 C    0.797
     8   8 O    2.060 --     7 C    1.748     9 N    0.142
     9   7 N    3.516 --     7 C    1.186    11 C    1.059    10 C    0.957
                             8 O    0.142    12 O    0.104
    10   6 C    3.892 --    19 H    0.969    21 H    0.960    20 H    0.958
                             9 N    0.957
    11   6 C    3.881 --    12 O    1.688     9 N    1.059    13 N    1.051
    12   8 O    1.979 --    11 C    1.688    13 N    0.109     9 N    0.104
    13   7 N    3.470 --     5 C    1.197    11 C    1.051    14 C    0.969
                            12 O    0.109
    14   6 C    3.910 --    23 H    0.970    13 N    0.969    22 H    0.964
                            24 H    0.961
    15   1 H    0.985 --     1 C    0.961
    16   1 H    0.958 --     6 C    0.925
    17   1 H    0.984 --     1 C    0.963
    18   1 H    0.985 --     3 C    0.953
    19   1 H    0.983 --    10 C    0.969
    20   1 H    0.976 --    10 C    0.958
    21   1 H    0.977 --    10 C    0.960
    22   1 H    0.983 --    14 C    0.964
    23   1 H    0.984 --    14 C    0.970
    24   1 H    0.980 --    14 C    0.961
    25   1 H    0.948 --     4 N    0.918
 ---------------------------------------------------------------------------

molecular dipole:
                 x           y           z       tot (Debye)
 q only:        1.902      -1.505       0.023
   full:        2.158      -1.809       0.122       7.163

           -------------------------------------------------
          | TOTAL ENERGY              -59.772480165228 Eh   |
          | GRADIENT NORM               0.003617515695 Eh/α |
          | HOMO-LUMO GAP               1.589077842592 eV   |
           -------------------------------------------------

 * finished run on 2024/06/05 at 19:58:59.029
