   * xtb version 6.6.1 (8d0f1dd) compiled by 'conda@1efc2f54142f' on 2023-08-01
          program call               : xtb xtbopt.xyz --opt crude --input .xc2 --gfn2

   ID    Z sym.   atoms
    1    6 C      1, 3, 5-7, 10, 11, 14
    2    7 N      2, 4, 9, 13
    3    8 O      8, 12
    4    1 H      15-25
########################################################################
[WARNING] Please study the warnings concerning your input carefully
-1- readin_getIntValue: could not parse ''
########################################################################

          :  Hamiltonian                  GFN2-xTB          :
 * total energy  :   -40.4586878 Eh     change       -0.4902745E-12 Eh
 * total energy  :   -42.1716296 Eh     change       -0.1712942E+01 Eh
 * total energy  :   -42.1893454 Eh     change       -0.1771585E-01 Eh
 * total energy  :   -42.1932613 Eh     change       -0.3915873E-02 Eh
 * total energy  :   -42.1940344 Eh     change       -0.7731533E-03 Eh
 * total energy  :   -42.1946352 Eh     change       -0.6007859E-03 Eh
 * total energy  :   -42.1953316 Eh     change       -0.6963936E-03 Eh
 * total energy  :   -42.1959291 Eh     change       -0.5974740E-03 Eh
 * total energy  :   -42.1962131 Eh     change       -0.2840077E-03 Eh
   *** GEOMETRY OPTIMIZATION CONVERGED AFTER 9 ITERATIONS ***

 final structure:
================
25
 xtb: 6.6.1 (8d0f1dd)
C            3.27955184746177        1.14826214980317       -0.02160577323380
N            2.41147204858623        0.15294946827692        0.00276882160544
C            2.56838189274396       -1.08198986526361        0.53058749592067
N            1.41887663297491       -1.80500799026254        0.40282467064175
C            0.48037050124641       -1.07546717147230       -0.24350237294169
C            1.07100724787960        0.24745925015331       -0.55596506371717
C            0.17664805462728        1.34308001081419        0.10091192477807
O            0.63618975625930        2.32803594863387        0.61613029191111
N           -1.15732863543266        1.05673416037677       -0.01795856987780
C           -2.11460414113909        2.12342642491383        0.25404454544367
C           -1.72410753592361       -0.17899557441916       -0.33396847909444
O           -2.90030548673205       -0.31548189372218       -0.54794287797970
N           -0.85230123060552       -1.27892685914406       -0.29633206976496
C           -1.42533622767242       -2.61076062239110       -0.23561414261778
H            4.23915526679715        1.01793025228407        0.44177627691849
H            1.09376061050752        0.51309070006730       -1.62358698415511
H            2.99947413043898        2.08785837557593       -0.45257341399306
H            3.46722728772297       -1.44328830626837        0.98241637594114
H           -1.57589182094887        3.06545275060594        0.31578567463442
H           -2.84962405193031        2.15192500286331       -0.55011409629782
H           -2.63493694853758        1.93542240885081        1.19345279737905
H           -1.39046377741241       -3.00337902632499        0.78248215288656
H           -0.89408019232126       -3.27847856466828       -0.91200884630368
H           -2.46763926039850       -2.53380261273889       -0.54427710166659
H            1.30493554590810       -2.74780987494401        0.74344038148322

          :  Hamiltonian                  GFN2-xTB          :
         :: total energy             -42.196213100295 Eh    ::
         :: gradient norm              0.007426123413 Eh/a0 ::
         :: HOMO-LUMO gap              1.576964472159 eV    ::
         :: SCC energy               -42.704505146463 Eh    ::
         :: -> dispersion             -0.023026346562 Eh    ::
         :: repulsion energy           0.508127080041 Eh    ::

    * Orbital Energies and Occupations

         #    Occupation            Energy/Eh            Energy/eV
      -------------------------------------------------------------
         1        2.0000           -0.9028029             -24.5665
       ...           ...                  ...                  ...
        25        1.9995           -0.6759488             -18.3935
        26        1.9994           -0.6723882             -18.2966
        27        1.9991           -0.6638104             -18.0632
        28        1.9988           -0.6580803             -17.9073
        29        1.9972           -0.6374091             -17.3448
        30        1.9966           -0.6329036             -17.2222
        31        1.9959           -0.6281903             -17.0939
        32        1.9911           -0.6096479             -16.5894
        33        1.9881           -0.6027614             -16.4020
        34        1.9756           -0.5855007             -15.9323
        35        1.9639           -0.5760895             -15.6762
        36        1.9525           -0.5694208             -15.4947
        37        1.5531           -0.5107369             -13.8979 (HOMO)
        38        0.4650           -0.4527845             -12.3209 (LUMO)
        39        0.0839           -0.4068523             -11.0710
        40        0.0365           -0.3864783             -10.5166
        41        0.0056           -0.3414590              -9.2916
        42        0.0000           -0.2098526              -5.7104
        43        0.0000           -0.1920161              -5.2250
        44        0.0000           -0.1560541              -4.2464
        45        0.0000           -0.1465754              -3.9885
        46        0.0000           -0.1034763              -2.8157
        47                         -0.0795791              -2.1655
        48                         -0.0573249              -1.5599
       ...                                ...                  ...
        67                          0.5185587              14.1107
      -------------------------------------------------------------
                  HL-Gap            0.0579524 Eh            1.5770 eV

     #   Z          covCN         q      C6AA      α(0)
     1   6 C        2.787    -0.070    29.718     8.930
     2   7 N        2.781     0.098    19.543     6.566
     3   6 C        2.943     0.012    27.746     8.639
     4   7 N        2.737    -0.056    22.329     7.018
     5   6 C        2.971     0.079    26.232     8.401
     6   6 C        3.891    -0.004    20.606     6.453
     7   6 C        2.762     0.262    22.589     7.783
     8   8 O        0.857    -0.330    20.338     6.046
     9   7 N        2.736    -0.083    22.857     7.101
    10   6 C        3.708    -0.061    21.813     6.676
    11   6 C        2.724     0.307    21.776     7.639
    12   8 O        0.859    -0.345    20.610     6.087
    13   7 N        2.735    -0.054    22.278     7.010
    14   6 C        3.698    -0.072    22.052     6.717
    15   1 H        0.926     0.109     1.703     2.041
    16   1 H        0.923     0.118     1.634     1.999
    17   1 H        0.926     0.120     1.610     1.984
    18   1 H        0.927     0.117     1.641     2.003
    19   1 H        0.925     0.110     1.695     2.036
    20   1 H        0.925     0.112     1.680     2.027
    21   1 H        0.924     0.101     1.779     2.086
    22   1 H        0.924     0.087     1.912     2.163
    23   1 H        0.925     0.089     1.893     2.152
    24   1 H        0.925     0.128     1.547     1.945
    25   1 H        0.860     0.226     0.983     1.553

Wiberg/Mayer (AO) data.
largest (>0.10) Wiberg bond orders for each atom

     #   Z sym  total        # sym  WBO       # sym  WBO       # sym  WBO
 ---------------------------------------------------------------------------
     1   6 C    3.506 --     2 N    1.380    15 H    0.963    17 H    0.963
                             3 C    0.117
     2   7 N    3.668 --     1 C    1.380     3 C    1.234     6 C    0.977
     3   6 C    3.623 --     2 N    1.234     4 N    1.199    18 H    0.955
                             1 C    0.117
     4   7 N    3.495 --     5 C    1.226     3 C    1.199    25 H    0.920
     5   6 C    3.638 --     4 N    1.226    13 N    1.208     6 C    1.017
     6   6 C    3.953 --     5 C    1.017     2 N    0.977    16 H    0.912
                             7 C    0.869
     7   6 C    3.858 --     8 O    1.733     9 N    1.166     6 C    0.869
     8   8 O    2.033 --     7 C    1.733     9 N    0.143
     9   7 N    3.516 --     7 C    1.166    11 C    1.073    10 C    0.962
                             8 O    0.143    12 O    0.107
    10   6 C    3.892 --    19 H    0.967     9 N    0.962    21 H    0.959
                            20 H    0.958
    11   6 C    3.884 --    12 O    1.683     9 N    1.073    13 N    1.046
    12   8 O    1.974 --    11 C    1.683     9 N    0.107    13 N    0.107
    13   7 N    3.475 --     5 C    1.208    11 C    1.046    14 C    0.971
                            12 O    0.107
    14   6 C    3.912 --    13 N    0.971    23 H    0.971    22 H    0.963
                            24 H    0.960
    15   1 H    0.985 --     1 C    0.963
    16   1 H    0.955 --     6 C    0.912
    17   1 H    0.984 --     1 C    0.963
    18   1 H    0.985 --     3 C    0.955
    19   1 H    0.982 --    10 C    0.967
    20   1 H    0.976 --    10 C    0.958
    21   1 H    0.977 --    10 C    0.959
    22   1 H    0.982 --    14 C    0.963
    23   1 H    0.985 --    14 C    0.971
    24   1 H    0.980 --    14 C    0.960
    25   1 H    0.949 --     4 N    0.920
 ---------------------------------------------------------------------------

molecular dipole:
                 x           y           z       tot (Debye)
 q only:        1.983      -1.616      -0.013
   full:        2.241      -1.935      -0.006       7.526

           -------------------------------------------------
          | TOTAL ENERGY              -42.196213100295 Eh   |
          | GRADIENT NORM               0.007426123413 Eh/α |
          | HOMO-LUMO GAP               1.576964472159 eV   |
           -------------------------------------------------

 * finished run on 2024/06/05 at 19:58:59.433
