   * xtb version 6.6.1 (8d0f1dd) compiled by 'conda@1efc2f54142f' on 2023-08-01
          program call               : xtb struc.xyz --opt loose --input .xc1 --gfn2

   ID    Z sym.   atoms
    1    6 C      1, 3, 5-7, 10, 11, 14
    2    7 N      2, 4, 9, 13
    3    8 O      8, 12
    4    1 H      15-25
constraining bond 2 7 to    4.9200000 Å, actual value:    2.5746944 Å

          :  Hamiltonian                  GFN2-xTB          :
 * total energy  :    -2.9628806 Eh     change       -0.6650680E-10 Eh
 * total energy  :   -22.1734694 Eh     change       -0.1921059E+02 Eh
 * total energy  :   -33.3684935 Eh     change       -0.1119502E+02 Eh
 * total energy  :   -39.3812197 Eh     change       -0.6012726E+01 Eh
 * total energy  :   -41.4237108 Eh     change       -0.2042491E+01 Eh
 * total energy  :   -41.6222225 Eh     change       -0.1985117E+00 Eh
 * total energy  :   -41.6506973 Eh     change       -0.2847487E-01 Eh
 * total energy  :   -41.6940657 Eh     change       -0.4336834E-01 Eh
 * total energy  :   -41.7088974 Eh     change       -0.1483169E-01 Eh
 * total energy  :   -41.7322117 Eh     change       -0.2331431E-01 Eh
 * total energy  :   -42.1560601 Eh     change       -0.4165441E-03 Eh
 * total energy  :   -42.1571276 Eh     change       -0.1067514E-02 Eh
 * total energy  :   -42.1578831 Eh     change       -0.7555696E-03 Eh
 * total energy  :   -42.1583028 Eh     change       -0.4196390E-03 Eh
 * total energy  :   -42.1587660 Eh     change       -0.4631894E-03 Eh
 * total energy  :   -42.1590434 Eh     change       -0.2774116E-03 Eh
 * total energy  :   -42.1591711 Eh     change       -0.1276669E-03 Eh
 * total energy  :   -42.1592193 Eh     change       -0.4827713E-04 Eh
 * total energy  :   -42.1592456 Eh     change       -0.2627835E-04 Eh
   *** GEOMETRY OPTIMIZATION CONVERGED AFTER 52 ITERATIONS ***

 final structure:
================
25
 xtb: 6.6.1 (8d0f1dd)
C            4.42412271754132        0.27607999715205       -0.02055618166657
N            3.72499119579031       -0.73797566653223        0.23464560124006
C            2.77851220336750       -1.57315251013099        0.05517660996482
N            1.43402679167276       -1.45674671682049        0.03908378024434
C            0.45758997837544       -0.45025253211960        0.04261258046930
C            0.65860835910344        0.89431953563408        0.07383809754810
C           -0.45680544462862        1.84510109363355        0.05250568308659
O           -0.30834517524407        3.04415588838833        0.07790557228504
N           -1.71092976468341        1.25597059829935        0.00067322740818
C           -2.88251945566494        2.11397033693988       -0.02079385286458
C           -1.94786571477388       -0.09234723382292       -0.02929114533997
O           -3.06159116710597       -0.54704603925837       -0.07590502145116
N           -0.82551877992908       -0.94225943695318       -0.00605697657896
C           -1.13133472487750       -2.36283141635265       -0.04638566007120
H            5.09235454332809        0.65311000111376        0.74025525247711
H            4.44985721359201        0.73298438405400       -1.00424732911254
H            1.64482222761109        1.32379610549813        0.11901473776932
H            3.10748182922433       -2.61115548640751        0.02035025263838
H           -2.54250976698243        3.14737773894943       -0.01967828889362
H           -3.47574522831677        1.90739656531498       -0.91185872145781
H           -3.50208376964877        1.91759806878628        0.85464969861617
H           -0.79874804908019       -2.87317098749364        0.86022745280736
H           -0.73072708222922       -2.83677407988933       -0.94515083783200
H           -2.21973110161848       -2.44244778671005       -0.08890634253828
H            0.98251967927627       -2.36746187967252        0.02906342915221

          :  Hamiltonian                  GFN2-xTB          :
         :: total energy             -42.159245612074 Eh    ::
         :: gradient norm              0.003762638097 Eh/a0 ::
         :: HOMO-LUMO gap              2.102658987288 eV    ::
         :: SCC energy               -42.708210772146 Eh    ::
         :: -> dispersion             -0.021202156388 Eh    ::
         :: repulsion energy           0.548905565529 Eh    ::

    * Orbital Energies and Occupations

         #    Occupation            Energy/Eh            Energy/eV
      -------------------------------------------------------------
         1        2.0000           -0.8771915             -23.8696
       ...           ...                  ...                  ...
        25        1.9999           -0.6621504             -18.0180
        26        1.9999           -0.6549345             -17.8217
        27        1.9998           -0.6472740             -17.6132
        28        1.9998           -0.6424485             -17.4819
        29        1.9996           -0.6339711             -17.2512
        30        1.9991           -0.6213881             -16.9088
        31        1.9990           -0.6197259             -16.8636
        32        1.9943           -0.5926818             -16.1277
        33        1.9932           -0.5897723             -16.0485
        34        1.9776           -0.5707679             -15.5314
        35        1.9349           -0.5535202             -15.0621
        36        1.9131           -0.5487711             -14.9328
        37        1.9008           -0.5465728             -14.8730 (HOMO)
        38        0.2541           -0.4693015             -12.7703 (LUMO)
        39        0.0334           -0.4352967             -11.8450
        40        0.0012           -0.3829383             -10.4203
        41        0.0005           -0.3679327             -10.0120
        42        0.0000           -0.2789863              -7.5916
        43                         -0.2013968              -5.4803
        44                         -0.1729137              -4.7052
        45                         -0.1269136              -3.4535
        46                         -0.1139330              -3.1003
        47                         -0.0840477              -2.2871
        48                         -0.0460515              -1.2531
       ...                                ...                  ...
        67                          0.6399491              17.4139
      -------------------------------------------------------------
                  HL-Gap            0.0772713 Eh            2.1027 eV

     #   Z          covCN         q      C6AA      α(0)
     1   6 C        2.767     0.019    27.558     8.597
     2   7 N        1.823    -0.008    22.099     6.966
     3   6 C        2.752     0.108    25.596     8.285
     4   7 N        2.691    -0.099    23.182     7.151
     5   6 C        2.822     0.126    25.219     8.229
     6   6 C        2.905    -0.105    30.643     9.077
     7   6 C        2.768     0.277    22.308     7.735
     8   8 O        0.859    -0.338    20.478     6.067
     9   7 N        2.741    -0.068    22.550     7.053
    10   6 C        3.708    -0.061    21.811     6.675
    11   6 C        2.725     0.320    21.562     7.602
    12   8 O        0.860    -0.370    21.089     6.157
    13   7 N        2.751    -0.069    22.579     7.057
    14   6 C        3.699    -0.079    22.186     6.737
    15   1 H        0.926     0.143     1.438     1.875
    16   1 H        0.925     0.130     1.537     1.939
    17   1 H        0.926     0.091     1.865     2.136
    18   1 H        0.925     0.126     1.563     1.955
    19   1 H        0.925     0.115     1.653     2.011
    20   1 H        0.924     0.102     1.765     2.078
    21   1 H        0.924     0.102     1.770     2.080
    22   1 H        0.924     0.080     1.982     2.201
    23   1 H        0.924     0.079     1.985     2.204
    24   1 H        0.924     0.138     1.475     1.899
    25   1 H        0.860     0.238     0.933     1.513

Wiberg/Mayer (AO) data.
largest (>0.10) Wiberg bond orders for each atom

     #   Z sym  total        # sym  WBO       # sym  WBO       # sym  WBO
 ---------------------------------------------------------------------------
     1   6 C    3.723 --     2 N    1.758    15 H    0.936    16 H    0.925
     2   7 N    3.476 --     1 C    1.758     3 C    1.546     4 N    0.123
     3   6 C    3.871 --     2 N    1.546     4 N    1.270    18 H    0.916
     4   7 N    3.520 --     3 C    1.270     5 C    1.081    25 H    0.888
                             2 N    0.123
     5   6 C    3.926 --     6 C    1.542    13 N    1.166     4 N    1.081
     6   6 C    3.862 --     5 C    1.542     7 C    1.076    17 H    0.960
     7   6 C    3.947 --     8 O    1.690     9 N    1.098     6 C    1.076
     8   8 O    1.980 --     7 C    1.690     9 N    0.127
     9   7 N    3.532 --    11 C    1.142     7 C    1.098    10 C    0.974
                            12 O    0.128     8 O    0.127
    10   6 C    3.898 --     9 N    0.974    19 H    0.965    20 H    0.957
                            21 H    0.956
    11   6 C    3.959 --    12 O    1.674     9 N    1.142    13 N    1.055
    12   8 O    2.015 --    11 C    1.674     9 N    0.128    13 N    0.119
    13   7 N    3.512 --     5 C    1.166    11 C    1.055    14 C    0.983
                            12 O    0.119
    14   6 C    3.928 --    13 N    0.983    23 H    0.963    22 H    0.963
                            24 H    0.949
    15   1 H    0.975 --     1 C    0.936
    16   1 H    0.974 --     1 C    0.925
    17   1 H    0.990 --     6 C    0.960
    18   1 H    0.974 --     3 C    0.916
    19   1 H    0.983 --    10 C    0.965
    20   1 H    0.976 --    10 C    0.957
    21   1 H    0.975 --    10 C    0.956
    22   1 H    0.987 --    14 C    0.963
    23   1 H    0.988 --    14 C    0.963
    24   1 H    0.980 --    14 C    0.949
    25   1 H    0.943 --     4 N    0.888
 ---------------------------------------------------------------------------

molecular dipole:
                 x           y           z       tot (Debye)
 q only:        3.360      -2.063      -0.040
   full:        3.592      -2.305      -0.092      10.849

           -------------------------------------------------
          | TOTAL ENERGY              -42.159245612074 Eh   |
          | GRADIENT NORM               0.003762638097 Eh/α |
          | HOMO-LUMO GAP               2.102658987288 eV   |
           -------------------------------------------------

 * finished run on 2024/06/05 at 20:00:06.659
