   * xtb version 6.6.1 (8d0f1dd) compiled by 'conda@1efc2f54142f' on 2023-08-01
          program call               : xtb xtbopt.xyz --opt crude --input .xc2 --gfn2

   ID    Z sym.   atoms
    1    6 C      1, 3, 5-7, 10, 11, 14
    2    7 N      2, 4, 9, 13
    3    8 O      8, 12
    4    1 H      15-25
########################################################################
[WARNING] Please study the warnings concerning your input carefully
-1- readin_getIntValue: could not parse ''
########################################################################

          :  Hamiltonian                  GFN2-xTB          :
 * total energy  :   -42.1592591 Eh     change       -0.1918465E-12 Eh
 * total energy  :   -42.1616412 Eh     change       -0.2382143E-02 Eh
 * total energy  :   -42.1634796 Eh     change       -0.1838350E-02 Eh
 * total energy  :   -42.1623705 Eh     change        0.1109039E-02 Eh
 * total energy  :   -42.1653308 Eh     change       -0.2960305E-02 Eh
 * total energy  :   -42.1658246 Eh     change       -0.4937491E-03 Eh
 * total energy  :   -42.1664654 Eh     change       -0.6408473E-03 Eh
 * total energy  :   -42.1666470 Eh     change       -0.1815645E-03 Eh
   *** GEOMETRY OPTIMIZATION CONVERGED AFTER 8 ITERATIONS ***

 final structure:
================
25
 xtb: 6.6.1 (8d0f1dd)
C            4.23956345866101        0.48849617962548       -0.02402556618388
N            3.41853011865300       -0.42940808205322        0.23785347700093
C            2.72951117703559       -1.47967603042944        0.00946873370253
N            1.39577536862241       -1.60653989534662        0.03954459489820
C            0.42153188927052       -0.60309683707562        0.05362955691649
C            0.71759616386387        0.72139905680679        0.09631364319334
C           -0.31852595921843        1.73093174726744        0.07108197877959
O           -0.10464605824719        2.92126937842944        0.09173164428038
N           -1.61306161085008        1.22108540784314        0.01030297951864
C           -2.72113173879300        2.15932220609586       -0.02794150350032
C           -1.94377259221179       -0.10797436168853       -0.01792818017061
O           -3.08296903810195       -0.49128504703777       -0.06435123545525
N           -0.87519300680288       -1.02699128890200        0.00437685151202
C           -1.24132716688698       -2.43137862998997       -0.03305533681040
H            4.69575094908053        1.04026720537681        0.79433281977584
H            4.49522078841690        0.75997821239101       -1.04748777197034
H            1.72225662002264        1.09086174830244        0.14972818549986
H            3.28102541532816       -2.41664204749253       -0.07295249382977
H           -2.30654893653275        3.16561425935786       -0.02662378144486
H           -3.31605356846744        1.99287319232110       -0.92603961098218
H           -3.36299989462118        2.01226424486400        0.84096586583077
H           -0.90298617476749       -2.95419722256480        0.86311845373730
H           -0.86806161709090       -2.91645510328409       -0.93696543588349
H           -2.33207158522469       -2.46969271637532       -0.05605614499768
H            1.03301851296155       -2.55278703484117        0.00214989448335

          :  Hamiltonian                  GFN2-xTB          :
         :: total energy             -42.166647002402 Eh    ::
         :: gradient norm              0.008559895298 Eh/a0 ::
         :: HOMO-LUMO gap              2.258445536916 eV    ::
         :: SCC energy               -42.720303208155 Eh    ::
         :: -> dispersion             -0.021583110016 Eh    ::
         :: repulsion energy           0.553599310294 Eh    ::

    * Orbital Energies and Occupations

         #    Occupation            Energy/Eh            Energy/eV
      -------------------------------------------------------------
         1        2.0000           -0.8839829             -24.0544
       ...           ...                  ...                  ...
        25        1.9999           -0.6613380             -17.9959
        26        1.9999           -0.6576866             -17.8966
        27        1.9998           -0.6434323             -17.5087
        28        1.9998           -0.6396963             -17.4070
        29        1.9996           -0.6339516             -17.2507
        30        1.9991           -0.6194697             -16.8566
        31        1.9990           -0.6180230             -16.8173
        32        1.9948           -0.5912743             -16.0894
        33        1.9945           -0.5903429             -16.0640
        34        1.9789           -0.5689649             -15.4823
        35        1.9362           -0.5511422             -14.9973
        36        1.9174           -0.5468813             -14.8814
        37        1.9098           -0.5454314             -14.8419 (HOMO)
        38        0.2015           -0.4624350             -12.5835 (LUMO)
        39        0.0677           -0.4440409             -12.0830
        40        0.0016           -0.3844408             -10.4612
        41        0.0005           -0.3653571              -9.9419
        42        0.0000           -0.2755697              -7.4986
        43                         -0.1936503              -5.2695
        44                         -0.1711107              -4.6562
        45                         -0.1196328              -3.2554
        46                         -0.1086114              -2.9555
        47                         -0.0858261              -2.3354
        48                         -0.0402903              -1.0964
       ...                                ...                  ...
        67                          0.6094121              16.5829
      -------------------------------------------------------------
                  HL-Gap            0.0829963 Eh            2.2584 eV

     #   Z          covCN         q      C6AA      α(0)
     1   6 C        2.765     0.017    27.601     8.604
     2   7 N        1.826    -0.007    22.085     6.964
     3   6 C        2.757     0.110    25.546     8.277
     4   7 N        2.694    -0.084    22.880     7.104
     5   6 C        2.833     0.127    25.209     8.228
     6   6 C        2.909    -0.113    30.854     9.108
     7   6 C        2.770     0.276    22.326     7.738
     8   8 O        0.859    -0.346    20.623     6.089
     9   7 N        2.742    -0.072    22.634     7.066
    10   6 C        3.708    -0.060    21.810     6.675
    11   6 C        2.724     0.320    21.566     7.602
    12   8 O        0.860    -0.368    21.060     6.153
    13   7 N        2.748    -0.064    22.471     7.040
    14   6 C        3.698    -0.076    22.133     6.729
    15   1 H        0.925     0.146     1.422     1.865
    16   1 H        0.925     0.134     1.507     1.920
    17   1 H        0.926     0.092     1.860     2.133
    18   1 H        0.924     0.128     1.550     1.947
    19   1 H        0.925     0.115     1.654     2.011
    20   1 H        0.925     0.101     1.780     2.086
    21   1 H        0.924     0.101     1.777     2.084
    22   1 H        0.924     0.079     1.991     2.207
    23   1 H        0.924     0.078     2.003     2.213
    24   1 H        0.924     0.134     1.506     1.919
    25   1 H        0.860     0.233     0.953     1.530

Wiberg/Mayer (AO) data.
largest (>0.10) Wiberg bond orders for each atom

     #   Z sym  total        # sym  WBO       # sym  WBO       # sym  WBO
 ---------------------------------------------------------------------------
     1   6 C    3.728 --     2 N    1.757    15 H    0.934    16 H    0.923
     2   7 N    3.483 --     1 C    1.757     3 C    1.541     4 N    0.125
     3   6 C    3.882 --     2 N    1.541     4 N    1.288    18 H    0.910
     4   7 N    3.541 --     3 C    1.288     5 C    1.079    25 H    0.902
                             2 N    0.125
     5   6 C    3.928 --     6 C    1.530    13 N    1.183     4 N    1.079
     6   6 C    3.872 --     5 C    1.530     7 C    1.094    17 H    0.953
     7   6 C    3.948 --     8 O    1.681     6 C    1.094     9 N    1.088
     8   8 O    1.982 --     7 C    1.681     9 N    0.127
     9   7 N    3.530 --    11 C    1.145     7 C    1.088    10 C    0.975
                            12 O    0.131     8 O    0.127
    10   6 C    3.899 --     9 N    0.975    19 H    0.965    20 H    0.957
                            21 H    0.956
    11   6 C    3.959 --    12 O    1.679     9 N    1.145    13 N    1.048
    12   8 O    2.019 --    11 C    1.679     9 N    0.131    13 N    0.118
    13   7 N    3.522 --     5 C    1.183    11 C    1.048    14 C    0.983
                            12 O    0.118
    14   6 C    3.928 --    13 N    0.983    22 H    0.966    23 H    0.966
                            24 H    0.955
    15   1 H    0.975 --     1 C    0.934
    16   1 H    0.974 --     1 C    0.923
    17   1 H    0.990 --     6 C    0.953
    18   1 H    0.971 --     3 C    0.910
    19   1 H    0.983 --    10 C    0.965
    20   1 H    0.977 --    10 C    0.957
    21   1 H    0.976 --    10 C    0.956
    22   1 H    0.988 --    14 C    0.966
    23   1 H    0.988 --    14 C    0.966
    24   1 H    0.981 --    14 C    0.955
    25   1 H    0.945 --     4 N    0.902
 ---------------------------------------------------------------------------

molecular dipole:
                 x           y           z       tot (Debye)
 q only:        3.430      -2.077      -0.080
   full:        3.713      -2.430      -0.161      11.287

           -------------------------------------------------
          | TOTAL ENERGY              -42.166647002402 Eh   |
          | GRADIENT NORM               0.008559895298 Eh/α |
          | HOMO-LUMO GAP               2.258445536916 eV   |
           -------------------------------------------------

 * finished run on 2024/06/05 at 20:00:06.974
