   * xtb version 6.6.1 (8d0f1dd) compiled by 'conda@1efc2f54142f' on 2023-08-01
          program call               : xtb struc.xyz --opt loose --input .xc1 --gfn2

   ID    Z sym.   atoms
    1    6 C      1, 3, 5-7, 10, 11, 14
    2    7 N      2, 4, 9, 13
    3    8 O      8, 12
    4    1 H      15-25
constraining bond 2 5 to    4.9200000 Å, actual value:    2.2205058 Å

          :  Hamiltonian                  GFN2-xTB          :
 * total energy  :   -29.2336307 Eh     change       -0.6633627E-10 Eh
 * total energy  :   -33.6821036 Eh     change       -0.4448473E+01 Eh
 * total energy  :   -36.6857364 Eh     change       -0.3003633E+01 Eh
 * total energy  :   -38.6988390 Eh     change       -0.2013103E+01 Eh
 * total energy  :   -40.2621837 Eh     change       -0.1563345E+01 Eh
 * total energy  :   -41.0255393 Eh     change       -0.7633556E+00 Eh
 * total energy  :   -41.2007496 Eh     change       -0.1752103E+00 Eh
 * total energy  :   -41.2924050 Eh     change       -0.9165546E-01 Eh
 * total energy  :   -41.3668811 Eh     change       -0.7447603E-01 Eh
 * total energy  :   -41.4117689 Eh     change       -0.4488780E-01 Eh
 * total energy  :   -42.0563541 Eh     change       -0.6440461E-03 Eh
 * total energy  :   -42.0567284 Eh     change       -0.3743412E-03 Eh
 * total energy  :   -42.0570667 Eh     change       -0.3383171E-03 Eh
 * total energy  :   -42.0572930 Eh     change       -0.2262801E-03 Eh
 * total energy  :   -42.0574855 Eh     change       -0.1924389E-03 Eh
 * total energy  :   -42.0576358 Eh     change       -0.1503817E-03 Eh
 * total energy  :   -42.0577342 Eh     change       -0.9831385E-04 Eh
 * total energy  :   -42.0578091 Eh     change       -0.7495152E-04 Eh
 * total energy  :   -42.0578354 Eh     change       -0.2630102E-04 Eh
   *** GEOMETRY OPTIMIZATION CONVERGED AFTER 50 ITERATIONS ***

 final structure:
================
25
 xtb: 6.6.1 (8d0f1dd)
C            3.55304977421883        2.21225924463644        0.20228798146052
N            3.90886041657529        1.29868050311259       -0.55944301998516
C            1.94717351886184       -1.28696432965167        0.15670715087828
N            1.11930117838447       -2.45403179058583        0.17326562379186
C            0.01913512860246       -1.64059482104717        0.10012294968645
C            0.85577863308212       -0.44607424044802        0.12664093303580
C            0.28520073134132        0.86640178123751        0.09647012203144
O            0.84425073547601        1.93303169799322        0.11107757582544
N           -1.13418576039043        0.76781639604538        0.03453905592213
C           -1.87797729334649        2.02634481582931       -0.00271156357182
C           -1.92706499076446       -0.33795996828992       -0.00841372913612
O           -3.11924502114924       -0.31842257147371       -0.07007126275336
N           -1.26953128120045       -1.66425462043360        0.02514903605050
C           -2.10630260025734       -2.83998328263199       -0.03079284685111
H            3.34116435908610        1.97727680154049        1.23759855963482
H            4.12499077543296        1.49729313909877       -1.53077731203173
H            3.43821591770258        3.26156160166618       -0.07218408347914
H            3.01608998704389       -1.21684743467977        0.16801558485230
H           -1.15915889606994        2.84052628791344        0.03590512116085
H           -2.46292974131402        2.08577247786425       -0.91942240583552
H           -2.55490662954023        2.08289957883435        0.84839001321354
H           -1.88782909137757       -3.49737691517464        0.80979317912774
H           -1.93826410586105       -3.37754789004845       -0.96469577596996
H           -3.14603212605631       -2.51447640777569        0.01297362616735
H            1.29064789561894       -3.43709151193439        0.05074710467584

          :  Hamiltonian                  GFN2-xTB          :
         :: total energy             -42.057835409980 Eh    ::
         :: gradient norm              0.002550502026 Eh/a0 ::
         :: HOMO-LUMO gap              0.766984390521 eV    ::
         :: SCC energy               -42.603361527890 Eh    ::
         :: -> dispersion             -0.020538774230 Eh    ::
         :: repulsion energy           0.545422099520 Eh    ::

    * Orbital Energies and Occupations

         #    Occupation            Energy/Eh            Energy/eV
      -------------------------------------------------------------
         1        2.0000           -0.8942312             -24.3333
       ...           ...                  ...                  ...
        25        2.0000           -0.6615782             -18.0025
        26        2.0000           -0.6441883             -17.5293
        27        2.0000           -0.6328607             -17.2210
        28        2.0000           -0.6281401             -17.0926
        29        2.0000           -0.6228028             -16.9473
        30        2.0000           -0.6174358             -16.8013
        31        2.0000           -0.6153929             -16.7457
        32        2.0000           -0.6011681             -16.3586
        33        1.9999           -0.5939135             -16.1612
        34        1.9986           -0.5682979             -15.4642
        35        1.9980           -0.5657130             -15.3938
        36        1.9932           -0.5558984             -15.1268
        37        1.7165           -0.5251817             -14.2909 (HOMO)
        38        0.2938           -0.4969956             -13.5239 (LUMO)
        39        0.0000           -0.4027400             -10.9591
        40        0.0000           -0.3847738             -10.4702
        41                         -0.3762327             -10.2378
        42                         -0.2806275              -7.6363
        43                         -0.2375922              -6.4652
        44                         -0.1981199              -5.3911
        45                         -0.1670404              -4.5454
        46                         -0.1200251              -3.2660
        47                         -0.0851842              -2.3180
        48                         -0.0445510              -1.2123
       ...                                ...                  ...
        67                          0.6718397              18.2817
      -------------------------------------------------------------
                  HL-Gap            0.0281862 Eh            0.7670 eV

     #   Z          covCN         q      C6AA      α(0)
     1   6 C        2.760     0.063    26.561     8.440
     2   7 N        1.770    -0.198    26.099     7.565
     3   6 C        3.386     0.068    23.091     7.467
     4   7 N        2.982    -0.119    23.579     7.212
     5   6 C        3.415     0.163    20.792     7.000
     6   6 C        3.262    -0.068    28.417     8.610
     7   6 C        2.757     0.283    22.201     7.716
     8   8 O        0.857    -0.357    20.833     6.120
     9   7 N        2.746    -0.083    22.850     7.100
    10   6 C        3.714    -0.064    21.865     6.681
    11   6 C        2.736     0.320    21.565     7.603
    12   8 O        0.859    -0.323    20.208     6.027
    13   7 N        2.729    -0.006    21.372     6.866
    14   6 C        3.694    -0.078    22.181     6.738
    15   1 H        0.925     0.112     1.678     2.026
    16   1 H        0.860     0.197     1.120     1.657
    17   1 H        0.924     0.102     1.765     2.078
    18   1 H        0.926     0.132     1.520     1.928
    19   1 H        0.925     0.113     1.671     2.021
    20   1 H        0.925     0.094     1.841     2.122
    21   1 H        0.925     0.095     1.834     2.118
    22   1 H        0.925     0.104     1.748     2.068
    23   1 H        0.924     0.106     1.734     2.059
    24   1 H        0.924     0.134     1.502     1.916
    25   1 H        0.860     0.208     1.066     1.617

Wiberg/Mayer (AO) data.
largest (>0.10) Wiberg bond orders for each atom

     #   Z sym  total        # sym  WBO       # sym  WBO       # sym  WBO
 ---------------------------------------------------------------------------
     1   6 C    3.891 --     2 N    2.039    15 H    0.934    17 H    0.906
     2   7 N    2.979 --     1 C    2.039    16 H    0.917
     3   6 C    3.732 --     6 C    1.521     4 N    1.053    18 H    0.953
     4   7 N    3.454 --     5 C    1.185     3 C    1.053    25 H    0.927
                             6 C    0.117
     5   6 C    3.828 --    13 N    1.473     4 N    1.185     6 C    1.025
     6   6 C    3.916 --     3 C    1.521     7 C    1.104     5 C    1.025
                             4 N    0.117
     7   6 C    3.947 --     8 O    1.716     6 C    1.104     9 N    1.037
     8   8 O    2.072 --     7 C    1.716     9 N    0.124
     9   7 N    3.567 --    11 C    1.206     7 C    1.037    10 C    0.961
                            12 O    0.159     8 O    0.124
    10   6 C    3.919 --    20 H    0.970    21 H    0.970    19 H    0.969
                             9 N    0.961
    11   6 C    3.943 --    12 O    1.748     9 N    1.206    13 N    0.897
    12   8 O    2.109 --    11 C    1.748     9 N    0.159
    13   7 N    3.613 --     5 C    1.473    14 C    0.975    11 C    0.897
    14   6 C    3.914 --    13 N    0.975    24 H    0.961    22 H    0.960
                            23 H    0.955
    15   1 H    0.957 --     1 C    0.934
    16   1 H    0.939 --     2 N    0.917
    17   1 H    0.919 --     1 C    0.906
    18   1 H    0.982 --     3 C    0.953
    19   1 H    0.987 --    10 C    0.969
    20   1 H    0.989 --    10 C    0.970
    21   1 H    0.989 --    10 C    0.970
    22   1 H    0.985 --    14 C    0.960
    23   1 H    0.984 --    14 C    0.955
    24   1 H    0.982 --    14 C    0.961
    25   1 H    0.955 --     4 N    0.927
 ---------------------------------------------------------------------------

molecular dipole:
                 x           y           z       tot (Debye)
 q only:        1.383      -1.762      -0.051
   full:        1.553      -2.009      -0.186       6.471

           -------------------------------------------------
          | TOTAL ENERGY              -42.057835409980 Eh   |
          | GRADIENT NORM               0.002550502026 Eh/α |
          | HOMO-LUMO GAP               0.766984390521 eV   |
           -------------------------------------------------

 * finished run on 2024/06/05 at 19:57:53.560
