   * xtb version 6.6.1 (8d0f1dd) compiled by 'conda@1efc2f54142f' on 2023-08-01
          program call               : xtb struc.xyz --opt loose --input .xc1 --gfn2

   ID    Z sym.   atoms
    1    7 N      1, 17
    2    6 C      2-6, 8, 9, 11-16, 18-23, 25, 26, 28-33
    3    8 O      7, 10, 24, 27
    4    1 H      34-72
constraining bond 2 43 to    3.7133300 Å, actual value:    3.3645374 Å

          :  Hamiltonian                  GFN2-xTB          :
 * total energy  :   -99.4258530 Eh     change       -0.4035485E-08 Eh
 * total energy  :   -99.4889264 Eh     change       -0.6307333E-01 Eh
 * total energy  :   -99.5799992 Eh     change       -0.9107279E-01 Eh
 * total energy  :   -99.8004652 Eh     change       -0.2204661E+00 Eh
 * total energy  :  -100.0557699 Eh     change       -0.2553047E+00 Eh
 * total energy  :  -100.2564122 Eh     change       -0.2006422E+00 Eh
 * total energy  :  -100.2993792 Eh     change       -0.4296708E-01 Eh
 * total energy  :  -100.4129160 Eh     change       -0.1135368E+00 Eh
 * total energy  :  -100.2138407 Eh     change        0.1990753E+00 Eh
 * total energy  :  -100.4680534 Eh     change       -0.2542128E+00 Eh
 * total energy  :  -100.6709649 Eh     change       -0.9615698E-04 Eh
 * total energy  :  -100.6710644 Eh     change       -0.9945735E-04 Eh
 * total energy  :  -100.6711430 Eh     change       -0.7857076E-04 Eh
 * total energy  :  -100.6712079 Eh     change       -0.6490091E-04 Eh
 * total energy  :  -100.6712645 Eh     change       -0.5659248E-04 Eh
 * total energy  :  -100.6713180 Eh     change       -0.5353599E-04 Eh
 * total energy  :  -100.6713711 Eh     change       -0.5314692E-04 Eh
 * total energy  :  -100.6714296 Eh     change       -0.5848188E-04 Eh
 * total energy  :  -100.6714762 Eh     change       -0.4656703E-04 Eh
   *** GEOMETRY OPTIMIZATION CONVERGED AFTER 67 ITERATIONS ***

 final structure:
================
72
 xtb: 6.6.1 (8d0f1dd)
N           -2.03777895862118        3.19734318726002        1.94371074931547
C           -2.04156665072517        2.07499263297964        1.12072988585647
C           -3.42292263104342        1.63548076357973        0.71342474655551
C           -3.74084543219308        0.26549648479102        0.57466368024333
C           -4.85061075176929       -0.16714147526867       -0.20174880582831
C           -5.20276835569569       -1.49197013809519       -0.31798511961458
O           -6.23120598470036       -1.96637880420248       -1.04685524434845
C           -7.08851880427150       -1.06572646452394       -1.70928709460936
C           -4.44775929466442       -2.49136230701966        0.36742374553955
O           -4.87428976645738       -3.74967192134514        0.21150692447218
C           -4.21746563367709       -4.79840728673267        0.88771317557769
C           -3.35590114874158       -2.08352699217203        1.13052531884188
C           -3.00583720036455       -0.75566051004383        1.22650067376316
C           -0.84838581283744        2.47426920006560       -1.00966869762469
C           -1.31558237239561        1.48557215372848       -1.99334953609779
C            0.08045003846163        1.39537975523325       -1.42178821824521
N            0.46835803820431        0.35608225799852       -0.51550540041189
C            1.86276677154806        0.39393646179443       -0.14417361640527
C            2.82762710313155       -0.15937923016043       -1.22093160632948
C            4.25355902627525       -0.03204744963708       -0.78286309618330
C            4.95597708350728        1.14719861300209       -0.99609778862543
C            6.27823999795583        1.27080042974979       -0.60391648418737
C            6.93047234922196        0.21502351801410        0.02012023722522
O            8.21012438320282        0.21196471596333        0.42887713476490
C            9.02263184807647        1.33258590878455        0.16698274664902
C            6.21402689648181       -0.99293433296003        0.26171645636851
O            6.92170630101127       -1.95980304287299        0.87372257497778
C            6.31409284498088       -3.20222410500140        1.13915679309147
C            4.89121251923725       -1.09180479100159       -0.14293189837236
C           -0.07472119248658       -0.96211499916061       -0.75079739053572
C           -4.42624537720956        2.71753679788302        0.46957432180725
C           -4.98405111732419        3.15349012516615        1.83635970187491
C           -3.85245580589758        3.92576847534933       -0.26918189438080
H           -5.41544245787229        0.56165969560213       -0.75651747231585
H           -7.55954942080966       -0.37156228365730       -1.00722038559886
H           -7.85372198056854       -1.68375419545292       -2.17463122093745
H           -6.55936102113058       -0.50243489636269       -2.48467155401114
H           -4.25191269916574       -4.65716476856862        1.97178846941059
H           -4.76310036591995       -5.70223861114974        0.62378721057819
H           -3.17715402062920       -4.89455332263242        0.56267757765011
H           -2.77863950800146       -2.81404839205083        1.67468360279192
H           -2.18748160931721       -0.50291816140479        1.88067447593698
H           -1.66027334625871        2.23576822428181        0.44224320691094
H           -0.72122651520827        3.53084013874721       -1.13840616275834
H           -2.04452446087189        0.75781733253647       -1.66681275271316
H           -1.43981500695101        1.77144431559985       -3.03179199657821
H           -1.49090831258371        1.22125278068326        1.58369610394965
H            0.89605600384894        1.71909299804731       -2.07472186016156
H            1.98488647271889       -0.18956231274713        0.77276096026765
H            2.12605792681894        1.43127907137797        0.07631557160490
H            2.67944668220852        0.40138981399249       -2.14511484862153
H            2.58699638759834       -1.20610747423280       -1.40932938628511
H            4.47313143043680        1.97807070641154       -1.48741166525142
H            6.79920290086425        2.19496568847669       -0.79350404792488
H            8.66205193761254        2.22120267762797        0.69300310052993
H            9.08136210405200        1.54116635475878       -0.90543700520171
H           10.01083568132550        1.06951882597278        0.53917356573714
H            7.08533050092653       -3.80930178527977        1.60901876932184
H            5.46901114980774       -3.09481493627371        1.82586161400092
H            5.97987801686468       -3.69004603771347        0.21873334697364
H            4.34452506132430       -2.00700698773779        0.02189203621330
H            0.11758461095869       -1.32898058861553       -1.76580438516169
H           -1.15221185701012       -0.95187596426619       -0.58777266121253
H            0.36718161238853       -1.65452351668357       -0.03678678903782
H           -5.26503838904022        2.33169176211776       -0.11312966457560
H           -4.17073872791770        3.54268608567892        2.44341564602804
H           -5.44229492821400        2.31199881125405        2.34936816989908
H           -5.72949672291340        3.93056160500627        1.69405096483524
H           -3.06979053754473        4.38995209768384        0.32451368735103
H           -3.45311386599912        3.63215884217451       -1.23708420199933
H           -4.64005145643977        4.65771085216113       -0.42803930773541
H           -1.14350858258818        3.41003744598485        2.36216715556818

          :  Hamiltonian                  GFN2-xTB          :
         :: total energy            -100.671476199218 Eh    ::
         :: gradient norm              0.002751563620 Eh/a0 ::
         :: HOMO-LUMO gap              0.669689819988 eV    ::
         :: SCC energy              -100.637450456518 Eh    ::
         :: -> dispersion             -0.072253479151 Eh    ::
         :: repulsion energy           1.485914217006 Eh    ::

    * Orbital Energies and Occupations

         #    Occupation            Energy/Eh            Energy/eV
      -------------------------------------------------------------
         1        2.0000           -0.8210670             -22.3424
       ...           ...                  ...                  ...
        78        1.9976           -0.5334013             -14.5146
        79        1.9970           -0.5296604             -14.4128
        80        1.9956           -0.5235798             -14.2473
        81        1.9949           -0.5213612             -14.1870
        82        1.9944           -0.5197514             -14.1432
        83        1.9925           -0.5151638             -14.0183
        84        1.9860           -0.5052856             -13.7495
        85        1.9671           -0.4915953             -13.3770
        86        1.9139           -0.4759392             -12.9510
        87        1.8697           -0.4690051             -12.7623
        88        1.8325           -0.4647181             -12.6456
        89        1.7233           -0.4557945             -12.4028
        90        1.6170           -0.4496380             -12.2353 (HOMO)
        91        0.9431           -0.4250273             -11.5656 (LUMO)
        92        0.1868           -0.3908413             -10.6353
        93        0.0025           -0.3208588              -8.7310
        94        0.0016           -0.3142977              -8.5525
        95        0.0015           -0.3125762              -8.5056
        96        0.0006           -0.2996366              -8.1535
        97        0.0000           -0.1929077              -5.2493
        98        0.0000           -0.1899182              -5.1679
        99                         -0.1597200              -4.3462
       100                         -0.1044891              -2.8433
       101                         -0.0724232              -1.9707
       ...                                ...                  ...
       171                          1.2844182              34.9508
      -------------------------------------------------------------
                  HL-Gap            0.0246106 Eh            0.6697 eV

     #   Z          covCN         q      C6AA      α(0)
     1   7 N        1.774    -0.345    29.768     8.079
     2   6 C        3.746     0.017    20.359     6.436
     3   6 C        2.960     0.010    27.790     8.647
     4   6 C        2.960     0.001    27.998     8.679
     5   6 C        2.919    -0.078    29.941     8.973
     6   6 C        2.857     0.135    25.046     8.203
     7   8 O        1.706    -0.226    17.755     5.689
     8   6 C        3.644     0.025    20.497     6.508
     9   6 C        2.864     0.139    24.967     8.190
    10   8 O        1.706    -0.207    17.450     5.640
    11   6 C        3.645     0.022    20.538     6.513
    12   6 C        2.908    -0.067    29.680     8.933
    13   6 C        2.920    -0.044    29.104     8.847
    14   6 C        2.917    -0.093    30.328     9.031
    15   6 C        3.806    -0.068    21.804     6.647
    16   6 C        3.808     0.042    19.859     6.344
    17   7 N        2.725    -0.119    23.588     7.213
    18   6 C        3.756    -0.003    20.688     6.485
    19   6 C        3.807    -0.070    21.841     6.653
    20   6 C        2.967     0.008    27.831     8.653
    21   6 C        2.922    -0.044    29.087     8.844
    22   6 C        2.912    -0.065    29.615     8.924
    23   6 C        2.864     0.136    25.032     8.201
    24   8 O        1.706    -0.214    17.555     5.657
    25   6 C        3.645     0.023    20.519     6.510
    26   6 C        2.862     0.136    25.032     8.201
    27   8 O        1.706    -0.218    17.615     5.667
    28   6 C        3.645     0.025    20.488     6.506
    29   6 C        2.919    -0.076    29.901     8.967
    30   6 C        3.698    -0.048    21.607     6.649
    31   6 C        3.853    -0.006    20.644     6.462
    32   6 C        3.760    -0.115    22.743     6.799
    33   6 C        3.755    -0.120    22.853     6.816
    34   1 H        0.926     0.060     2.198     2.318
    35   1 H        0.924     0.056     2.248     2.345
    36   1 H        0.925     0.084     1.934     2.175
    37   1 H        0.924     0.053     2.287     2.365
    38   1 H        0.924     0.061     2.188     2.313
    39   1 H        0.925     0.087     1.909     2.161
    40   1 H        0.924     0.056     2.245     2.343
    41   1 H        0.926     0.058     2.226     2.333
    42   1 H        0.926     0.053     2.280     2.361
    43   1 H        0.958     0.192     1.138     1.667
    44   1 H        0.926     0.062     2.176     2.307
    45   1 H        0.926     0.055     2.259     2.350
    46   1 H        0.925     0.054     2.273     2.358
    47   1 H        0.920     0.065     2.144     2.290
    48   1 H        0.924     0.040     2.448     2.447
    49   1 H        0.924     0.053     2.283     2.363
    50   1 H        0.924     0.055     2.264     2.353
    51   1 H        0.924     0.049     2.338     2.391
    52   1 H        0.924     0.051     2.302     2.373
    53   1 H        0.926     0.051     2.310     2.377
    54   1 H        0.926     0.061     2.182     2.310
    55   1 H        0.924     0.059     2.215     2.327
    56   1 H        0.924     0.059     2.213     2.327
    57   1 H        0.925     0.085     1.929     2.172
    58   1 H        0.925     0.084     1.938     2.177
    59   1 H        0.924     0.054     2.276     2.359
    60   1 H        0.924     0.056     2.250     2.346
    61   1 H        0.926     0.052     2.290     2.367
    62   1 H        0.924     0.046     2.374     2.409
    63   1 H        0.925     0.054     2.268     2.355
    64   1 H        0.925     0.056     2.241     2.341
    65   1 H        0.924     0.051     2.313     2.378
    66   1 H        0.925     0.085     1.925     2.170
    67   1 H        0.925     0.044     2.398     2.421
    68   1 H        0.925     0.060     2.195     2.317
    69   1 H        0.925     0.073     2.052     2.240
    70   1 H        0.925     0.039     2.458     2.452
    71   1 H        0.925     0.055     2.258     2.350
    72   1 H        0.860     0.140     1.474     1.902

Wiberg/Mayer (AO) data.
largest (>0.10) Wiberg bond orders for each atom

     #   Z sym  total        # sym  WBO       # sym  WBO       # sym  WBO
 ---------------------------------------------------------------------------
     1   7 N    2.400 --     2 C    1.162    72 H    0.950    14 C    0.174
     2   6 C    3.929 --     1 N    1.162     3 C    1.024    47 H    0.888
                            43 H    0.731
     3   6 C    3.590 --     4 C    1.311    31 C    1.035     2 C    1.024
     4   6 C    3.965 --     3 C    1.311    13 C    1.261     5 C    1.246
     5   6 C    3.884 --     6 C    1.454     4 C    1.246    34 H    0.950
     6   6 C    3.913 --     5 C    1.454     9 C    1.186     7 O    1.105
     7   8 O    2.259 --     6 C    1.105     8 C    0.976
     8   6 C    3.928 --    36 H    0.976     7 O    0.976    35 H    0.973
                            37 H    0.972
     9   6 C    3.815 --    12 C    1.339     6 C    1.186    10 O    1.135
    10   8 O    2.263 --     9 C    1.135    11 C    0.972
    11   6 C    3.925 --    39 H    0.976    40 H    0.972    10 O    0.972
                            38 H    0.972
    12   6 C    3.964 --    13 C    1.483     9 C    1.339    41 H    0.962
    13   6 C    3.853 --    12 C    1.483     4 C    1.261    42 H    0.955
    14   6 C    3.453 --    15 C    1.018    16 C    0.971    44 H    0.962
                             1 N    0.174    43 H    0.158
    15   6 C    3.927 --    14 C    1.018    46 H    0.959    45 H    0.956
                            16 C    0.948
    16   6 C    3.908 --    17 N    1.007    14 C    0.971    15 C    0.948
                            48 H    0.934
    17   7 N    3.123 --    18 C    1.011    30 C    1.010    16 C    1.007
    18   6 C    3.964 --    17 N    1.011    50 H    0.971    49 H    0.967
                            19 C    0.957
    19   6 C    3.968 --    20 C    1.018    52 H    0.971    51 H    0.965
                            18 C    0.957
    20   6 C    3.925 --    21 C    1.387    29 C    1.382    19 C    1.018
    21   6 C    3.926 --    22 C    1.427    20 C    1.387    53 H    0.967
    22   6 C    3.949 --    21 C    1.427    23 C    1.372    54 H    0.962
    23   6 C    3.870 --    22 C    1.372    26 C    1.208    24 O    1.119
    24   8 O    2.248 --    23 C    1.119    25 C    0.975
    25   6 C    3.924 --    57 H    0.976    24 O    0.975    56 H    0.971
                            55 H    0.971
    26   6 C    3.879 --    29 C    1.388    23 C    1.208    27 O    1.112
    27   8 O    2.249 --    26 C    1.112    28 C    0.977
    28   6 C    3.928 --    27 O    0.977    58 H    0.976    59 H    0.972
                            60 H    0.972
    29   6 C    3.949 --    26 C    1.388    20 C    1.382    61 H    0.962
    30   6 C    3.968 --    17 N    1.010    64 H    0.979    63 H    0.968
                            62 H    0.966
    31   6 C    3.970 --     3 C    1.035    33 C    0.993    32 C    0.954
                            65 H    0.943
    32   6 C    3.932 --    67 H    0.985    68 H    0.975    66 H    0.964
                            31 C    0.954
    33   6 C    3.960 --    31 C    0.993    70 H    0.983    71 H    0.980
                            69 H    0.967
    34   1 H    0.995 --     5 C    0.950
    35   1 H    0.993 --     8 C    0.973
    36   1 H    0.992 --     8 C    0.976
    37   1 H    0.992 --     8 C    0.972
    38   1 H    0.990 --    11 C    0.972
    39   1 H    0.992 --    11 C    0.976
    40   1 H    0.991 --    11 C    0.972
    41   1 H    0.994 --    12 C    0.962
    42   1 H    0.996 --    13 C    0.955
    43   1 H    0.943 --     2 C    0.731    14 C    0.158
    44   1 H    0.987 --    14 C    0.962
    45   1 H    0.986 --    15 C    0.956
    46   1 H    0.981 --    15 C    0.959
    47   1 H    0.952 --     2 C    0.888
    48   1 H    0.971 --    16 C    0.934
    49   1 H    0.991 --    18 C    0.967
    50   1 H    0.995 --    18 C    0.971
    51   1 H    0.994 --    19 C    0.965
    52   1 H    0.995 --    19 C    0.971
    53   1 H    0.996 --    21 C    0.967
    54   1 H    0.994 --    22 C    0.962
    55   1 H    0.988 --    25 C    0.971
    56   1 H    0.989 --    25 C    0.971
    57   1 H    0.992 --    25 C    0.976
    58   1 H    0.992 --    28 C    0.976
    59   1 H    0.990 --    28 C    0.972
    60   1 H    0.990 --    28 C    0.972
    61   1 H    0.996 --    29 C    0.962
    62   1 H    0.980 --    30 C    0.966
    63   1 H    0.991 --    30 C    0.968
    64   1 H    0.996 --    30 C    0.979
    65   1 H    0.984 --    31 C    0.943
    66   1 H    0.986 --    32 C    0.964
    67   1 H    0.995 --    32 C    0.985
    68   1 H    0.988 --    32 C    0.975
    69   1 H    0.989 --    33 C    0.967
    70   1 H    0.996 --    33 C    0.983
    71   1 H    0.993 --    33 C    0.980
    72   1 H    0.965 --     1 N    0.950
 ---------------------------------------------------------------------------

molecular dipole:
                 x           y           z       tot (Debye)
 q only:        0.099      -0.360      -0.317
   full:        0.523      -0.530      -0.696       2.591

           -------------------------------------------------
          | TOTAL ENERGY             -100.671476199218 Eh   |
          | GRADIENT NORM               0.002751563620 Eh/α |
          | HOMO-LUMO GAP               0.669689819988 eV   |
           -------------------------------------------------

 * finished run on 2024/04/06 at 11:15:34.632
