   * xtb version 6.6.1 (8d0f1dd) compiled by 'conda@1efc2f54142f' on 2023-08-01
          program call               : xtb xtbopt.xyz --opt crude --input .xc2 --gfn2

   ID    Z sym.   atoms
    1    7 N      1, 17
    2    6 C      2-6, 8, 9, 11-16, 18-23, 25, 26, 28-33
    3    8 O      7, 10, 24, 27
    4    1 H      34-72

          :  Hamiltonian                  GFN2-xTB          :
 * total energy  :   -99.1505078 Eh     change       -0.2913225E-11 Eh
 * total energy  :   -99.2776813 Eh     change       -0.1271736E+00 Eh
 * total energy  :   -99.2949858 Eh     change       -0.1730450E-01 Eh
 * total energy  :   -99.3191524 Eh     change       -0.2416660E-01 Eh
 * total energy  :   -99.3352372 Eh     change       -0.1608477E-01 Eh
 * total energy  :   -99.3487139 Eh     change       -0.1347673E-01 Eh
 * total energy  :   -99.3582595 Eh     change       -0.9545587E-02 Eh
 * total energy  :   -99.3622623 Eh     change       -0.4002804E-02 Eh
 * total energy  :   -99.3656790 Eh     change       -0.3416635E-02 Eh
 * total energy  :   -99.3680395 Eh     change       -0.2360501E-02 Eh
 * total energy  :   -99.3697821 Eh     change       -0.1742593E-02 Eh
 * total energy  :   -99.3707062 Eh     change       -0.9241397E-03 Eh
 * total energy  :   -99.3712173 Eh     change       -0.5110617E-03 Eh
 * total energy  :   -99.3716175 Eh     change       -0.4002384E-03 Eh
   *** GEOMETRY OPTIMIZATION CONVERGED AFTER 14 ITERATIONS ***

 final structure:
================
72
 xtb: 6.6.1 (8d0f1dd)
N           -2.21499688879260        3.25873872719878        2.18759575421362
C           -2.40160794075227        2.06256687465941        1.77289863684601
C           -3.56655068111323        1.65714379777460        1.06449291313386
C           -3.79887733540363        0.27953621948709        0.77033305305490
C           -4.81871322076827       -0.13432412776034       -0.12315492647280
C           -5.13477679867728       -1.46023617944677       -0.32826119011333
O           -6.11420059231781       -1.91352625537125       -1.13526031620217
C           -6.98453899907312       -0.99307914165736       -1.75273982798149
C           -4.40410980997507       -2.47846168426428        0.35377635205925
O           -4.80779631398576       -3.73525053027119        0.12813415322432
C           -4.19601540857584       -4.79928722549992        0.82233358243015
C           -3.35939430289371       -2.08807022793017        1.18860463191105
C           -3.06549408029206       -0.75719498764929        1.39210806795144
C           -0.72706969046448        2.44367200818303       -1.29918963670061
C           -1.24959258457496        1.39420747671260       -2.23440017716868
C            0.14647045319421        1.28230423593141       -1.71055954259420
N            0.50311994251638        0.31781225223054       -0.72114503482779
C            1.87093943026544        0.37756977215469       -0.28027808848029
C            2.88467025433472       -0.22297867677011       -1.28644244989264
C            4.29319896529568       -0.06646601363036       -0.80389422769729
C            4.98396923781266        1.12283097783176       -1.00546796626153
C            6.29729812905031        1.26246839309995       -0.59058886741981
C            6.95550529467887        0.21427087087302        0.04204903438705
O            8.23264451141648        0.22688344625488        0.45749906023354
C            9.02878905778670        1.36470332129746        0.21567234908691
C            6.24828452612485       -0.99987665616189        0.27919205081871
O            6.95191191915296       -1.96168582208553        0.90286866004222
C            6.34644075299876       -3.20871477984363        1.15076534275000
C            4.93220204116145       -1.11310371476540       -0.14512498484985
C           -0.09515376096451       -0.99153825104287       -0.80979221370994
C           -4.56111173775830        2.72755664812092        0.70004340517710
C           -5.17992810970658        3.32168868904739        1.97050880172367
C           -3.92628122173037        3.83196528851098       -0.14938063861315
H           -5.36569612045006        0.60841353493178       -0.67697318004609
H           -7.46379790445657       -0.34103182448211       -1.01636104936064
H           -7.74311462235889       -1.59627229856372       -2.24815318230922
H           -6.46291068986077       -0.38517585526345       -2.49896418126533
H           -4.27327497012908       -4.66666005793602        1.90554149603027
H           -4.74330835650588       -5.69293828179037        0.52813759616871
H           -3.14446853017710       -4.90883806742194        0.54012281189530
H           -2.77879987845521       -2.83457817448846        1.70681793992946
H           -2.27630188622954       -0.52574234772527        2.08816909421583
H           -1.10765440207752        2.41896599924278       -0.29449543200795
H           -0.49700655798847        3.42807127829643       -1.67984544973666
H           -2.00948042354694        0.72146531081287       -1.86724589266875
H           -1.36133357917253        1.65071118607641       -3.27657033346117
H           -1.64449573553500        1.28809855818540        1.95281981284739
H            0.94334030490288        1.51740321538901       -2.41062641918108
H            1.95150432143574       -0.16465424910759        0.66635470620426
H            2.12333944520285        1.42492360034103       -0.09749928926665
H            2.77103999687075        0.29006271377812       -2.24322214082026
H            2.65392609856939       -1.27913797444820       -1.43158174801703
H            4.49991689827695        1.94714937367350       -1.50650852117828
H            6.80997522496322        2.19275173783453       -0.77306295462307
H            8.64044099627907        2.24381837335466        0.73833088964099
H            9.10423169543881        1.57881241745368       -0.85460788679621
H           10.01495866537450        1.11952068489822        0.60540204885579
H            7.10959902258458       -3.81412366875416        1.63574275656451
H            5.48476608131419       -3.10907407971425        1.81829869470555
H            6.03568242663441       -3.69453298555125        0.22068223034507
H            4.39194381606845       -2.03253458958990        0.01675874142440
H            0.05333075006309       -1.45515588257831       -1.79240318541291
H           -1.16794037617580       -0.91948846936681       -0.62461507164821
H            0.33830944637697       -1.63470072671428       -0.04647460936387
H           -5.37955724307910        2.29194377810953        0.12411464284786
H           -4.41534703893100        3.82422129025988        2.55430686151734
H           -5.63539305798347        2.54053623500912        2.57557117008452
H           -5.94646667400030        4.04088371581837        1.69727418560216
H           -3.13224989829641        4.31691964870751        0.41134198166483
H           -3.51509811866287        3.42156472805078       -1.06938479276320
H           -4.67638652226765        4.57604006818089       -0.40304487013314
H           -1.34894204495876        3.45437688235581        2.67392161208183

          :  Hamiltonian                  GFN2-xTB          :
         :: total energy             -99.371617501001 Eh    ::
         :: gradient norm              0.006640164898 Eh/a0 ::
         :: HOMO-LUMO gap              0.715772598494 eV    ::
         :: SCC energy              -100.758786725348 Eh    ::
         :: -> dispersion             -0.069785130919 Eh    ::
         :: repulsion energy           1.385972933303 Eh    ::

    * Orbital Energies and Occupations

         #    Occupation            Energy/Eh            Energy/eV
      -------------------------------------------------------------
         1        2.0000           -0.8204848             -22.3265
       ...           ...                  ...                  ...
        78        1.9966           -0.5303750             -14.4322
        79        1.9963           -0.5290637             -14.3966
        80        1.9954           -0.5255401             -14.3007
        81        1.9944           -0.5225334             -14.2189
        82        1.9928           -0.5185304             -14.1099
        83        1.9912           -0.5151537             -14.0180
        84        1.9886           -0.5111090             -13.9080
        85        1.9811           -0.5030370             -13.6883
        86        1.9649           -0.4931449             -13.4192
        87        1.8939           -0.4750283             -12.9262
        88        1.8110           -0.4651739             -12.6580
        89        1.7944           -0.4636957             -12.6178
        90        1.6566           -0.4543074             -12.3623 (HOMO)
        91        0.9561           -0.4280032             -11.6466 (LUMO)
        92        0.0038           -0.3303703              -8.9898
        93        0.0020           -0.3198112              -8.7025
        94        0.0015           -0.3159360              -8.5971
        95        0.0014           -0.3143587              -8.5541
        96        0.0001           -0.2659310              -7.2364
        97        0.0000           -0.1917266              -5.2171
        98        0.0000           -0.1865883              -5.0773
        99                         -0.1594436              -4.3387
       100                         -0.1004574              -2.7336
       101                         -0.0716714              -1.9503
       ...                                ...                  ...
       171                          0.5759017              15.6711
      -------------------------------------------------------------
                  HL-Gap            0.0263042 Eh            0.7158 eV

     #   Z          covCN         q      C6AA      α(0)
     1   7 N        1.779    -0.277    28.014     7.838
     2   6 C        2.823     0.081    26.173     8.383
     3   6 C        2.962     0.005    27.898     8.664
     4   6 C        2.963     0.008    27.834     8.654
     5   6 C        2.920    -0.077    29.915     8.969
     6   6 C        2.858     0.135    25.055     8.204
     7   8 O        1.706    -0.225    17.737     5.686
     8   6 C        3.644     0.025    20.493     6.507
     9   6 C        2.863     0.138    24.982     8.193
    10   8 O        1.706    -0.208    17.466     5.643
    11   6 C        3.645     0.023    20.531     6.512
    12   6 C        2.909    -0.068    29.686     8.934
    13   6 C        2.921    -0.042    29.050     8.839
    14   6 C        3.806    -0.075    21.922     6.665
    15   6 C        3.806    -0.069    21.820     6.650
    16   6 C        3.808     0.035    19.982     6.363
    17   7 N        2.726    -0.099    23.183     7.151
    18   6 C        3.753    -0.004    20.707     6.489
    19   6 C        3.806    -0.071    21.847     6.654
    20   6 C        2.967     0.010    27.800     8.648
    21   6 C        2.922    -0.043    29.068     8.841
    22   6 C        2.912    -0.064    29.603     8.922
    23   6 C        2.864     0.136    25.020     8.199
    24   8 O        1.706    -0.213    17.533     5.653
    25   6 C        3.645     0.023    20.530     6.512
    26   6 C        2.862     0.136    25.021     8.199
    27   8 O        1.706    -0.216    17.590     5.663
    28   6 C        3.645     0.025    20.492     6.506
    29   6 C        2.919    -0.076    29.893     8.966
    30   6 C        3.696    -0.049    21.621     6.651
    31   6 C        3.855    -0.006    20.652     6.463
    32   6 C        3.757    -0.112    22.705     6.794
    33   6 C        3.755    -0.116    22.783     6.806
    34   1 H        0.926     0.062     2.180     2.309
    35   1 H        0.924     0.056     2.246     2.344
    36   1 H        0.925     0.084     1.936     2.176
    37   1 H        0.924     0.054     2.266     2.354
    38   1 H        0.924     0.060     2.194     2.317
    39   1 H        0.925     0.087     1.912     2.162
    40   1 H        0.924     0.057     2.240     2.341
    41   1 H        0.926     0.057     2.239     2.340
    42   1 H        0.926     0.053     2.281     2.362
    43   1 H        0.926     0.056     2.246     2.344
    44   1 H        0.926     0.054     2.265     2.354
    45   1 H        0.926     0.046     2.373     2.409
    46   1 H        0.926     0.054     2.276     2.359
    47   1 H        0.924     0.021     2.711     2.575
    48   1 H        0.925     0.040     2.446     2.446
    49   1 H        0.924     0.053     2.279     2.361
    50   1 H        0.924     0.058     2.218     2.329
    51   1 H        0.924     0.052     2.296     2.370
    52   1 H        0.924     0.052     2.296     2.369
    53   1 H        0.926     0.053     2.281     2.362
    54   1 H        0.926     0.062     2.170     2.303
    55   1 H        0.924     0.059     2.205     2.322
    56   1 H        0.924     0.060     2.201     2.320
    57   1 H        0.925     0.086     1.922     2.168
    58   1 H        0.925     0.085     1.932     2.174
    59   1 H        0.924     0.054     2.270     2.356
    60   1 H        0.924     0.056     2.241     2.341
    61   1 H        0.926     0.054     2.276     2.359
    62   1 H        0.924     0.050     2.315     2.379
    63   1 H        0.924     0.058     2.223     2.332
    64   1 H        0.925     0.057     2.238     2.339
    65   1 H        0.924     0.047     2.354     2.400
    66   1 H        0.925     0.075     2.028     2.227
    67   1 H        0.925     0.041     2.432     2.439
    68   1 H        0.925     0.056     2.247     2.344
    69   1 H        0.925     0.071     2.074     2.252
    70   1 H        0.925     0.040     2.451     2.448
    71   1 H        0.925     0.055     2.263     2.352
    72   1 H        0.860     0.154     1.373     1.835

Wiberg/Mayer (AO) data.
largest (>0.10) Wiberg bond orders for each atom

     #   Z sym  total        # sym  WBO       # sym  WBO       # sym  WBO
 ---------------------------------------------------------------------------
     1   7 N    2.747 --     2 C    1.702    72 H    0.944
     2   6 C    3.918 --     1 N    1.702     3 C    1.227    47 H    0.918
     3   6 C    3.613 --     4 C    1.251     2 C    1.227    31 C    1.013
     4   6 C    3.961 --    13 C    1.278     5 C    1.271     3 C    1.251
     5   6 C    3.889 --     6 C    1.441     4 C    1.271    34 H    0.949
     6   6 C    3.901 --     5 C    1.441     9 C    1.190     7 O    1.106
     7   8 O    2.252 --     6 C    1.106     8 C    0.975
     8   6 C    3.927 --    36 H    0.976     7 O    0.975    35 H    0.973
                            37 H    0.972
     9   6 C    3.818 --    12 C    1.341     6 C    1.190    10 O    1.132
    10   8 O    2.257 --     9 C    1.132    11 C    0.973
    11   6 C    3.924 --    39 H    0.976    10 O    0.973    38 H    0.972
                            40 H    0.972
    12   6 C    3.958 --    13 C    1.478     9 C    1.341    41 H    0.962
    13   6 C    3.854 --    12 C    1.478     4 C    1.278    42 H    0.958
    14   6 C    3.896 --    15 C    0.980    44 H    0.978    43 H    0.970
                            16 C    0.934
    15   6 C    3.936 --    14 C    0.980    46 H    0.977    45 H    0.975
                            16 C    0.971
    16   6 C    3.908 --    17 N    1.015    15 C    0.971    48 H    0.950
                            14 C    0.934
    17   7 N    3.121 --    18 C    1.016    16 C    1.015    30 C    1.012
    18   6 C    3.962 --    17 N    1.016    50 H    0.969    49 H    0.967
                            19 C    0.951
    19   6 C    3.960 --    20 C    1.020    52 H    0.972    51 H    0.964
                            18 C    0.951
    20   6 C    3.922 --    29 C    1.384    21 C    1.382    19 C    1.020
    21   6 C    3.922 --    22 C    1.431    20 C    1.382    53 H    0.967
    22   6 C    3.947 --    21 C    1.431    23 C    1.368    54 H    0.962
    23   6 C    3.867 --    22 C    1.368    26 C    1.207    24 O    1.121
    24   8 O    2.248 --    23 C    1.121    25 C    0.974
    25   6 C    3.923 --    57 H    0.976    24 O    0.974    56 H    0.971
                            55 H    0.970
    26   6 C    3.876 --    29 C    1.386    23 C    1.207    27 O    1.114
    27   8 O    2.249 --    26 C    1.114    28 C    0.976
    28   6 C    3.927 --    27 O    0.976    58 H    0.976    59 H    0.972
                            60 H    0.972
    29   6 C    3.947 --    26 C    1.386    20 C    1.384    61 H    0.961
    30   6 C    3.964 --    17 N    1.012    64 H    0.980    63 H    0.968
                            62 H    0.964
    31   6 C    3.964 --     3 C    1.013    33 C    0.985    32 C    0.973
                            65 H    0.946
    32   6 C    3.942 --    67 H    0.984    68 H    0.977    31 C    0.973
                            66 H    0.968
    33   6 C    3.951 --    31 C    0.985    70 H    0.983    71 H    0.979
                            69 H    0.968
    34   1 H    0.994 --     5 C    0.949
    35   1 H    0.992 --     8 C    0.973
    36   1 H    0.992 --     8 C    0.976
    37   1 H    0.991 --     8 C    0.972
    38   1 H    0.990 --    11 C    0.972
    39   1 H    0.992 --    11 C    0.976
    40   1 H    0.990 --    11 C    0.972
    41   1 H    0.994 --    12 C    0.962
    42   1 H    0.995 --    13 C    0.958
    43   1 H    0.996 --    14 C    0.970
    44   1 H    0.995 --    14 C    0.978
    45   1 H    0.997 --    15 C    0.975
    46   1 H    0.994 --    15 C    0.977
    47   1 H    0.960 --     2 C    0.918
    48   1 H    0.980 --    16 C    0.950
    49   1 H    0.991 --    18 C    0.967
    50   1 H    0.993 --    18 C    0.969
    51   1 H    0.994 --    19 C    0.964
    52   1 H    0.995 --    19 C    0.972
    53   1 H    0.996 --    21 C    0.967
    54   1 H    0.994 --    22 C    0.962
    55   1 H    0.988 --    25 C    0.970
    56   1 H    0.989 --    25 C    0.971
    57   1 H    0.992 --    25 C    0.976
    58   1 H    0.992 --    28 C    0.976
    59   1 H    0.990 --    28 C    0.972
    60   1 H    0.990 --    28 C    0.972
    61   1 H    0.995 --    29 C    0.961
    62   1 H    0.974 --    30 C    0.964
    63   1 H    0.986 --    30 C    0.968
    64   1 H    0.996 --    30 C    0.980
    65   1 H    0.985 --    31 C    0.946
    66   1 H    0.986 --    32 C    0.968
    67   1 H    0.995 --    32 C    0.984
    68   1 H    0.989 --    32 C    0.977
    69   1 H    0.988 --    33 C    0.968
    70   1 H    0.995 --    33 C    0.983
    71   1 H    0.991 --    33 C    0.979
    72   1 H    0.963 --     1 N    0.944
 ---------------------------------------------------------------------------

molecular dipole:
                 x           y           z       tot (Debye)
 q only:        0.433      -0.381      -0.212
   full:        0.717      -0.671      -0.263       2.583

           -------------------------------------------------
          | TOTAL ENERGY              -99.371617501001 Eh   |
          | GRADIENT NORM               0.006640164898 Eh/α |
          | HOMO-LUMO GAP               0.715772598494 eV   |
           -------------------------------------------------

 * finished run on 2024/04/06 at 11:15:37.245
