   * xtb version 6.6.1 (8d0f1dd) compiled by 'conda@1efc2f54142f' on 2023-08-01
          program call               : xtb xtbopt.xyz --opt crude --input .xc2 --gfn2

   ID    Z sym.   atoms
    1    6 C      1, 3, 5-7, 10, 11, 14
    2    7 N      2, 4, 9, 13
    3    8 O      8, 12
    4    1 H      15-25
########################################################################
[WARNING] Please study the warnings concerning your input carefully
-1- readin_getIntValue: could not parse ''
########################################################################

          :  Hamiltonian                  GFN2-xTB          :
 * total energy  :   -40.4254752 Eh     change       -0.8384404E-12 Eh
 * total energy  :   -42.1210128 Eh     change       -0.1695538E+01 Eh
 * total energy  :   -42.1394058 Eh     change       -0.1839300E-01 Eh
 * total energy  :   -42.1436138 Eh     change       -0.4207980E-02 Eh
 * total energy  :   -42.1444972 Eh     change       -0.8833888E-03 Eh
 * total energy  :   -42.1448054 Eh     change       -0.3082662E-03 Eh
 * total energy  :   -42.1450745 Eh     change       -0.2690593E-03 Eh
 * total energy  :   -42.1452794 Eh     change       -0.2049641E-03 Eh
 * total energy  :   -42.1454929 Eh     change       -0.2134410E-03 Eh
 * total energy  :   -42.1456125 Eh     change       -0.1196512E-03 Eh
   *** GEOMETRY OPTIMIZATION CONVERGED AFTER 10 ITERATIONS ***

 final structure:
================
25
 xtb: 6.6.1 (8d0f1dd)
C            3.49105012523032        1.04056254202623        0.03665862788588
N            2.43728459404302        0.06455327833095       -0.01275244439921
C            2.59107430407194       -1.26869906999904       -0.03106183681405
N            1.37095325886599       -1.84971035091325       -0.03524009882011
C            0.40085973489487       -0.86421877454006       -0.01870382540096
C            1.08046683946254        0.36067003587119        0.00128598181623
C           -0.54169466198176        2.08547960280771        0.00364754426869
O            0.73462602435532        1.64083948875506        0.03182473798432
N           -1.59282603709727        1.24823842750570        0.04819276864344
C           -3.04190402984662        1.39423795373751       -0.00088509620369
C           -1.79101849019748       -0.07634244935391        0.09969922339418
O           -3.17226952122479       -0.02929651212724        0.01722592964803
N           -0.94220247038392       -1.12374563388309       -0.00724852551258
C           -1.46531499199582       -2.47431811398926       -0.03194547872116
H            3.80521095056342        1.21524680143845        1.06843696847252
H            4.34394722100460        0.68790711775699       -0.54055020190322
H            3.12818657847761        1.97776860788451       -0.38118440656240
H            3.52544720963197       -1.78585133889906       -0.04931484870209
H           -0.66047161658692        3.14794045760154        0.05804993211039
H           -3.42045922258632        1.83372842060609       -0.92564465587355
H           -3.48123554619925        1.86612014887099        0.88049670668750
H           -1.13969641440362       -3.03325157020693        0.84719831192083
H           -1.14522780192452       -2.98704853164834       -0.94028023384643
H           -2.55116858180263       -2.41248408592024       -0.02786251169967
H            1.19681405973159       -2.84008791011393       -0.05887095047409

          :  Hamiltonian                  GFN2-xTB          :
         :: total energy             -42.145612532935 Eh    ::
         :: gradient norm              0.006691889203 Eh/a0 ::
         :: HOMO-LUMO gap              1.751382837378 eV    ::
         :: SCC energy               -42.626328909852 Eh    ::
         :: -> dispersion             -0.022158558405 Eh    ::
         :: repulsion energy           0.480627010499 Eh    ::

    * Orbital Energies and Occupations

         #    Occupation            Energy/Eh            Energy/eV
      -------------------------------------------------------------
         1        2.0000           -0.8894086             -24.2020
       ...           ...                  ...                  ...
        25        2.0000           -0.6660199             -18.1233
        26        2.0000           -0.6591143             -17.9354
        27        2.0000           -0.6490014             -17.6602
        28        2.0000           -0.6339051             -17.2494
        29        2.0000           -0.6262047             -17.0399
        30        2.0000           -0.6230120             -16.9530
        31        2.0000           -0.6195566             -16.8590
        32        2.0000           -0.6171755             -16.7942
        33        2.0000           -0.6134863             -16.6938
        34        2.0000           -0.5927123             -16.1285
        35        1.9999           -0.5810222             -15.8104
        36        1.9962           -0.5146698             -14.0049
        37        1.7636           -0.4472321             -12.1698 (HOMO)
        38        0.2271           -0.3828700             -10.4184 (LUMO)
        39        0.0109           -0.3329567              -9.0602
        40        0.0023           -0.3079314              -8.3792
        41        0.0000           -0.2150672              -5.8523
        42        0.0000           -0.1839740              -5.0062
        43        0.0000           -0.1680100              -4.5718
        44                         -0.1308815              -3.5615
        45                         -0.1181481              -3.2150
        46                         -0.1019913              -2.7753
        47                         -0.0644962              -1.7550
        48                         -0.0358803              -0.9764
       ...                                ...                  ...
        67                          0.5207483              14.1703
      -------------------------------------------------------------
                  HL-Gap            0.0643621 Eh            1.7514 eV

     #   Z          covCN         q      C6AA      α(0)
     1   6 C        3.691    -0.078    22.182     6.740
     2   7 N        2.826     0.020    20.898     6.790
     3   6 C        2.981     0.024    27.462     8.596
     4   7 N        2.784    -0.085    22.901     7.107
     5   6 C        3.007     0.040    27.081     8.536
     6   6 C        2.947     0.126    25.233     8.239
     7   6 C        2.720     0.043    27.007     8.507
     8   8 O        1.709    -0.176    16.964     5.561
     9   7 N        2.795    -0.050    22.205     6.999
    10   6 C        4.230     0.136    18.305     6.076
    11   6 C        3.353     0.185    21.619     7.320
    12   8 O        1.767    -0.264    18.360     5.786
    13   7 N        2.730    -0.036    21.945     6.958
    14   6 C        3.700    -0.067    21.959     6.701
    15   1 H        0.924     0.095     1.828     2.115
    16   1 H        0.925     0.095     1.831     2.116
    17   1 H        0.925     0.105     1.738     2.062
    18   1 H        0.927     0.106     1.732     2.058
    19   1 H        0.926     0.090     1.881     2.145
    20   1 H        0.924     0.103     1.758     2.073
    21   1 H        0.924     0.102     1.763     2.076
    22   1 H        0.924     0.080     1.983     2.202
    23   1 H        0.924     0.082     1.961     2.190
    24   1 H        0.925     0.108     1.715     2.048
    25   1 H        0.860     0.216     1.028     1.588

Wiberg/Mayer (AO) data.
largest (>0.10) Wiberg bond orders for each atom

     #   Z sym  total        # sym  WBO       # sym  WBO       # sym  WBO
 ---------------------------------------------------------------------------
     1   6 C    3.936 --     2 N    0.991    16 H    0.972    17 H    0.971
                            15 H    0.962
     2   7 N    3.567 --     3 C    1.294     6 C    1.116     1 C    0.991
     3   6 C    3.728 --     2 N    1.294     4 N    1.258    18 H    0.958
     4   7 N    3.486 --     3 C    1.258     5 C    1.126    25 H    0.925
     5   6 C    3.855 --     6 C    1.303    13 N    1.128     4 N    1.126
     6   6 C    3.847 --     5 C    1.303     2 N    1.116     8 O    1.107
     7   6 C    3.596 --     9 N    1.194     8 O    1.049    19 H    0.954
                            11 C    0.191
     8   8 O    2.405 --     6 C    1.107     7 C    1.049
     9   7 N    3.577 --    11 C    1.198     7 C    1.194    10 C    0.966
    10   6 C    3.908 --    12 O    0.968     9 N    0.966    21 H    0.958
                            20 H    0.957
    11   6 C    3.724 --     9 N    1.198    13 N    1.158    12 O    0.995
                             7 C    0.191
    12   8 O    2.119 --    11 C    0.995    10 C    0.968
    13   7 N    3.527 --    11 C    1.158     5 C    1.128    14 C    0.975
    14   6 C    3.938 --    13 N    0.975    24 H    0.973    22 H    0.973
                            23 H    0.973
    15   1 H    0.985 --     1 C    0.962
    16   1 H    0.989 --     1 C    0.972
    17   1 H    0.988 --     1 C    0.971
    18   1 H    0.988 --     3 C    0.958
    19   1 H    0.991 --     7 C    0.954
    20   1 H    0.988 --    10 C    0.957
    21   1 H    0.988 --    10 C    0.958
    22   1 H    0.992 --    14 C    0.973
    23   1 H    0.992 --    14 C    0.973
    24   1 H    0.988 --    14 C    0.973
    25   1 H    0.953 --     4 N    0.925
 ---------------------------------------------------------------------------

molecular dipole:
                 x           y           z       tot (Debye)
 q only:        1.010      -0.585      -0.025
   full:        0.962      -0.706      -0.009       3.032

           -------------------------------------------------
          | TOTAL ENERGY              -42.145612532935 Eh   |
          | GRADIENT NORM               0.006691889203 Eh/α |
          | HOMO-LUMO GAP               1.751382837378 eV   |
           -------------------------------------------------

 * finished run on 2024/06/05 at 20:00:25.545
