   * xtb version 6.6.1 (8d0f1dd) compiled by 'conda@1efc2f54142f' on 2023-08-01
          program call               : xtb xtbopt.xyz --opt crude --input .xc2 --gfn2

   ID    Z sym.   atoms
    1    6 C      1, 3, 5-7, 10, 11, 14
    2    7 N      2, 4, 9, 13
    3    8 O      8, 12
    4    1 H      15-25

          :  Hamiltonian                  GFN2-xTB          :
 * total energy  :   -42.1040386 Eh     change       -0.1186606E-11 Eh
   *** GEOMETRY OPTIMIZATION CONVERGED AFTER 1 ITERATIONS ***

 final structure:
================
25
 xtb: 6.6.1 (8d0f1dd)
C            3.23331403649363        1.07615781576182       -0.03713090355278
N            2.29858581701942       -0.01689469139370       -0.03005605378478
C            2.59010883200284       -1.31441178224280       -0.00603383824638
N            1.44785155987393       -2.04079691658006        0.01623941182394
C            0.39616350701040       -1.17413759131279        0.00810695566048
C            0.92568363897429        0.10993491315604       -0.02012572631676
C            0.10286028655162        1.28099597966872       -0.04715894159744
O            0.45756726719511        2.43703669480709       -0.10423880473120
N           -1.29315508341218        0.93842623122875       -0.00313024366538
C           -2.17150776407324        1.95037186728467       -0.00451227890569
C           -1.83422140264381       -0.37961734394380        0.03308939545962
O           -3.01968637045828       -0.56300705512766        0.06958839271237
N           -0.92651560277726       -1.43511312646904        0.02118949243309
C           -1.43344246651403       -2.79515877544299        0.03243002805746
H            3.69724884038972        1.18448399576617        0.94469151980545
H            4.01328342002576        0.90138042996500       -0.77689261976368
H            2.69795855102335        1.99481402621787       -0.27336169133044
H            3.57720064906507       -1.73232588243430       -0.00622134540492
H           -3.26680865257706        5.15984925661996        0.08406144327160
H           -1.78349962252620        2.95186247110625       -0.03186532152995
H           -3.21937785568337        1.72384897987744        0.02344255897896
H           -1.12398087820842       -3.31051295979636        0.94181586032829
H           -1.08309011792938       -3.33591470197929       -0.84682043151730
H           -2.52090519566320       -2.74377363620320        0.00845969211908
H            1.39879612094149       -3.04925965693396        0.03560506759639

          :  Hamiltonian                  GFN2-xTB          :
         :: total energy             -42.104038623185 Eh    ::
         :: gradient norm              0.001919989604 Eh/a0 ::
         :: HOMO-LUMO gap              0.069411509967 eV    ::
         :: SCC energy               -42.625042923203 Eh    ::
         :: -> dispersion             -0.022591314271 Eh    ::
         :: repulsion energy           0.520930497827 Eh    ::

    * Orbital Energies and Occupations

         #    Occupation            Energy/Eh            Energy/eV
      -------------------------------------------------------------
         1        2.0000           -0.9103083             -24.7708
       ...           ...                  ...                  ...
        25        2.0000           -0.6704814             -18.2447
        26        2.0000           -0.6682719             -18.1846
        27        2.0000           -0.6619161             -18.0117
        28        1.9999           -0.6326209             -17.2145
        29        1.9999           -0.6290736             -17.1180
        30        1.9999           -0.6272508             -17.0684
        31        1.9998           -0.6181257             -16.8201
        32        1.9997           -0.6134272             -16.6922
        33        1.9997           -0.6123002             -16.6615
        34        1.9982           -0.5843569             -15.9012
        35        1.9942           -0.5656375             -15.3918
        36        1.9904           -0.5577319             -15.1767
        37        0.9793           -0.4725596             -12.8590 (HOMO)
        38        0.8991           -0.4700088             -12.7896 (LUMO)
        39        0.1189           -0.4294957             -11.6872
        40        0.0178           -0.3985556             -10.8453
        41        0.0032           -0.3710863             -10.0978
        42        0.0000           -0.2865283              -7.7968
        43        0.0000           -0.2071496              -5.6368
        44                         -0.1959962              -5.3333
        45                         -0.1499236              -4.0796
        46                         -0.1442730              -3.9259
        47                         -0.0778711              -2.1190
        48                         -0.0532159              -1.4481
       ...                                ...                  ...
        67                          0.5496067              14.9556
      -------------------------------------------------------------
                  HL-Gap            0.0025508 Eh            0.0694 eV

     #   Z          covCN         q      C6AA      α(0)
     1   6 C        3.691    -0.093    22.477     6.784
     2   7 N        2.830     0.077    19.898     6.625
     3   6 C        3.049     0.047    26.905     8.507
     4   7 N        2.791    -0.058    22.367     7.024
     5   6 C        3.041     0.106    25.631     8.304
     6   6 C        3.108    -0.024    28.444     8.738
     7   6 C        2.775     0.254    22.735     7.809
     8   8 O        0.857    -0.364    20.967     6.139
     9   7 N        2.741    -0.031    21.847     6.942
    10   6 C        2.816    -0.023    28.562     8.756
    11   6 C        2.738     0.308    21.760     7.638
    12   8 O        0.859    -0.351    20.730     6.104
    13   7 N        2.737    -0.049    22.195     6.997
    14   6 C        3.699    -0.073    22.076     6.720
    15   1 H        0.924     0.108     1.715     2.048
    16   1 H        0.925     0.104     1.751     2.069
    17   1 H        0.925     0.134     1.506     1.919
    18   1 H        0.926     0.123     1.588     1.970
    19   1 H        0.000     0.021     6.784     4.763
    20   1 H        0.926     0.133     1.515     1.925
    21   1 H        0.926     0.130     1.537     1.939
    22   1 H        0.925     0.084     1.936     2.176
    23   1 H        0.925     0.083     1.946     2.181
    24   1 H        0.925     0.127     1.557     1.951
    25   1 H        0.860     0.229     0.971     1.544

Wiberg/Mayer (AO) data.
largest (>0.10) Wiberg bond orders for each atom

     #   Z sym  total        # sym  WBO       # sym  WBO       # sym  WBO
 ---------------------------------------------------------------------------
     1   6 C    3.917 --     2 N    0.987    16 H    0.965    17 H    0.962
                            15 H    0.955
     2   7 N    3.648 --     3 C    1.378     6 C    1.146     1 C    0.987
     3   6 C    3.819 --     2 N    1.378     4 N    1.266    18 H    0.953
     4   7 N    3.578 --     3 C    1.266     5 C    1.194    25 H    0.919
     5   6 C    3.899 --     6 C    1.328     4 N    1.194    13 N    1.190
     6   6 C    3.909 --     5 C    1.328     2 N    1.146     7 C    1.117
     7   6 C    3.868 --     8 O    1.673     6 C    1.117     9 N    0.986
     8   8 O    1.955 --     7 C    1.673     9 N    0.108
     9   7 N    3.615 --    10 C    1.346    11 C    1.015     7 C    0.986
                             8 O    0.108
    10   6 C    3.347 --     9 N    1.346    21 H    0.960    20 H    0.957
    11   6 C    3.904 --    12 O    1.707    13 N    1.088     9 N    1.015
    12   8 O    2.018 --    11 C    1.707    13 N    0.135
    13   7 N    3.566 --     5 C    1.190    11 C    1.088    14 C    0.971
                            12 O    0.135
    14   6 C    3.924 --    23 H    0.972    22 H    0.971    13 N    0.971
                            24 H    0.965
    15   1 H    0.983 --     1 C    0.955
    16   1 H    0.986 --     1 C    0.965
    17   1 H    0.982 --     1 C    0.962
    18   1 H    0.984 --     3 C    0.953
    19   1 H    0.003
    20   1 H    0.982 --    10 C    0.957
    21   1 H    0.982 --    10 C    0.960
    22   1 H    0.991 --    14 C    0.971
    23   1 H    0.991 --    14 C    0.972
    24   1 H    0.983 --    14 C    0.965
    25   1 H    0.947 --     4 N    0.919
 ---------------------------------------------------------------------------

molecular dipole:
                 x           y           z       tot (Debye)
 q only:        2.338      -1.993       0.023
   full:        2.575      -2.442       0.039       9.021

           -------------------------------------------------
          | TOTAL ENERGY              -42.104038623185 Eh   |
          | GRADIENT NORM               0.001919989604 Eh/α |
          | HOMO-LUMO GAP               0.069411509967 eV   |
           -------------------------------------------------

 * finished run on 2024/06/05 at 20:00:16.419
