   * xtb version 6.6.1 (8d0f1dd) compiled by 'conda@1efc2f54142f' on 2023-08-01
          program call               : xtb struc.xyz --opt loose --input .xc1 --gfn2

   ID    Z sym.   atoms
    1    6 C      1, 3, 5-7, 10, 11, 14
    2    7 N      2, 4, 9, 13
    3    8 O      8, 12
    4    1 H      15-25
constraining bond 11 22 to    5.1400000 Å, actual value:    3.1884051 Å

          :  Hamiltonian                  GFN2-xTB          :
 * total energy  :   -28.6466655 Eh     change       -0.6650680E-10 Eh
 * total energy  :   -35.5666603 Eh     change       -0.6919995E+01 Eh
 * total energy  :   -39.6755452 Eh     change       -0.4108885E+01 Eh
 * total energy  :   -41.5237952 Eh     change       -0.1848250E+01 Eh
 * total energy  :   -41.9352153 Eh     change       -0.4114201E+00 Eh
 * total energy  :   -41.9597669 Eh     change       -0.2455159E-01 Eh
 * total energy  :   -41.9674232 Eh     change       -0.7656313E-02 Eh
 * total energy  :   -41.9858430 Eh     change       -0.1841985E-01 Eh
 * total energy  :   -41.9982442 Eh     change       -0.1240119E-01 Eh
 * total energy  :   -42.0070303 Eh     change       -0.8786126E-02 Eh
 * total energy  :   -42.1577382 Eh     change       -0.2586785E-03 Eh
 * total energy  :   -42.1579112 Eh     change       -0.1730442E-03 Eh
 * total energy  :   -42.1580139 Eh     change       -0.1026764E-03 Eh
 * total energy  :   -42.1579316 Eh     change        0.8226823E-04 Eh
 * total energy  :   -42.1581425 Eh     change       -0.2108426E-03 Eh
 * total energy  :   -42.1581759 Eh     change       -0.3340737E-04 Eh
 * total energy  :   -42.1582359 Eh     change       -0.5998167E-04 Eh
 * total energy  :   -42.1582973 Eh     change       -0.6146448E-04 Eh
 * total energy  :   -42.1583410 Eh     change       -0.4363168E-04 Eh
   *** GEOMETRY OPTIMIZATION CONVERGED AFTER 81 ITERATIONS ***

 final structure:
================
25
 xtb: 6.6.1 (8d0f1dd)
C            3.06192416732970        1.14319090475849       -0.26786102066387
N            2.13457745518578        0.05780302888038       -0.11569259764613
C            2.44507047901609       -1.20826524550522        0.05964328178409
N            1.33942750566126       -1.95349439753477        0.17490053108449
C            0.19586535277197       -1.13322298913750        0.07197608585486
C            0.74217242238524        0.18547280673795       -0.13897356020844
C            0.13020611895758        1.42610686796935       -0.28482644744539
O            0.55120589731451        2.54700427411750       -0.34121901370197
N           -1.43605307479682        1.30100283727560       -0.40114837569083
C           -2.17612926109538        1.86804518312910        0.71912561718449
C           -1.88359757235065        0.93427433683328       -1.49711507758225
O           -2.15506015949140        0.54723140905021       -2.54096884293546
N           -1.02660344913507       -1.45968517079654        0.17494520116505
C           -1.48288998772099       -2.78920598113808        0.43791261906212
H            2.95204050339233        1.84931578363316        0.55631313978665
H            4.07806539863239        0.75606510991849       -0.28194210723145
H            2.86255300129026        1.68228856078887       -1.19376392205035
H            3.44764353128164       -1.59169498957192        0.10231407627557
H           -1.74048349747472        2.83822970205040        0.96106086819234
H           -3.22642850568259        1.99010964289130        0.45927879527377
H           -2.08315392947360        1.19338171715876        1.57226000055897
H           -0.84999596343310       -3.35846295296589        1.13245403538483
H           -1.56251883029394       -3.34775177940290       -0.49920311424594
H           -2.48316979810274       -2.70707410297833        0.86164847648749
H            1.32576370993111       -2.95242601456152        0.31005296920951

          :  Hamiltonian                  GFN2-xTB          :
         :: total energy             -42.158340956144 Eh    ::
         :: gradient norm              0.003455052418 Eh/a0 ::
         :: HOMO-LUMO gap              1.990968246483 eV    ::
         :: SCC energy               -42.728609864079 Eh    ::
         :: -> dispersion             -0.022019838263 Eh    ::
         :: repulsion energy           0.570027272238 Eh    ::

    * Orbital Energies and Occupations

         #    Occupation            Energy/Eh            Energy/eV
      -------------------------------------------------------------
         1        2.0000           -0.9312917             -25.3417
       ...           ...                  ...                  ...
        25        2.0000           -0.6715731             -18.2744
        26        2.0000           -0.6647044             -18.0875
        27        2.0000           -0.6493085             -17.6686
        28        1.9999           -0.6377460             -17.3540
        29        1.9999           -0.6341525             -17.2562
        30        1.9999           -0.6308267             -17.1657
        31        1.9995           -0.6072090             -16.5230
        32        1.9993           -0.6013748             -16.3642
        33        1.9989           -0.5939540             -16.1623
        34        1.9986           -0.5895596             -16.0427
        35        1.9978           -0.5824766             -15.8500
        36        1.9156           -0.5238434             -14.2545
        37        1.8300           -0.5120308             -13.9331 (HOMO)
        38        0.1917           -0.4388641             -11.9421 (LUMO)
        39        0.0632           -0.4202071             -11.4344
        40        0.0034           -0.3733971             -10.1607
        41        0.0021           -0.3657112              -9.9515
        42        0.0000           -0.2935426              -7.9877
        43        0.0000           -0.2461056              -6.6969
        44                         -0.1722510              -4.6872
        45                         -0.1273220              -3.4646
        46                         -0.0922967              -2.5115
        47                         -0.0766449              -2.0856
        48                         -0.0317256              -0.8633
       ...                                ...                  ...
        67                          1.0262944              27.9269
      -------------------------------------------------------------
                  HL-Gap            0.0731667 Eh            1.9910 eV

     #   Z          covCN         q      C6AA      α(0)
     1   6 C        3.693    -0.084    22.300     6.757
     2   7 N        2.813     0.066    20.091     6.657
     3   6 C        2.975     0.074    26.331     8.417
     4   7 N        2.781    -0.097    23.132     7.143
     5   6 C        2.940     0.143    24.888     8.182
     6   6 C        3.058    -0.043    29.006     8.832
     7   6 C        2.749     0.256    22.693     7.800
     8   8 O        0.857    -0.322    20.187     6.024
     9   7 N        2.711    -0.023    21.699     6.918
    10   6 C        3.694    -0.065    21.934     6.700
    11   6 C        1.795     0.329    23.871     7.896
    12   8 O        0.856    -0.112    16.695     5.478
    13   7 N        1.824    -0.258    27.567     7.780
    14   6 C        3.700    -0.032    21.310     6.602
    15   1 H        0.924     0.113     1.667     2.019
    16   1 H        0.925     0.096     1.820     2.110
    17   1 H        0.925     0.111     1.685     2.030
    18   1 H        0.926     0.110     1.698     2.038
    19   1 H        0.924     0.119     1.619     1.990
    20   1 H        0.925     0.102     1.766     2.078
    21   1 H        0.924     0.108     1.713     2.046
    22   1 H        0.923     0.043     2.410     2.428
    23   1 H        0.924     0.071     2.077     2.254
    24   1 H        0.925     0.081     1.974     2.197
    25   1 H        0.860     0.215     1.034     1.593

Wiberg/Mayer (AO) data.
largest (>0.10) Wiberg bond orders for each atom

     #   Z sym  total        # sym  WBO       # sym  WBO       # sym  WBO
 ---------------------------------------------------------------------------
     1   6 C    3.930 --     2 N    0.993    16 H    0.975    17 H    0.959
                            15 H    0.957
     2   7 N    3.668 --     3 C    1.418     6 C    1.089     1 C    0.993
                             4 N    0.107
     3   6 C    3.879 --     2 N    1.418     4 N    1.310    18 H    0.951
     4   7 N    3.536 --     3 C    1.310     5 C    1.047    25 H    0.925
                             2 N    0.107
     5   6 C    3.945 --    13 N    1.630     6 C    1.139     4 N    1.047
     6   6 C    3.834 --     7 C    1.280     5 C    1.139     2 N    1.089
                             8 O    0.115
     7   6 C    3.865 --     8 O    1.740     6 C    1.280     9 N    0.694
     8   8 O    2.115 --     7 C    1.740     6 C    0.115
     9   7 N    3.578 --    11 C    1.607    10 C    0.932     7 C    0.694
                            12 O    0.244
    10   6 C    3.892 --    20 H    0.975    21 H    0.966    19 H    0.964
                             9 N    0.932
    11   6 C    3.798 --    12 O    2.076     9 N    1.607
    12   8 O    2.419 --    11 C    2.076     9 N    0.244
    13   7 N    2.929 --     5 C    1.630    14 C    1.036
    14   6 C    3.952 --    13 N    1.036    24 H    0.967    22 H    0.962
                            23 H    0.948
    15   1 H    0.984 --     1 C    0.957
    16   1 H    0.990 --     1 C    0.975
    17   1 H    0.985 --     1 C    0.959
    18   1 H    0.986 --     3 C    0.951
    19   1 H    0.985 --    10 C    0.964
    20   1 H    0.988 --    10 C    0.975
    21   1 H    0.988 --    10 C    0.966
    22   1 H    0.981 --    14 C    0.962
    23   1 H    0.975 --    14 C    0.948
    24   1 H    0.982 --    14 C    0.967
    25   1 H    0.953 --     4 N    0.925
 ---------------------------------------------------------------------------

molecular dipole:
                 x           y           z       tot (Debye)
 q only:        0.939      -0.616       0.278
   full:        1.219      -1.185       0.315       4.394

           -------------------------------------------------
          | TOTAL ENERGY              -42.158340956144 Eh   |
          | GRADIENT NORM               0.003455052418 Eh/α |
          | HOMO-LUMO GAP               1.990968246483 eV   |
           -------------------------------------------------

 * finished run on 2024/06/05 at 19:59:20.487
