   * xtb version 6.6.1 (8d0f1dd) compiled by 'conda@1efc2f54142f' on 2023-08-01
          program call               : xtb xtbopt.xyz --opt crude --input .xc2 --gfn2

   ID    Z sym.   atoms
    1    6 C      1, 3, 5-7, 10, 11, 14
    2    7 N      2, 4, 9, 13
    3    8 O      8, 12
    4    1 H      15-25

          :  Hamiltonian                  GFN2-xTB          :
 * total energy  :   -41.9682513 Eh     change       -0.1364242E-11 Eh
   *** GEOMETRY OPTIMIZATION CONVERGED AFTER 1 ITERATIONS ***

 final structure:
================
25
 xtb: 6.6.1 (8d0f1dd)
C            4.31855845354416        1.32848501989434       -0.00492973727478
N            3.05696683369907        0.61597868732684        0.07204967925745
C            3.10066778160436       -0.73385455495259       -0.06914144960809
N            2.01812686808875       -1.44149590837436        0.00140438651275
C            1.05216865823531       -2.05051107481556        0.26056889049903
C            1.92860486173600        1.23116777504165        0.28602086660126
C            1.22196268928942        2.26363341168725        0.46635541890371
O            0.35085713299405        3.02688531586398        0.63826412284249
N           -2.23745445121575        2.74561845405079       -0.84770312207261
C           -3.36623993158558        2.58967164521287       -0.36125190948481
C           -2.24829613551948       -1.38770306721666        0.17971240771845
O           -2.23502715002097       -0.23414300641758        0.29223344113611
N           -1.99359515613377       -2.54235760542025        0.03274304771914
C           -2.55875957624239       -3.84848806255872        0.00075990768489
H            4.94072167346661        1.08120010618407        0.85826058405943
H            4.85587829843788        1.05088378638613       -0.91207237404738
H            4.13366123278615        2.39999623019167       -0.01021307199672
H            4.03586031599052       -1.22136700832829       -0.27766245141365
H           -1.44762546506193        3.00278865609566       -0.26049242689678
H           -4.18459448090968        2.32140180303813       -1.01958869972368
H           -3.62448974033754        2.70181605981008        0.69643864392009
H           -2.09387951687054       -4.45041743164230        0.78344400553706
H           -2.34456603114819       -4.29814938242010       -0.96894346072903
H           -3.63614903608969       -3.82590082112892        0.15745133865003
H            0.11707338535348       -2.50690048589847        0.03746358011335

          :  Hamiltonian                  GFN2-xTB          :
         :: total energy             -41.968251327086 Eh    ::
         :: gradient norm              0.003707002619 Eh/a0 ::
         :: HOMO-LUMO gap              0.775167629242 eV    ::
         :: SCC energy               -42.666362613880 Eh    ::
         :: -> dispersion             -0.015824217359 Eh    ::
         :: repulsion energy           0.698058957117 Eh    ::

    * Orbital Energies and Occupations

         #    Occupation            Energy/Eh            Energy/eV
      -------------------------------------------------------------
         1        2.0000           -0.8638251             -23.5059
       ...           ...                  ...                  ...
        25        2.0000           -0.6491942             -17.6655
        26        2.0000           -0.6423098             -17.4781
        27        2.0000           -0.6318142             -17.1925
        28        2.0000           -0.6233026             -16.9609
        29        2.0000           -0.6189716             -16.8431
        30        2.0000           -0.6158743             -16.7588
        31        2.0000           -0.5968835             -16.2420
        32        2.0000           -0.5924070             -16.1202
        33        1.9993           -0.5450421             -14.8314
        34        1.9971           -0.5342314             -14.5372
        35        1.9959           -0.5313757             -14.4595
        36        1.9896           -0.5240342             -14.2597
        37        1.7243           -0.4969230             -13.5220 (HOMO)
        38        0.2924           -0.4684361             -12.7468 (LUMO)
        39        0.0013           -0.4245859             -11.5536
        40        0.0000           -0.3621164              -9.8537
        41        0.0000           -0.3609052              -9.8207
        42                         -0.3187272              -8.6730
        43                         -0.3101009              -8.4383
        44                         -0.2861189              -7.7857
        45                         -0.2545121              -6.9256
        46                         -0.1525460              -4.1510
        47                         -0.0919043              -2.5008
        48                         -0.0646699              -1.7598
       ...                                ...                  ...
        67                          1.1754932              31.9868
      -------------------------------------------------------------
                  HL-Gap            0.0284869 Eh            0.7752 eV

     #   Z          covCN         q      C6AA      α(0)
     1   6 C        3.713    -0.091    22.382     6.760
     2   7 N        2.739     0.139    18.888     6.455
     3   6 C        2.818     0.014    27.687     8.621
     4   7 N        1.831     0.123    19.763     6.588
     5   6 C        1.845     0.012    30.841     8.971
     6   6 C        1.952    -0.106    34.002     9.417
     7   6 C        1.838     0.233    25.731     8.195
     8   8 O        0.856    -0.231    18.587     5.780
     9   7 N        1.770    -0.188    25.851     7.529
    10   6 C        2.760     0.059    26.652     8.454
    11   6 C        1.771     0.310    24.256     7.962
    12   8 O        0.856    -0.286    19.539     5.926
    13   7 N        1.820    -0.197    26.098     7.569
    14   6 C        3.687    -0.028    21.281     6.604
    15   1 H        0.924     0.103     1.760     2.074
    16   1 H        0.924     0.100     1.784     2.089
    17   1 H        0.925     0.103     1.758     2.073
    18   1 H        0.926     0.115     1.650     2.009
    19   1 H        0.860     0.211     1.049     1.605
    20   1 H        0.925     0.103     1.759     2.074
    21   1 H        0.924     0.083     1.950     2.184
    22   1 H        0.924     0.078     2.004     2.214
    23   1 H        0.925     0.079     1.988     2.205
    24   1 H        0.925     0.072     2.066     2.248
    25   1 H        0.927     0.192     1.141     1.671

Wiberg/Mayer (AO) data.
largest (>0.10) Wiberg bond orders for each atom

     #   Z sym  total        # sym  WBO       # sym  WBO       # sym  WBO
 ---------------------------------------------------------------------------
     1   6 C    3.939 --    17 H    0.976     2 N    0.971    16 H    0.963
                            15 H    0.957
     2   7 N    3.664 --     6 C    1.372     3 C    1.209     1 C    0.971
     3   6 C    3.871 --     4 N    1.316     2 N    1.209    18 H    0.929
                             5 C    0.177
     4   7 N    3.724 --     5 C    2.355     3 C    1.316
     5   6 C    3.688 --     4 N    2.355    25 H    0.905     3 C    0.177
     6   6 C    3.716 --     7 C    1.869     2 N    1.372     8 O    0.230
     7   6 C    3.863 --     8 O    1.877     6 C    1.869
     8   8 O    2.293 --     7 C    1.877     6 C    0.230
     9   7 N    2.981 --    10 C    2.058    19 H    0.893
    10   6 C    3.910 --     9 N    2.058    20 H    0.937    21 H    0.913
    11   6 C    3.942 --    13 N    1.981    12 O    1.887
    12   8 O    2.317 --    11 C    1.887    13 N    0.379
    13   7 N    3.393 --    11 C    1.981    14 C    0.997    12 O    0.379
    14   6 C    3.951 --    13 N    0.997    24 H    0.970    23 H    0.969
                            22 H    0.969
    15   1 H    0.983 --     1 C    0.957
    16   1 H    0.985 --     1 C    0.963
    17   1 H    0.988 --     1 C    0.976
    18   1 H    0.986 --     3 C    0.929
    19   1 H    0.936 --     9 N    0.893
    20   1 H    0.960 --    10 C    0.937
    21   1 H    0.929 --    10 C    0.913
    22   1 H    0.993 --    14 C    0.969
    23   1 H    0.993 --    14 C    0.969
    24   1 H    0.994 --    14 C    0.970
    25   1 H    0.958 --     5 C    0.905
 ---------------------------------------------------------------------------

molecular dipole:
                 x           y           z       tot (Debye)
 q only:        2.316      -1.298      -0.169
   full:        2.137      -1.378       0.081       6.466

           -------------------------------------------------
          | TOTAL ENERGY              -41.968251327086 Eh   |
          | GRADIENT NORM               0.003707002619 Eh/α |
          | HOMO-LUMO GAP               0.775167629242 eV   |
           -------------------------------------------------

 * finished run on 2024/06/05 at 19:57:58.745
