   * xtb version 6.6.1 (8d0f1dd) compiled by 'conda@1efc2f54142f' on 2023-08-01
          program call               : xtb struc.xyz --opt loose --input .xc1 --gfn2

   ID    Z sym.   atoms
    1    6 C      1, 3, 5-7, 10, 11, 14
    2    7 N      2, 4, 9, 13
    3    8 O      8, 12
    4    1 H      15-25
constraining bond 8 20 to    4.6333300 Å, actual value:    3.4833385 Å

          :  Hamiltonian                  GFN2-xTB          :
 * total energy  :   -44.6091898 Eh     change       -0.6650680E-10 Eh
 * total energy  :   -48.5511709 Eh     change       -0.3941981E+01 Eh
 * total energy  :   -54.3420566 Eh     change       -0.5790886E+01 Eh
 * total energy  :   -62.0971365 Eh     change       -0.7755080E+01 Eh
 * total energy  :   -71.0792193 Eh     change       -0.8982083E+01 Eh
 * total energy  :   -45.7797123 Eh     change        0.2529951E+02 Eh
 * total energy  :   -67.4211475 Eh     change       -0.2164144E+02 Eh
 * total energy  :   -67.7811388 Eh     change       -0.3599913E+00 Eh
 * total energy  :   -68.8881346 Eh     change       -0.1106996E+01 Eh
 * total energy  :   -71.4428579 Eh     change       -0.2554723E+01 Eh
 * total energy  :   -72.2068738 Eh     change       -0.4944449E-04 Eh
 * total energy  :   -72.2069246 Eh     change       -0.5083415E-04 Eh
 * total energy  :   -72.2069970 Eh     change       -0.7235539E-04 Eh
 * total energy  :   -72.2070847 Eh     change       -0.8775753E-04 Eh
 * total energy  :   -72.2071729 Eh     change       -0.8820388E-04 Eh
 * total energy  :   -72.2072721 Eh     change       -0.9920407E-04 Eh
 * total energy  :   -72.2047209 Eh     change        0.2551181E-02 Eh
 * total energy  :   -72.2073168 Eh     change       -0.2595890E-02 Eh
 * total energy  :   -72.2073308 Eh     change       -0.1397722E-04 Eh
   *** GEOMETRY OPTIMIZATION CONVERGED AFTER 70 ITERATIONS ***

 final structure:
================
25
 xtb: 6.6.1 (8d0f1dd)
C            3.27134963099385        1.05152404510956       -0.05826594076589
N            2.32421682102577       -0.02815445945557       -0.04670796384203
C            2.58443121422530       -1.33150084821571       -0.03064610545664
N            1.42444026198209       -2.03500782488665        0.01419567805190
C            0.39872617441851       -1.14454932342174        0.03108170240837
C            0.95784171937551        0.13700482664117       -0.00997668426743
C            0.16823936591650        1.29850961144038       -0.03190359246967
O           -1.49533642887932        3.31469518933402       -0.51646091509573
N           -1.14268099619746        1.03798988115022        0.02618657131015
C           -2.07285591222536        2.19152459489475        0.02884323408578
C           -1.77317080189852       -0.21058423887931        0.10556946658049
O           -2.96488042865328       -0.32777108595226        0.18017183542564
N           -0.92920431779330       -1.33699623189783        0.08239529148768
C           -1.52341845368411       -2.65902947828565        0.12054642741210
H            3.72182765530087        1.17362312622381        0.92829305060820
H            4.06031905771694        0.86055734781125       -0.78400046293773
H            2.74078803060906        1.96566892914205       -0.31762714034496
H            3.56048706360921       -1.77291674219324       -0.05324162162962
H           -2.37511268768422        2.36174925247769        1.07703989516809
H           -1.10401951505732        3.37703379397070       -0.60645115119735
H           -2.97024912839686        1.88818455634033       -0.53132776570720
H           -1.24050014602095       -3.17885914412931        1.03656242967802
H           -1.21606599750469       -3.23797258553115       -0.75050671531653
H           -2.60540808093123       -2.53315215546862        0.10438707956512
H            1.36066741385219       -3.04333249461963        0.03301501514890

          :  Hamiltonian                  GFN2-xTB          :
         :: total energy             -72.207330804211 Eh    ::
         :: gradient norm              0.003638484118 Eh/a0 ::
         :: HOMO-LUMO gap              1.798261594345 eV    ::
         :: SCC energy               -42.702318124560 Eh    ::
         :: -> dispersion             -0.022165701964 Eh    ::
         :: repulsion energy           2.397761193403 Eh    ::

    * Orbital Energies and Occupations

         #    Occupation            Energy/Eh            Energy/eV
      -------------------------------------------------------------
         1        2.0000           -0.9050622             -24.6280
       ...           ...                  ...                  ...
        25        2.0000           -0.6700977             -18.2343
        26        2.0000           -0.6593903             -17.9429
        27        2.0000           -0.6473144             -17.6143
        28        1.9999           -0.6336416             -17.2423
        29        1.9999           -0.6304560             -17.1556
        30        1.9998           -0.6250501             -17.0085
        31        1.9998           -0.6186386             -16.8340
        32        1.9994           -0.6049091             -16.4604
        33        1.9988           -0.5922547             -16.1161
        34        1.9970           -0.5781414             -15.7320
        35        1.9893           -0.5579162             -15.1817
        36        1.9631           -0.5380389             -14.6408
        37        1.7916           -0.5091816             -13.8555 (HOMO)
        38        0.2338           -0.4430967             -12.0573 (LUMO)
        39        0.0244           -0.4055141             -11.0346
        40        0.0033           -0.3736752             -10.1682
        41        0.0000           -0.2854085              -7.7664
        42                         -0.2027598              -5.5174
        43                         -0.1918846              -5.2214
        44                         -0.1378949              -3.7523
        45                         -0.1240316              -3.3751
        46                         -0.0731933              -1.9917
        47                         -0.0458817              -1.2485
        48                         -0.0346728              -0.9435
       ...                                ...                  ...
        67                          5.2822241             143.7366
      -------------------------------------------------------------
                  HL-Gap            0.0660849 Eh            1.7983 eV

     #   Z          covCN         q      C6AA      α(0)
     1   6 C        3.692    -0.089    22.398     6.772
     2   7 N        2.828     0.068    20.062     6.652
     3   6 C        3.052     0.050    26.831     8.495
     4   7 N        2.784    -0.063    22.452     7.037
     5   6 C        3.048     0.113    25.471     8.277
     6   6 C        3.123     0.021    27.350     8.564
     7   6 C        1.919    -0.120    34.460     9.480
     8   8 O        1.662    -0.418    21.191     6.214
     9   7 N        2.759    -0.034    21.900     6.950
    10   6 C        3.670     0.125    18.766     6.210
    11   6 C        2.726     0.309    21.744     7.634
    12   8 O        0.859    -0.370    21.093     6.158
    13   7 N        2.738    -0.045    22.103     6.983
    14   6 C        3.697    -0.071    22.029     6.714
    15   1 H        0.924     0.107     1.722     2.052
    16   1 H        0.925     0.103     1.758     2.073
    17   1 H        0.925     0.122     1.598     1.977
    18   1 H        0.926     0.117     1.636     2.000
    19   1 H        0.923     0.090     1.875     2.142
    20   1 H        0.849     0.367     0.546     1.158
    21   1 H        0.923     0.104     1.746     2.067
    22   1 H        0.924     0.083     1.949     2.183
    23   1 H        0.925     0.081     1.967     2.193
    24   1 H        0.925     0.125     1.575     1.962
    25   1 H        0.860     0.223     0.994     1.562

Wiberg/Mayer (AO) data.
largest (>0.10) Wiberg bond orders for each atom

     #   Z sym  total        # sym  WBO       # sym  WBO       # sym  WBO
 ---------------------------------------------------------------------------
     1   6 C    3.925 --     2 N    0.990    17 H    0.968    16 H    0.966
                            15 H    0.956
     2   7 N    3.645 --     3 C    1.385     6 C    1.136     1 C    0.990
     3   6 C    3.805 --     2 N    1.385     4 N    1.256    18 H    0.955
     4   7 N    3.584 --     3 C    1.256     5 C    1.203    25 H    0.920
     5   6 C    3.906 --     6 C    1.284    13 N    1.223     4 N    1.203
     6   6 C    3.899 --     5 C    1.284     7 C    1.236     2 N    1.136
     7   6 C    2.783 --     9 N    1.351     6 C    1.236
     8   8 O    2.011 --    10 C    1.060    20 H    0.859
     9   7 N    3.599 --     7 C    1.351    11 C    1.072    10 C    0.928
                            12 O    0.116
    10   6 C    3.908 --     8 O    1.060    21 H    0.941    19 H    0.934
                             9 N    0.928
    11   6 C    3.937 --    12 O    1.706     9 N    1.072    13 N    1.058
    12   8 O    2.045 --    11 C    1.706    13 N    0.133     9 N    0.116
    13   7 N    3.564 --     5 C    1.223    11 C    1.058    14 C    0.974
                            12 O    0.133
    14   6 C    3.926 --    13 N    0.974    23 H    0.971    22 H    0.970
                            24 H    0.965
    15   1 H    0.984 --     1 C    0.956
    16   1 H    0.987 --     1 C    0.966
    17   1 H    0.985 --     1 C    0.968
    18   1 H    0.985 --     3 C    0.955
    19   1 H    0.977 --    10 C    0.934
    20   1 H    0.866 --     8 O    0.859
    21   1 H    0.979 --    10 C    0.941
    22   1 H    0.991 --    14 C    0.970
    23   1 H    0.991 --    14 C    0.971
    24   1 H    0.984 --    14 C    0.965
    25   1 H    0.949 --     4 N    0.920
 ---------------------------------------------------------------------------

molecular dipole:
                 x           y           z       tot (Debye)
 q only:        2.773      -1.487       0.034
   full:        3.123      -2.345       0.066       9.928

           -------------------------------------------------
          | TOTAL ENERGY              -72.207330804211 Eh   |
          | GRADIENT NORM               0.003638484118 Eh/α |
          | HOMO-LUMO GAP               1.798261594345 eV   |
           -------------------------------------------------

 * finished run on 2024/06/05 at 19:58:35.102
