   * xtb version 6.6.1 (8d0f1dd) compiled by 'conda@1efc2f54142f' on 2023-08-01
          program call               : xtb struc.xyz --opt loose --input .xc1 --gfn2

   ID    Z sym.   atoms
    1    6 C      1, 3, 5-7, 10, 11, 14
    2    7 N      2, 4, 9, 13
    3    8 O      8, 12
    4    1 H      15-25
constraining bond 2 25 to    5.0600000 Å, actual value:    3.1552271 Å

          :  Hamiltonian                  GFN2-xTB          :
 * total energy  :   -16.3350766 Eh     change       -0.6650680E-10 Eh
 * total energy  :   -31.0245583 Eh     change       -0.1468948E+02 Eh
 * total energy  :   -38.1371430 Eh     change       -0.7112585E+01 Eh
 * total energy  :   -41.1343249 Eh     change       -0.2997182E+01 Eh
 * total energy  :   -41.8072498 Eh     change       -0.6729250E+00 Eh
 * total energy  :   -41.8525393 Eh     change       -0.4528948E-01 Eh
 * total energy  :   -41.8685804 Eh     change       -0.1604112E-01 Eh
 * total energy  :   -41.8896065 Eh     change       -0.2102610E-01 Eh
 * total energy  :   -41.9043045 Eh     change       -0.1469792E-01 Eh
 * total energy  :   -41.9323466 Eh     change       -0.2804213E-01 Eh
 * total energy  :   -42.1315764 Eh     change       -0.5258576E-03 Eh
 * total energy  :   -42.1317575 Eh     change       -0.1810441E-03 Eh
 * total energy  :   -42.1318247 Eh     change       -0.6722107E-04 Eh
 * total energy  :   -42.1318664 Eh     change       -0.4169603E-04 Eh
 * total energy  :   -42.1319023 Eh     change       -0.3586650E-04 Eh
 * total energy  :   -42.1319346 Eh     change       -0.3233259E-04 Eh
 * total energy  :   -42.1319756 Eh     change       -0.4101327E-04 Eh
 * total energy  :   -42.1320133 Eh     change       -0.3765144E-04 Eh
 * total energy  :   -42.1320571 Eh     change       -0.4384049E-04 Eh
   *** GEOMETRY OPTIMIZATION CONVERGED AFTER 32 ITERATIONS ***

 final structure:
================
25
 xtb: 6.6.1 (8d0f1dd)
C            3.23484777612480        1.22997392388573        0.01655621712131
N            2.26380209510609        0.17425493884443        0.00332018294885
C            2.49918985110048       -1.15965157157970        0.00084897514792
N            1.39855664814819       -1.87762387651712       -0.00012966421629
C            0.38376745358941       -0.98598190638651        0.00266942685408
C            0.91039480586091        0.31631959749481        0.00581085859777
C            0.06191015357988        1.48294297439654       -0.00194079301398
O            0.43968889526493        2.63366140674405       -0.01129806561482
N           -1.28798420573338        1.13619673246820       -0.00012319447353
C           -2.25858287231719        2.21596743092323       -0.00325804608577
C           -1.83063199092756       -0.14362700163374        0.00060604335077
O           -3.02102313605214       -0.31587150767586        0.00023887692688
N           -0.93967562309950       -1.22403586518126        0.00100539768126
C           -1.46517866576736       -2.56833620218279       -0.00392149944272
H            3.76454306624665        1.24551608836600        0.97180493307167
H            3.96349477383784        1.08102757213912       -0.78126034559418
H            2.72600011949263        2.18370863222359       -0.12210887304871
H            3.48513133768249       -1.58412239810610       -0.00097926613090
H           -1.71858731372960        3.16134941857173        0.00319234805135
H           -2.89143895356419        2.14693351689682       -0.88970720355041
H           -2.90313762020881        2.14041315911448        0.87410148352229
H           -1.10962216715648       -3.10744500445989        0.87533713986919
H           -1.12762402829633       -3.09458646138569       -0.89806327123598
H           -2.55316485072362       -2.51074652851467        0.00667271303805
H            1.13575596564336       -4.75799852684779       -0.01820275587394

          :  Hamiltonian                  GFN2-xTB          :
         :: total energy             -42.132057105077 Eh    ::
         :: gradient norm              0.003436611688 Eh/a0 ::
         :: HOMO-LUMO gap              0.707406788699 eV    ::
         :: SCC energy               -42.643050903734 Eh    ::
         :: -> dispersion             -0.022536208080 Eh    ::
         :: repulsion energy           0.510898535842 Eh    ::

    * Orbital Energies and Occupations

         #    Occupation            Energy/Eh            Energy/eV
      -------------------------------------------------------------
         1        2.0000           -0.8935105             -24.3137
       ...           ...                  ...                  ...
        25        1.9995           -0.6672862             -18.1578
        26        1.9992           -0.6580869             -17.9075
        27        1.9983           -0.6467157             -17.5980
        28        1.9975           -0.6409627             -17.4415
        29        1.9950           -0.6299039             -17.1406
        30        1.9889           -0.6172815             -16.7971
        31        1.9877           -0.6155818             -16.7508
        32        1.9774           -0.6059468             -16.4887
        33        1.9650           -0.5989186             -16.2974
        34        1.9162           -0.5846677             -15.9096
        35        1.8836           -0.5791956             -15.7607
        36        1.8777           -0.5783626             -15.7380
        37        1.5755           -0.5558864             -15.1264 (HOMO)
        38        0.8363           -0.5298897             -14.4190 (LUMO)
        39        0.0029           -0.4318386             -11.7509
        40        0.0002           -0.3906096             -10.6290
        41        0.0001           -0.3745501             -10.1920
        42        0.0000           -0.2958514              -8.0505
        43                         -0.2069293              -5.6308
        44                         -0.1585040              -4.3131
        45                         -0.1384592              -3.7677
        46                         -0.0812340              -2.2105
        47                         -0.0598664              -1.6290
        48                         -0.0384656              -1.0467
       ...                                ...                  ...
        67                          0.5334038              14.5147
      -------------------------------------------------------------
                  HL-Gap            0.0259967 Eh            0.7074 eV

     #   Z          covCN         q      C6AA      α(0)
     1   6 C        3.689    -0.083    22.275     6.755
     2   7 N        2.828     0.053    20.316     6.694
     3   6 C        3.185     0.098    25.397     8.223
     4   7 N        1.898    -0.207    26.327     7.607
     5   6 C        3.162     0.133    24.787     8.138
     6   6 C        3.121    -0.006    28.001     8.666
     7   6 C        2.764     0.273    22.378     7.747
     8   8 O        0.858    -0.331    20.348     6.048
     9   7 N        2.746    -0.068    22.557     7.054
    10   6 C        3.708    -0.062    21.847     6.681
    11   6 C        2.728     0.317    21.616     7.611
    12   8 O        0.860    -0.330    20.335     6.046
    13   7 N        2.738    -0.019    21.626     6.907
    14   6 C        3.700    -0.073    22.070     6.719
    15   1 H        0.924     0.110     1.694     2.035
    16   1 H        0.924     0.108     1.713     2.047
    17   1 H        0.925     0.127     1.562     1.954
    18   1 H        0.926     0.112     1.683     2.028
    19   1 H        0.925     0.123     1.588     1.971
    20   1 H        0.924     0.116     1.649     2.008
    21   1 H        0.924     0.116     1.648     2.007
    22   1 H        0.924     0.110     1.698     2.038
    23   1 H        0.924     0.110     1.698     2.037
    24   1 H        0.925     0.129     1.546     1.944
    25   1 H        0.000     0.146     3.539     3.440

Wiberg/Mayer (AO) data.
largest (>0.10) Wiberg bond orders for each atom

     #   Z sym  total        # sym  WBO       # sym  WBO       # sym  WBO
 ---------------------------------------------------------------------------
     1   6 C    3.902 --     2 N    0.995    17 H    0.959    16 H    0.955
                            15 H    0.948
     2   7 N    3.637 --     3 C    1.268     6 C    1.218     1 C    0.995
     3   6 C    3.866 --     4 N    1.487     2 N    1.268    18 H    0.954
     4   7 N    2.971 --     3 C    1.487     5 C    1.266
     5   6 C    3.898 --     4 N    1.266     6 C    1.253    13 N    1.209
     6   6 C    3.796 --     5 C    1.253     2 N    1.218     7 C    1.076
     7   6 C    3.946 --     8 O    1.671     9 N    1.102     6 C    1.076
     8   8 O    1.958 --     7 C    1.671     9 N    0.126
     9   7 N    3.502 --    11 C    1.106     7 C    1.102    10 C    0.979
                             8 O    0.126    12 O    0.117
    10   6 C    3.867 --     9 N    0.979    19 H    0.959    21 H    0.943
                            20 H    0.943
    11   6 C    3.951 --    12 O    1.686     9 N    1.106    13 N    1.068
    12   8 O    1.976 --    11 C    1.686     9 N    0.117    13 N    0.102
    13   7 N    3.483 --     5 C    1.209    11 C    1.068    14 C    0.983
                            12 O    0.102
    14   6 C    3.888 --    13 N    0.983    24 H    0.961    22 H    0.949
                            23 H    0.948
    15   1 H    0.974 --     1 C    0.948
    16   1 H    0.977 --     1 C    0.955
    17   1 H    0.978 --     1 C    0.959
    18   1 H    0.985 --     3 C    0.954
    19   1 H    0.978 --    10 C    0.959
    20   1 H    0.960 --    10 C    0.943
    21   1 H    0.961 --    10 C    0.943
    22   1 H    0.966 --    14 C    0.949
    23   1 H    0.965 --    14 C    0.948
    24   1 H    0.980 --    14 C    0.961
    25   1 H    0.020
 ---------------------------------------------------------------------------

molecular dipole:
                 x           y           z       tot (Debye)
 q only:        1.483      -1.552       0.009
   full:        1.753      -1.435       0.014       5.758

           -------------------------------------------------
          | TOTAL ENERGY              -42.132057105077 Eh   |
          | GRADIENT NORM               0.003436611688 Eh/α |
          | HOMO-LUMO GAP               0.707406788699 eV   |
           -------------------------------------------------

 * finished run on 2024/06/05 at 20:00:07.980
