   * xtb version 6.6.1 (8d0f1dd) compiled by 'conda@1efc2f54142f' on 2023-08-01
          program call               : xtb struc.xyz --opt loose --input .xc1 --gfn2

   ID    Z sym.   atoms
    1    7 N      1, 17
    2    6 C      2-6, 8, 9, 11-16, 18-23, 25, 26, 28-33
    3    8 O      7, 10, 24, 27
    4    1 H      34-72
constraining bond 2 46 to    4.7133300 Å, actual value:    3.9482415 Å

          :  Hamiltonian                  GFN2-xTB          :
 * total energy  :   -99.5086489 Eh     change       -0.4035485E-08 Eh
 * total energy  :   -99.6745878 Eh     change       -0.1659389E+00 Eh
 * total energy  :   -99.8815515 Eh     change       -0.2069636E+00 Eh
 * total energy  :  -100.1519546 Eh     change       -0.2704032E+00 Eh
 * total energy  :  -100.5489394 Eh     change       -0.3969848E+00 Eh
 * total energy  :  -101.1205249 Eh     change       -0.5715855E+00 Eh
 * total energy  :  -101.2076890 Eh     change       -0.8716414E-01 Eh
 * total energy  :  -101.4865894 Eh     change       -0.2789003E+00 Eh
 * total energy  :  -101.6577903 Eh     change       -0.1712009E+00 Eh
 * total energy  :  -101.7986696 Eh     change       -0.1408794E+00 Eh
 * total energy  :  -102.0277626 Eh     change       -0.8692260E-04 Eh
 * total energy  :  -102.0278736 Eh     change       -0.1109751E-03 Eh
 * total energy  :  -102.0280030 Eh     change       -0.1293433E-03 Eh
 * total energy  :  -102.0281207 Eh     change       -0.1177330E-03 Eh
 * total energy  :  -102.0282079 Eh     change       -0.8719707E-04 Eh
 * total energy  :  -102.0282790 Eh     change       -0.7107130E-04 Eh
 * total energy  :  -102.0283471 Eh     change       -0.6811349E-04 Eh
 * total energy  :  -102.0284163 Eh     change       -0.6922950E-04 Eh
 * total energy  :  -102.0284388 Eh     change       -0.2249177E-04 Eh
   *** GEOMETRY OPTIMIZATION CONVERGED AFTER 68 ITERATIONS ***

 final structure:
================
72
 xtb: 6.6.1 (8d0f1dd)
N           -2.83353398676242        2.19935116349124        2.80303823886363
C           -2.16127412320051        2.17523918288390        1.55117580441317
C           -3.12438209985463        1.81327628646222        0.34944735083358
C           -3.79005039106415        0.46011850806073        0.49177626757830
C           -4.48070923194367       -0.07952076922753       -0.59501308606153
C           -5.10344131028399       -1.31601742341378       -0.52115400279933
O           -5.78411653838800       -1.90590241208240       -1.52415202326328
C           -5.96520889841460       -1.21843497182352       -2.73934412455041
C           -5.04242468087183       -2.05937923148539        0.69105407294151
O           -5.66166069077712       -3.25358171434600        0.67432641885820
C           -5.66529707768478       -4.04337141816214        1.84136916313364
C           -4.37335274703106       -1.50500894354088        1.77352833860699
C           -3.75904465511352       -0.26724747744605        1.67539408983927
C           -2.19919965562178        1.80957781952130       -0.90350414789763
C           -1.29788546446470        0.62236326516834       -0.92155730648317
C            0.00269882803704        0.69195038318059       -0.57970585242364
N            0.86626758029151       -0.34960689988549       -0.48548167016928
C            2.25951200465562       -0.12792276601188       -0.21397212637356
C            3.12606038141245       -0.12590579662571       -1.49268970068124
C            4.56994448993721        0.05352039454179       -1.12785066543165
C            5.18438743239027        1.29450202635561       -1.21611006037736
C            6.50671466299759        1.46240579094007       -0.83753898505445
C            7.24458768964102        0.39124591455075       -0.35041583535446
O            8.52502945401073        0.43762247847028        0.05419147112845
C            9.22731077167573        1.65757527104764       -0.00793307196065
C            6.62380459198167       -0.88774433593851       -0.25581741733656
O            7.40897552403144       -1.87022815114760        0.22173401058328
C            6.88912865248123       -3.17247865142964        0.35042840457475
C            5.30091927733198       -1.02993411441611       -0.64569948098471
C            0.44292428451200       -1.68137773228256       -0.83193639546327
C           -4.22905729134494        2.89723420187943        0.22634467205675
C           -5.21102746467704        2.76791560928798        1.38542101621553
C           -3.68335327418716        4.32248726739903        0.15529322787676
H           -4.54092416784448        0.47639549356868       -1.51629703213701
H           -6.50425512745990       -0.27780684005750       -2.59097820404685
H           -6.56210669818763       -1.88081299967079       -3.36313803074328
H           -5.01021763975579       -1.01892154061591       -3.23639306105397
H           -6.16733782410900       -3.53353615525766        2.66892428681071
H           -6.21863905794611       -4.94432619004148        1.58341629854448
H           -4.64904347012330       -4.31502003329991        2.14339722028928
H           -4.33069548572107       -2.03281197727908        2.71222530770894
H           -3.28454780868891        0.15024285728960        2.54768603451498
H           -2.81971263017592        1.81082249573654       -1.80085718205126
H           -1.60332665849654        2.72291934279983       -0.90709627029141
H           -1.75532669254201       -0.31959668264573       -1.17569415159121
H           -1.78371410068381        2.79486494495530        1.38799294167338
H           -1.50026386766933        1.27350668184856        1.58938567916550
H            0.43746041027771        1.65140156978058       -0.33090739704273
H            2.61955484775930       -0.91304563173084        0.45809551536569
H            2.37805254686877        0.83124058844879        0.29453330165432
H            2.79556278947624        0.68439364609929       -2.14353841635526
H            2.98656875779806       -1.07104863160556       -2.01970550420073
H            4.63342194794105        2.14278845746757       -1.59238988540019
H            6.95845386254103        2.43693999669661       -0.92550047574608
H            8.75938627218416        2.42128598441810        0.62052077862683
H            9.30136748530425        2.02465653697877       -1.03586385135916
H           10.22427768648568        1.43985220213218        0.37050710200041
H            7.70189986857073       -3.77279921643769        0.75476508199722
H            6.04138342257143       -3.19911712127383        1.04229826797199
H            6.58528911496586       -3.58035470677824       -0.61854384053200
H            4.82538601117523       -1.99655526880772       -0.58705670260284
H            0.19273548006557       -1.75733006404759       -1.89413543838757
H           -0.43877270224078       -1.95834405879909       -0.25014013697736
H            1.24000603018654       -2.38604019340689       -0.60891900121974
H           -4.76615195604825        2.69971908464073       -0.70886811205938
H           -4.63194081848037        2.64050676800061        2.31160780810697
H           -5.84859351970072        1.89513044416274        1.27357291156037
H           -5.83152303591627        3.65527039845874        1.47354372758968
H           -3.20685719792374        4.61010587756786        1.08839090871016
H           -2.97290920722168        4.44429454754064       -0.65795975185378
H           -4.50624832326886        5.01158657905960       -0.01968050736395
H           -2.65442899060970        3.04095958262581        3.33941802853666

          :  Hamiltonian                  GFN2-xTB          :
         :: total energy            -102.028438798649 Eh    ::
         :: gradient norm              0.001643835647 Eh/a0 ::
         :: HOMO-LUMO gap              0.600789219112 eV    ::
         :: SCC energy              -100.768991035364 Eh    ::
         :: -> dispersion             -0.072729581460 Eh    ::
         :: repulsion energy           1.553172320191 Eh    ::

    * Orbital Energies and Occupations

         #    Occupation            Energy/Eh            Energy/eV
      -------------------------------------------------------------
         1        2.0000           -0.8116373             -22.0858
       ...           ...                  ...                  ...
        78        1.9974           -0.5320283             -14.4772
        79        1.9971           -0.5305759             -14.4377
        80        1.9951           -0.5219378             -14.2027
        81        1.9942           -0.5193834             -14.1331
        82        1.9938           -0.5181445             -14.0994
        83        1.9934           -0.5173127             -14.0768
        84        1.9900           -0.5105960             -13.8940
        85        1.9660           -0.4910807             -13.3630
        86        1.9581           -0.4877464             -13.2723
        87        1.8183           -0.4633295             -12.6078
        88        1.7969           -0.4613735             -12.5546
        89        1.7381           -0.4568249             -12.4308
        90        1.6667           -0.4523392             -12.3088 (HOMO)
        91        1.1071           -0.4302607             -11.7080 (LUMO)
        92        0.0018           -0.3155973              -8.5878
        93        0.0015           -0.3132771              -8.5247
        94        0.0015           -0.3128069              -8.5119
        95        0.0012           -0.3089943              -8.4082
        96        0.0004           -0.2934492              -7.9852
        97        0.0000           -0.1901535              -5.1743
        98        0.0000           -0.1875266              -5.1029
        99                         -0.1077116              -2.9310
       100                         -0.0680074              -1.8506
       101                         -0.0637238              -1.7340
       ...                                ...                  ...
       171                          1.4457800              39.3417
      -------------------------------------------------------------
                  HL-Gap            0.0220786 Eh            0.6008 eV

     #   Z          covCN         q      C6AA      α(0)
     1   7 N        1.770    -0.339    29.607     8.057
     2   6 C        3.734     0.003    20.620     6.481
     3   6 C        3.900     0.012    20.325     6.409
     4   6 C        2.969     0.013    27.718     8.636
     5   6 C        2.920    -0.075    29.874     8.963
     6   6 C        2.861     0.132    25.105     8.213
     7   8 O        1.706    -0.223    17.693     5.679
     8   6 C        3.644     0.027    20.466     6.503
     9   6 C        2.863     0.134    25.075     8.208
    10   8 O        1.706    -0.218    17.620     5.667
    11   6 C        3.645     0.024    20.507     6.508
    12   6 C        2.913    -0.067    29.662     8.931
    13   6 C        2.921    -0.046    29.144     8.853
    14   6 C        3.812    -0.067    21.773     6.642
    15   6 C        2.892    -0.067    29.671     8.931
    16   6 C        2.843     0.008    27.834     8.646
    17   7 N        2.732    -0.035    21.928     6.955
    18   6 C        3.751    -0.009    20.802     6.504
    19   6 C        3.807    -0.072    21.867     6.657
    20   6 C        2.968     0.008    27.840     8.655
    21   6 C        2.921    -0.044    29.093     8.845
    22   6 C        2.913    -0.065    29.620     8.924
    23   6 C        2.864     0.136    25.034     8.201
    24   8 O        1.706    -0.214    17.561     5.658
    25   6 C        3.645     0.023    20.521     6.511
    26   6 C        2.862     0.136    25.033     8.201
    27   8 O        1.706    -0.218    17.615     5.667
    28   6 C        3.645     0.025    20.486     6.505
    29   6 C        2.920    -0.077    29.928     8.971
    30   6 C        3.699    -0.060    21.828     6.682
    31   6 C        3.853    -0.009    20.710     6.473
    32   6 C        3.755    -0.118    22.814     6.811
    33   6 C        3.754    -0.112    22.705     6.794
    34   1 H        0.926     0.053     2.288     2.365
    35   1 H        0.924     0.056     2.253     2.347
    36   1 H        0.925     0.083     1.951     2.184
    37   1 H        0.924     0.051     2.306     2.375
    38   1 H        0.924     0.060     2.200     2.319
    39   1 H        0.925     0.083     1.945     2.181
    40   1 H        0.924     0.055     2.256     2.349
    41   1 H        0.926     0.061     2.192     2.315
    42   1 H        0.926     0.091     1.865     2.136
    43   1 H        0.924     0.057     2.240     2.341
    44   1 H        0.924     0.048     2.348     2.396
    45   1 H        0.926     0.043     2.404     2.425
    46   1 H        0.930     0.096     1.819     2.109
    47   1 H        0.920     0.058     2.219     2.330
    48   1 H        0.925     0.052     2.294     2.368
    49   1 H        0.924     0.058     2.219     2.330
    50   1 H        0.924     0.061     2.189     2.314
    51   1 H        0.924     0.056     2.250     2.346
    52   1 H        0.924     0.057     2.232     2.336
    53   1 H        0.926     0.053     2.284     2.363
    54   1 H        0.926     0.062     2.178     2.308
    55   1 H        0.924     0.058     2.224     2.332
    56   1 H        0.924     0.059     2.206     2.323
    57   1 H        0.925     0.085     1.929     2.172
    58   1 H        0.925     0.084     1.936     2.176
    59   1 H        0.924     0.052     2.290     2.366
    60   1 H        0.924     0.056     2.246     2.343
    61   1 H        0.926     0.051     2.304     2.374
    62   1 H        0.924     0.064     2.152     2.294
    63   1 H        0.924     0.066     2.129     2.282
    64   1 H        0.925     0.068     2.105     2.269
    65   1 H        0.924     0.046     2.377     2.411
    66   1 H        0.923     0.093     1.852     2.128
    67   1 H        0.925     0.044     2.402     2.424
    68   1 H        0.925     0.057     2.232     2.337
    69   1 H        0.925     0.046     2.367     2.406
    70   1 H        0.925     0.039     2.456     2.451
    71   1 H        0.925     0.052     2.301     2.372
    72   1 H        0.860     0.142     1.457     1.891

Wiberg/Mayer (AO) data.
largest (>0.10) Wiberg bond orders for each atom

     #   Z sym  total        # sym  WBO       # sym  WBO       # sym  WBO
 ---------------------------------------------------------------------------
     1   7 N    2.207 --     2 C    1.117    72 H    0.950
     2   6 C    3.930 --     1 N    1.117    46 H    0.966     3 C    0.906
                            47 H    0.899
     3   6 C    3.891 --     4 C    0.995    31 C    0.948    14 C    0.940
                             2 C    0.906
     4   6 C    3.912 --    13 C    1.388     5 C    1.374     3 C    0.995
     5   6 C    3.943 --     6 C    1.392     4 C    1.374    34 H    0.956
     6   6 C    3.874 --     5 C    1.392     9 C    1.208     7 O    1.105
     7   8 O    2.240 --     6 C    1.105     8 C    0.978
     8   6 C    3.929 --     7 O    0.978    36 H    0.976    35 H    0.972
                            37 H    0.972
     9   6 C    3.867 --    12 C    1.374     6 C    1.208    10 O    1.113
    10   8 O    2.242 --     9 C    1.113    11 C    0.976
    11   6 C    3.925 --    39 H    0.976    10 O    0.976    40 H    0.971
                            38 H    0.971
    12   6 C    3.945 --    13 C    1.422     9 C    1.374    41 H    0.962
    13   6 C    3.907 --    12 C    1.422     4 C    1.388    42 H    0.947
    14   6 C    3.977 --    15 C    1.041    44 H    0.968    43 H    0.955
                             3 C    0.940
    15   6 C    3.794 --    16 C    1.655    14 C    1.041    45 H    0.962
    16   6 C    3.925 --    15 C    1.655    17 N    1.221    48 H    0.954
    17   7 N    3.366 --    16 C    1.221    30 C    1.007    18 C    1.006
    18   6 C    3.960 --    17 N    1.006    50 H    0.968    49 H    0.964
                            19 C    0.961
    19   6 C    3.971 --    20 C    1.014    51 H    0.973    52 H    0.967
                            18 C    0.961
    20   6 C    3.926 --    21 C    1.395    29 C    1.380    19 C    1.014
    21   6 C    3.930 --    22 C    1.422    20 C    1.395    53 H    0.967
    22   6 C    3.949 --    21 C    1.422    23 C    1.375    54 H    0.962
    23   6 C    3.874 --    22 C    1.375    26 C    1.208    24 O    1.118
    24   8 O    2.249 --    23 C    1.118    25 C    0.975
    25   6 C    3.924 --    57 H    0.976    24 O    0.975    55 H    0.971
                            56 H    0.971
    26   6 C    3.881 --    29 C    1.390    23 C    1.208    27 O    1.112
    27   8 O    2.250 --    26 C    1.112    28 C    0.977
    28   6 C    3.928 --    27 O    0.977    58 H    0.976    59 H    0.972
                            60 H    0.972
    29   6 C    3.950 --    26 C    1.390    20 C    1.380    61 H    0.962
    30   6 C    3.965 --    17 N    1.007    64 H    0.979    63 H    0.969
                            62 H    0.967
    31   6 C    3.966 --    32 C    1.011    33 C    1.007     3 C    0.948
                            65 H    0.947
    32   6 C    3.912 --    31 C    1.011    67 H    0.979    68 H    0.977
                            66 H    0.899
    33   6 C    3.985 --    31 C    1.007    69 H    0.982    70 H    0.981
                            71 H    0.981
    34   1 H    0.995 --     5 C    0.956
    35   1 H    0.990 --     8 C    0.972
    36   1 H    0.992 --     8 C    0.976
    37   1 H    0.991 --     8 C    0.972
    38   1 H    0.989 --    11 C    0.971
    39   1 H    0.992 --    11 C    0.976
    40   1 H    0.989 --    11 C    0.971
    41   1 H    0.993 --    12 C    0.962
    42   1 H    0.988 --    13 C    0.947
    43   1 H    0.985 --    14 C    0.955
    44   1 H    0.995 --    14 C    0.968
    45   1 H    0.997 --    15 C    0.962
    46   1 H    0.975 --     2 C    0.966
    47   1 H    0.930 --     2 C    0.899
    48   1 H    0.997 --    16 C    0.954
    49   1 H    0.990 --    18 C    0.964
    50   1 H    0.995 --    18 C    0.968
    51   1 H    0.995 --    19 C    0.973
    52   1 H    0.994 --    19 C    0.967
    53   1 H    0.996 --    21 C    0.967
    54   1 H    0.994 --    22 C    0.962
    55   1 H    0.989 --    25 C    0.971
    56   1 H    0.989 --    25 C    0.971
    57   1 H    0.992 --    25 C    0.976
    58   1 H    0.992 --    28 C    0.976
    59   1 H    0.991 --    28 C    0.972
    60   1 H    0.990 --    28 C    0.972
    61   1 H    0.996 --    29 C    0.962
    62   1 H    0.983 --    30 C    0.967
    63   1 H    0.986 --    30 C    0.969
    64   1 H    0.995 --    30 C    0.979
    65   1 H    0.978 --    31 C    0.947
    66   1 H    0.978 --    32 C    0.899
    67   1 H    0.993 --    32 C    0.979
    68   1 H    0.990 --    32 C    0.977
    69   1 H    0.995 --    33 C    0.982
    70   1 H    0.997 --    33 C    0.981
    71   1 H    0.994 --    33 C    0.981
    72   1 H    0.964 --     1 N    0.950
 ---------------------------------------------------------------------------

molecular dipole:
                 x           y           z       tot (Debye)
 q only:        0.875      -0.256      -0.475
   full:        0.974       0.108      -0.619       2.947

           -------------------------------------------------
          | TOTAL ENERGY             -102.028438798649 Eh   |
          | GRADIENT NORM               0.001643835647 Eh/α |
          | HOMO-LUMO GAP               0.600789219112 eV   |
           -------------------------------------------------

 * finished run on 2024/04/06 at 11:15:41.459
