   * xtb version 6.6.1 (8d0f1dd) compiled by 'conda@1efc2f54142f' on 2023-08-01
          program call               : xtb xtbopt.xyz --opt crude --input .xc2 --gfn2

   ID    Z sym.   atoms
    1    7 N      1, 17
    2    6 C      2-6, 8, 9, 11-16, 18-23, 25, 26, 28-33
    3    8 O      7, 10, 24, 27
    4    1 H      34-72
########################################################################
[WARNING] Please study the warnings concerning your input carefully
-1- readin_getIntValue: could not parse ''
########################################################################

          :  Hamiltonian                  GFN2-xTB          :
 * total energy  :   -99.2148295 Eh     change       -0.4263256E-11 Eh
 * total energy  :   -99.3760534 Eh     change       -0.1612239E+00 Eh
 * total energy  :   -99.3778732 Eh     change       -0.1819863E-02 Eh
 * total energy  :   -99.3787737 Eh     change       -0.9004922E-03 Eh
 * total energy  :   -99.3789973 Eh     change       -0.2235285E-03 Eh
   *** GEOMETRY OPTIMIZATION CONVERGED AFTER 5 ITERATIONS ***

 final structure:
================
72
 xtb: 6.6.1 (8d0f1dd)
N           -2.83726457747876        2.19563505976296        2.80662302843312
C           -2.18775166660122        2.13687334681312        1.57066137443404
C           -3.12310659056803        1.81106156985804        0.35822738836623
C           -3.79559263909907        0.45522259171862        0.49048349888883
C           -4.48493122956283       -0.08321998129213       -0.59836319403819
C           -5.10892104395395       -1.31963283684529       -0.52632983728274
O           -5.79144088948589       -1.90869010103255       -1.52882676742190
C           -5.96840370696840       -1.22243774507802       -2.74520190452212
C           -5.04855185190164       -2.06604702442408        0.68413266019809
O           -5.66682206668858       -3.26063513270768        0.66436821701020
C           -5.67614138435900       -4.04744037348102        1.83352345342972
C           -4.38052664359387       -1.51406131085773        1.76828116111170
C           -3.76735478927596       -0.27544659011183        1.67257702354949
C           -2.19999062055300        1.80384977154536       -0.89456769011241
C           -1.29767044213425        0.61788203423919       -0.91086980896859
C            0.00409745293962        0.68866079431600       -0.57376665940814
N            0.86850929402129       -0.35177875166699       -0.47950398675042
C            2.26223162748599       -0.12972785056207       -0.21127534147087
C            3.12701794556165       -0.13150388680766       -1.49114940270497
C            4.57076963766360        0.05041409031763       -1.12750634733745
C            5.18267587328861        1.29264259487170       -1.21298893093293
C            6.50527547586283        1.46185398947909       -0.83550835287313
C            7.24557360412082        0.39087955643467       -0.35197235891119
O            8.52675615784621        0.43804280749067        0.04942833341060
C            9.22728892185261        1.65932525978896       -0.01231971122365
C            6.62626998785171       -0.88899458393425       -0.25795322943911
O            7.41266069952783       -1.87087430492642        0.21924127455124
C            6.89336799465355       -3.17338355426262        0.34718356229097
C            5.30359108906984       -1.03280190997212       -0.64732084953359
C            0.44544313185644       -1.68405750275241       -0.82469991276969
C           -4.23069281713536        2.89309971069257        0.23245126768200
C           -5.21345395782227        2.76402024487452        1.39075040336669
C           -3.69648625961721        4.32217332730671        0.15585403949776
H           -4.54248778049007        0.47457610098679       -1.51879684997863
H           -6.50282822322518       -0.27890233449628       -2.59849352027415
H           -6.56854501460156       -1.88234884277417       -3.36871064880198
H           -5.01191941586343       -1.02896489050457       -3.24131451838193
H           -6.17976211150072       -3.53343952163771        2.65741233630579
H           -6.23046605517962       -4.94798437430201        1.57666984532957
H           -4.66163600373893       -4.32030441809517        2.14001597972307
H           -4.33637582685698       -2.04355739270977        2.70599634991008
H           -3.29410575150535        0.13838797485677        2.54695065241252
H           -2.82184581106453        1.80198252875978       -1.79092925977687
H           -1.60582497865359        2.71767122147299       -0.90097910512001
H           -1.75553042052108       -0.32492491140458       -1.16235884854616
H           -1.62864266418958        3.04601964454627        1.33260883067859
H           -1.47490272166598        1.29154816776078        1.59717080918312
H            0.43700435337534        1.64960281795371       -0.32776850714886
H            2.62304011533908       -0.91336276360215        0.46209951826340
H            2.38197458268705        0.83066910058844        0.29466193571605
H            2.79485808642197        0.67586594915156       -2.14484291567384
H            2.98818956250847       -1.07890667532346       -2.01443029365273
H            4.62953295425880        2.14070100002941       -1.58635746301529
H            6.95499654664232        2.43743152936098       -0.92166709336768
H            8.75966535761223        2.42116218903700        0.61856571351651
H            9.29808443402036        2.02802199797349       -1.03985613956862
H           10.22540558050664        1.44229524905399        0.36330556148369
H            7.70723989845975       -3.77446259908689        0.74789921479259
H            6.04773622864582       -3.20108506071804        1.04162826737728
H            6.58632786428222       -3.57944831838258       -0.62146932179067
H            4.82904985030279       -1.99991799490350       -0.58997041260950
H            0.19419168444437       -1.76083713267187       -1.88651934528446
H           -0.43568468495830       -1.96069616632128       -0.24190784652299
H            1.24291031613807       -2.38822567531221       -0.60184128188973
H           -4.76594618227251        2.69051186569937       -0.70292479053142
H           -4.63264082354909        2.64422313632460        2.31730322289248
H           -5.84648042700427        1.88709969847683        1.28294772959167
H           -5.83852979866662        3.64858630395381        1.47448733095558
H           -3.23684080963743        4.62145075177309        1.09396515947377
H           -2.97477281440359        4.44259750383198       -0.64786369177546
H           -4.52270883701829        5.00243914374119       -0.03691793450352
H           -2.65164037882272        3.02776141061586        3.34983377273836

          :  Hamiltonian                  GFN2-xTB          :
         :: total energy             -99.378997271229 Eh    ::
         :: gradient norm              0.007327647254 Eh/a0 ::
         :: HOMO-LUMO gap              0.604285312705 eV    ::
         :: SCC energy              -100.745379788552 Eh    ::
         :: -> dispersion             -0.072729125122 Eh    ::
         :: repulsion energy           1.365398998579 Eh    ::

    * Orbital Energies and Occupations

         #    Occupation            Energy/Eh            Energy/eV
      -------------------------------------------------------------
         1        2.0000           -0.8116253             -22.0854
       ...           ...                  ...                  ...
        78        1.9974           -0.5319868             -14.4761
        79        1.9971           -0.5305489             -14.4370
        80        1.9951           -0.5219289             -14.2024
        81        1.9941           -0.5190263             -14.1234
        82        1.9936           -0.5178660             -14.0919
        83        1.9934           -0.5172321             -14.0746
        84        1.9898           -0.5104224             -13.8893
        85        1.9659           -0.4910721             -13.3628
        86        1.9586           -0.4879248             -13.2771
        87        1.8186           -0.4633559             -12.6086
        88        1.7970           -0.4613906             -12.5551
        89        1.7400           -0.4569605             -12.4345
        90        1.6673           -0.4523813             -12.3099 (HOMO)
        91        1.1043           -0.4301742             -11.7056 (LUMO)
        92        0.0018           -0.3155616              -8.5869
        93        0.0015           -0.3134050              -8.5282
        94        0.0015           -0.3127925              -8.5115
        95        0.0012           -0.3091716              -8.4130
        96        0.0004           -0.2932606              -7.9800
        97        0.0000           -0.1901238              -5.1735
        98        0.0000           -0.1876638              -5.1066
        99                         -0.1075440              -2.9264
       100                         -0.0658555              -1.7920
       101                         -0.0637212              -1.7339
       ...                                ...                  ...
       171                          0.5729091              15.5897
      -------------------------------------------------------------
                  HL-Gap            0.0222071 Eh            0.6043 eV

     #   Z          covCN         q      C6AA      α(0)
     1   7 N        1.771    -0.325    29.230     8.006
     2   6 C        3.734     0.033    20.107     6.400
     3   6 C        3.902     0.014    20.291     6.403
     4   6 C        2.969     0.013    27.709     8.634
     5   6 C        2.920    -0.075    29.868     8.962
     6   6 C        2.861     0.132    25.105     8.213
     7   8 O        1.706    -0.223    17.693     5.679
     8   6 C        3.644     0.027    20.465     6.503
     9   6 C        2.864     0.134    25.076     8.208
    10   8 O        1.706    -0.218    17.621     5.668
    11   6 C        3.646     0.024    20.504     6.507
    12   6 C        2.913    -0.067    29.668     8.932
    13   6 C        2.921    -0.046    29.143     8.853
    14   6 C        3.812    -0.066    21.755     6.639
    15   6 C        2.892    -0.067    29.659     8.929
    16   6 C        2.843     0.008    27.827     8.645
    17   7 N        2.732    -0.035    21.923     6.954
    18   6 C        3.752    -0.009    20.801     6.504
    19   6 C        3.807    -0.072    21.867     6.657
    20   6 C        2.969     0.008    27.840     8.655
    21   6 C        2.921    -0.044    29.092     8.845
    22   6 C        2.913    -0.065    29.620     8.925
    23   6 C        2.864     0.136    25.032     8.201
    24   8 O        1.706    -0.214    17.560     5.658
    25   6 C        3.645     0.023    20.522     6.511
    26   6 C        2.862     0.136    25.034     8.201
    27   8 O        1.706    -0.218    17.616     5.667
    28   6 C        3.645     0.025    20.486     6.505
    29   6 C        2.920    -0.077    29.929     8.971
    30   6 C        3.699    -0.060    21.827     6.682
    31   6 C        3.853    -0.009    20.705     6.472
    32   6 C        3.755    -0.118    22.814     6.811
    33   6 C        3.754    -0.111    22.686     6.792
    34   1 H        0.926     0.053     2.289     2.366
    35   1 H        0.924     0.055     2.254     2.348
    36   1 H        0.925     0.083     1.951     2.184
    37   1 H        0.924     0.051     2.306     2.375
    38   1 H        0.924     0.060     2.201     2.320
    39   1 H        0.925     0.083     1.945     2.181
    40   1 H        0.924     0.055     2.257     2.349
    41   1 H        0.926     0.060     2.195     2.317
    42   1 H        0.926     0.090     1.879     2.143
    43   1 H        0.924     0.057     2.236     2.338
    44   1 H        0.925     0.048     2.339     2.392
    45   1 H        0.926     0.043     2.405     2.425
    46   1 H        0.924     0.034     2.526     2.485
    47   1 H        0.922     0.065     2.142     2.289
    48   1 H        0.925     0.052     2.291     2.367
    49   1 H        0.924     0.058     2.219     2.330
    50   1 H        0.924     0.061     2.188     2.313
    51   1 H        0.924     0.056     2.249     2.345
    52   1 H        0.924     0.057     2.233     2.337
    53   1 H        0.926     0.053     2.283     2.363
    54   1 H        0.926     0.062     2.178     2.308
    55   1 H        0.924     0.058     2.223     2.332
    56   1 H        0.924     0.059     2.205     2.322
    57   1 H        0.925     0.085     1.929     2.172
    58   1 H        0.925     0.084     1.936     2.176
    59   1 H        0.924     0.052     2.290     2.366
    60   1 H        0.924     0.056     2.246     2.344
    61   1 H        0.926     0.051     2.304     2.374
    62   1 H        0.924     0.064     2.151     2.294
    63   1 H        0.924     0.066     2.130     2.282
    64   1 H        0.925     0.068     2.104     2.268
    65   1 H        0.924     0.046     2.373     2.409
    66   1 H        0.923     0.093     1.853     2.129
    67   1 H        0.925     0.044     2.401     2.423
    68   1 H        0.925     0.058     2.227     2.334
    69   1 H        0.925     0.047     2.355     2.400
    70   1 H        0.925     0.040     2.454     2.450
    71   1 H        0.925     0.052     2.299     2.371
    72   1 H        0.860     0.146     1.429     1.872

Wiberg/Mayer (AO) data.
largest (>0.10) Wiberg bond orders for each atom

     #   Z sym  total        # sym  WBO       # sym  WBO       # sym  WBO
 ---------------------------------------------------------------------------
     1   7 N    2.232 --     2 C    1.139    72 H    0.949
     2   6 C    3.940 --     1 N    1.139    46 H    0.945     3 C    0.915
                            47 H    0.898
     3   6 C    3.894 --     4 C    0.991    31 C    0.947    14 C    0.941
                             2 C    0.915
     4   6 C    3.912 --    13 C    1.388     5 C    1.375     3 C    0.991
     5   6 C    3.944 --     6 C    1.392     4 C    1.375    34 H    0.956
     6   6 C    3.874 --     5 C    1.392     9 C    1.208     7 O    1.105
     7   8 O    2.240 --     6 C    1.105     8 C    0.978
     8   6 C    3.929 --     7 O    0.978    36 H    0.976    35 H    0.972
                            37 H    0.972
     9   6 C    3.867 --    12 C    1.374     6 C    1.208    10 O    1.113
    10   8 O    2.242 --     9 C    1.113    11 C    0.976
    11   6 C    3.925 --    39 H    0.976    10 O    0.976    40 H    0.971
                            38 H    0.971
    12   6 C    3.945 --    13 C    1.422     9 C    1.374    41 H    0.962
    13   6 C    3.908 --    12 C    1.422     4 C    1.388    42 H    0.948
    14   6 C    3.977 --    15 C    1.041    44 H    0.966    43 H    0.955
                             3 C    0.941
    15   6 C    3.793 --    16 C    1.654    14 C    1.041    45 H    0.962
    16   6 C    3.925 --    15 C    1.654    17 N    1.222    48 H    0.954
    17   7 N    3.366 --    16 C    1.222    30 C    1.007    18 C    1.006
    18   6 C    3.960 --    17 N    1.006    50 H    0.968    49 H    0.964
                            19 C    0.961
    19   6 C    3.971 --    20 C    1.014    51 H    0.973    52 H    0.968
                            18 C    0.961
    20   6 C    3.926 --    21 C    1.395    29 C    1.380    19 C    1.014
    21   6 C    3.930 --    22 C    1.422    20 C    1.395    53 H    0.967
    22   6 C    3.948 --    21 C    1.422    23 C    1.375    54 H    0.962
    23   6 C    3.874 --    22 C    1.375    26 C    1.207    24 O    1.118
    24   8 O    2.249 --    23 C    1.118    25 C    0.974
    25   6 C    3.924 --    57 H    0.976    24 O    0.974    55 H    0.971
                            56 H    0.971
    26   6 C    3.881 --    29 C    1.391    23 C    1.207    27 O    1.112
    27   8 O    2.250 --    26 C    1.112    28 C    0.977
    28   6 C    3.928 --    27 O    0.977    58 H    0.976    59 H    0.972
                            60 H    0.972
    29   6 C    3.950 --    26 C    1.391    20 C    1.380    61 H    0.962
    30   6 C    3.965 --    17 N    1.007    64 H    0.979    63 H    0.970
                            62 H    0.967
    31   6 C    3.965 --    32 C    1.011    33 C    1.008     3 C    0.947
                            65 H    0.947
    32   6 C    3.911 --    31 C    1.011    67 H    0.979    68 H    0.977
                            66 H    0.898
    33   6 C    3.984 --    31 C    1.008    69 H    0.981    70 H    0.981
                            71 H    0.980
    34   1 H    0.995 --     5 C    0.956
    35   1 H    0.990 --     8 C    0.972
    36   1 H    0.992 --     8 C    0.976
    37   1 H    0.991 --     8 C    0.972
    38   1 H    0.989 --    11 C    0.971
    39   1 H    0.992 --    11 C    0.976
    40   1 H    0.989 --    11 C    0.971
    41   1 H    0.994 --    12 C    0.962
    42   1 H    0.988 --    13 C    0.948
    43   1 H    0.985 --    14 C    0.955
    44   1 H    0.995 --    14 C    0.966
    45   1 H    0.997 --    15 C    0.962
    46   1 H    0.968 --     2 C    0.945
    47   1 H    0.926 --     2 C    0.898
    48   1 H    0.997 --    16 C    0.954
    49   1 H    0.989 --    18 C    0.964
    50   1 H    0.995 --    18 C    0.968
    51   1 H    0.995 --    19 C    0.973
    52   1 H    0.994 --    19 C    0.968
    53   1 H    0.996 --    21 C    0.967
    54   1 H    0.994 --    22 C    0.962
    55   1 H    0.989 --    25 C    0.971
    56   1 H    0.989 --    25 C    0.971
    57   1 H    0.992 --    25 C    0.976
    58   1 H    0.992 --    28 C    0.976
    59   1 H    0.991 --    28 C    0.972
    60   1 H    0.990 --    28 C    0.972
    61   1 H    0.996 --    29 C    0.962
    62   1 H    0.983 --    30 C    0.967
    63   1 H    0.986 --    30 C    0.970
    64   1 H    0.995 --    30 C    0.979
    65   1 H    0.978 --    31 C    0.947
    66   1 H    0.977 --    32 C    0.898
    67   1 H    0.993 --    32 C    0.979
    68   1 H    0.990 --    32 C    0.977
    69   1 H    0.995 --    33 C    0.981
    70   1 H    0.996 --    33 C    0.981
    71   1 H    0.994 --    33 C    0.980
    72   1 H    0.964 --     1 N    0.949
 ---------------------------------------------------------------------------

molecular dipole:
                 x           y           z       tot (Debye)
 q only:        0.828      -0.307      -0.441
   full:        0.955       0.066      -0.588       2.855

           -------------------------------------------------
          | TOTAL ENERGY              -99.378997271229 Eh   |
          | GRADIENT NORM               0.007327647254 Eh/α |
          | HOMO-LUMO GAP               0.604285312705 eV   |
           -------------------------------------------------

 * finished run on 2024/04/06 at 11:15:42.560
