   * xtb version 6.6.1 (8d0f1dd) compiled by 'conda@1efc2f54142f' on 2023-08-01
          program call               : xtb xtbopt.xyz --opt crude --input .xc2 --gfn2

   ID    Z sym.   atoms
    1    7 N      1, 17
    2    6 C      2-6, 8, 9, 11-16, 18-23, 25, 26, 28-33
    3    8 O      7, 10, 24, 27
    4    1 H      34-72

          :  Hamiltonian                  GFN2-xTB          :
 * total energy  :   -99.2763508 Eh     change       -0.2196998E-10 Eh
   *** GEOMETRY OPTIMIZATION CONVERGED AFTER 1 ITERATIONS ***

 final structure:
================
72
 xtb: 6.6.1 (8d0f1dd)
N           -1.96395209769078        2.76524058900821        2.27829669940486
C           -1.90045686542168        2.06686234272047        1.24557103551850
C           -3.02211751978488        1.90003162908053        0.25612678630465
C           -3.52727918697482        0.46676590938979        0.28970817657065
C           -4.45369243830577        0.03386153912508       -0.66081255916848
C           -4.96053521501711       -1.25618787966172       -0.64470053955558
O           -5.86084768922359       -1.75238823121613       -1.51369115771973
C           -6.42505241518058       -0.90303471978936       -2.48870468376762
C           -4.50950341545612       -2.16274643358800        0.35431203381636
O           -5.06829525123931       -3.39706093219713        0.30320212974956
C           -4.79868806147713       -4.37466550715639        1.12038249068545
C           -3.57813185620691       -1.72995439617089        1.29427456066862
C           -3.10012581171329       -0.43371907757406        1.26046093904455
C           -2.40980938049826        2.20643059878050       -1.13567396576851
C           -1.46878543214965        1.11055038922449       -1.66734879574486
C           -0.15196888941920        1.07750826489160       -0.99071202568206
N            0.50055302470294       -0.01971606438440       -0.62756316449672
C            1.88086306468294        0.05498765702695       -0.20968156070645
C            2.83926560698145       -0.35710839533724       -1.34431929815254
C            4.26414662100314       -0.15354970729429       -0.91172207149647
C            4.90444300505154        1.05412523154822       -1.13889646124659
C            6.21023409004175        1.25539449276335       -0.71979260608440
C            6.90212878258966        0.25130307100303       -0.05736291132550
O            8.16763209778745        0.33414350489014        0.39069270867150
C            8.89825774385818        1.51981560425549        0.17538478719932
C            6.25125960748284       -0.99082383272272        0.18522506549131
O            6.99437179567711       -1.90991841722612        0.83087906436158
C            6.44677246574180       -3.17997136761402        1.09418733471950
C            4.94486086013132       -1.16811343229591       -0.24321956979748
C           -0.09477789935329       -1.33156413624457       -0.71598547785253
C           -4.22815664725433        2.84708920512754        0.53183603897920
C           -4.90747421633498        2.51089163592765        1.85748404271902
C           -3.85004939211561        4.32521068764485        0.50598173851497
H           -4.79655482069911        0.72075324663942       -1.41654686173081
H           -6.93622046975872       -0.05214901140427       -2.02951441180076
H           -7.15023832319034       -1.51423402121301       -3.02180728551714
H           -5.66881811469974       -0.54373035527477       -3.19336200889799
H           -2.38330344428683       -3.64131531712317        3.11616782861805
H           -5.35195817656721       -5.27683910981918        0.93231727481492
H           -4.08003647385454       -4.30596430122720        1.92444493202078
H           -3.20345296461470       -2.40326187154795        2.06582493006123
H           -2.40584082131607       -0.12090104936753        2.02399763749005
H           -3.21910900492053        2.33669882368593       -1.85331604646138
H           -1.86420882396778        3.14897695085526       -1.08021836553735
H           -1.96760343238383        0.14384473603399       -1.62272310834556
H           -1.28308135774047        1.34032782640784       -2.72492519821177
H           -0.98804327294844        1.52979487748830        0.91954118179155
H            0.39466486563162        2.00689078621981       -0.92401954774288
H            2.03244036940852       -0.59942291223869        0.65252419661786
H            2.11237531934643        1.07831976825275        0.09263009457817
H            2.62718993927855        0.25696056895652       -2.22136123215286
H            2.67038092782293       -1.40253257893697       -1.60485574850475
H            4.39145750790149        1.84846179308517       -1.65957262343003
H            6.68454540623684        2.20221311084606       -0.91904917123812
H            8.43026032434828        2.37473157181460        0.67290812441400
H            9.00927950586201        1.73314785298149       -0.89195629202799
H            9.87914838536557        1.34143173997426        0.61171715062819
H            7.23246064582436       -3.73746867817411        1.60019295332968
H            5.57281897473440       -3.11217545392083        1.74980521082299
H            6.17326323228388       -3.69825425157936        0.16997280413263
H            4.44560278531004       -2.10887267362497       -0.07188909126156
H           -0.24424361362374       -1.62949971056493       -1.75611887885846
H           -1.05899666293400       -1.34875763523102       -0.20230959058363
H            0.55988713146116       -2.05605908027611       -0.23864254937027
H           -4.95185211373964        2.67111596091144       -0.27202076749713
H           -4.22993703869740        2.70447538027175        2.68261054670910
H           -5.21407312077595        1.46814646630968        1.89064823635941
H           -5.79089022518360        3.13127083303425        1.98188023136640
H           -3.10499739039479        4.53842716710962        1.26599947451574
H           -3.47115858124912        4.63080247691765       -0.46574170630564
H           -4.73301036053872        4.92109144262099        0.72080688388289
H           -1.13672020063958        2.82800433164409        2.86340685206646

          :  Hamiltonian                  GFN2-xTB          :
         :: total energy             -99.276350791150 Eh    ::
         :: gradient norm              0.002625824281 Eh/a0 ::
         :: HOMO-LUMO gap              0.545766206130 eV    ::
         :: SCC energy              -100.649624406604 Eh    ::
         :: -> dispersion             -0.076043076278 Eh    ::
         :: repulsion energy           1.372016266848 Eh    ::

    * Orbital Energies and Occupations

         #    Occupation            Energy/Eh            Energy/eV
      -------------------------------------------------------------
         1        2.0000           -0.8497148             -23.1219
       ...           ...                  ...                  ...
        78        1.9983           -0.5314750             -14.4622
        79        1.9982           -0.5300809             -14.4242
        80        1.9981           -0.5291504             -14.3989
        81        1.9972           -0.5232841             -14.2393
        82        1.9968           -0.5210965             -14.1798
        83        1.9956           -0.5160500             -14.0424
        84        1.9952           -0.5145096             -14.0005
        85        1.9921           -0.5065913             -13.7850
        86        1.9769           -0.4895672             -13.3218
        87        1.9741           -0.4877211             -13.2716
        88        1.9396           -0.4740431             -12.8994
        89        1.8320           -0.4569496             -12.4342
        90        1.2513           -0.4272527             -11.6261 (HOMO)
        91        0.6403           -0.4071962             -11.0804 (LUMO)
        92        0.3927           -0.3968062             -10.7976
        93        0.0153           -0.3420704              -9.3082
        94        0.0054           -0.3253801              -8.8540
        95        0.0042           -0.3213601              -8.7447
        96        0.0025           -0.3135998              -8.5335
        97        0.0022           -0.3112631              -8.4699
        98        0.0000           -0.2016316              -5.4867
        99        0.0000           -0.1887914              -5.1373
       100                         -0.1378666              -3.7515
       101                         -0.0755856              -2.0568
       ...                                ...                  ...
       171                          0.5751672              15.6511
      -------------------------------------------------------------
                  HL-Gap            0.0200565 Eh            0.5458 eV

     #   Z          covCN         q      C6AA      α(0)
     1   7 N        1.774    -0.266    27.715     7.796
     2   6 C        2.826     0.100    25.772     8.319
     3   6 C        3.908     0.007    20.411     6.422
     4   6 C        2.974     0.010    27.792     8.647
     5   6 C        2.919    -0.080    29.989     8.980
     6   6 C        2.859     0.136    25.019     8.199
     7   8 O        1.706    -0.232    17.843     5.703
     8   6 C        3.644     0.025    20.488     6.506
     9   6 C        2.871     0.101    25.753     8.319
    10   8 O        1.710    -0.096    15.773     5.362
    11   6 C        2.735     0.035    27.186     8.536
    12   6 C        2.910    -0.061    29.526     8.910
    13   6 C        2.921    -0.050    29.230     8.866
    14   6 C        3.812    -0.065    21.745     6.637
    15   6 C        3.802    -0.069    21.818     6.650
    16   6 C        2.843     0.006    27.870     8.652
    17   7 N        2.729     0.013    21.029     6.811
    18   6 C        3.756    -0.017    20.936     6.524
    19   6 C        3.808    -0.070    21.842     6.653
    20   6 C        2.969     0.000    28.016     8.682
    21   6 C        2.922    -0.048    29.201     8.862
    22   6 C        2.914    -0.067    29.673     8.932
    23   6 C        2.865     0.134    25.067     8.207
    24   8 O        1.706    -0.220    17.650     5.672
    25   6 C        3.645     0.024    20.497     6.507
    26   6 C        2.863     0.134    25.069     8.207
    27   8 O        1.706    -0.222    17.692     5.679
    28   6 C        3.645     0.026    20.468     6.502
    29   6 C        2.919    -0.079    29.978     8.979
    30   6 C        3.699    -0.070    22.017     6.711
    31   6 C        3.853    -0.007    20.671     6.467
    32   6 C        3.756    -0.119    22.842     6.815
    33   6 C        3.755    -0.119    22.839     6.814
    34   1 H        0.926     0.057     2.236     2.338
    35   1 H        0.924     0.057     2.239     2.340
    36   1 H        0.925     0.084     1.943     2.180
    37   1 H        0.924     0.050     2.317     2.380
    38   1 H        0.000    -0.242    36.265    11.011
    39   1 H        0.926     0.101     1.780     2.086
    40   1 H        0.926     0.092     1.855     2.130
    41   1 H        0.924     0.089     1.890     2.150
    42   1 H        0.926     0.050     2.325     2.385
    43   1 H        0.925     0.060     2.198     2.319
    44   1 H        0.924     0.056     2.248     2.345
    45   1 H        0.925     0.064     2.150     2.293
    46   1 H        0.923     0.080     1.978     2.199
    47   1 H        0.922     0.008     2.919     2.672
    48   1 H        0.926     0.070     2.083     2.257
    49   1 H        0.924     0.070     2.083     2.257
    50   1 H        0.924     0.068     2.108     2.271
    51   1 H        0.924     0.055     2.262     2.352
    52   1 H        0.924     0.057     2.239     2.340
    53   1 H        0.926     0.046     2.375     2.410
    54   1 H        0.926     0.059     2.208     2.324
    55   1 H        0.924     0.055     2.258     2.350
    56   1 H        0.924     0.057     2.240     2.340
    57   1 H        0.925     0.083     1.946     2.182
    58   1 H        0.925     0.083     1.949     2.183
    59   1 H        0.924     0.051     2.312     2.378
    60   1 H        0.924     0.053     2.278     2.360
    61   1 H        0.926     0.049     2.335     2.390
    62   1 H        0.924     0.076     2.025     2.225
    63   1 H        0.924     0.079     1.989     2.205
    64   1 H        0.925     0.084     1.941     2.179
    65   1 H        0.924     0.037     2.493     2.469
    66   1 H        0.925     0.071     2.075     2.252
    67   1 H        0.925     0.034     2.526     2.485
    68   1 H        0.925     0.052     2.294     2.368
    69   1 H        0.925     0.062     2.179     2.308
    70   1 H        0.925     0.035     2.516     2.481
    71   1 H        0.925     0.056     2.249     2.345
    72   1 H        0.860     0.159     1.338     1.812

Wiberg/Mayer (AO) data.
largest (>0.10) Wiberg bond orders for each atom

     #   Z sym  total        # sym  WBO       # sym  WBO       # sym  WBO
 ---------------------------------------------------------------------------
     1   7 N    3.042 --     2 C    1.959    72 H    0.941
     2   6 C    3.928 --     1 N    1.959     3 C    0.993    47 H    0.898
     3   6 C    3.976 --     2 C    0.993     4 C    0.973    14 C    0.956
                            31 C    0.941
     4   6 C    3.912 --    13 C    1.387     5 C    1.377     3 C    0.973
     5   6 C    3.962 --     6 C    1.393     4 C    1.377    34 H    0.957
     6   6 C    3.890 --     5 C    1.393     9 C    1.224     7 O    1.110
     7   8 O    2.269 --     6 C    1.110     8 C    0.973
     8   6 C    3.929 --    36 H    0.977    37 H    0.974    35 H    0.974
                             7 O    0.973
     9   6 C    3.888 --    12 C    1.355     6 C    1.224    10 O    1.051
    10   8 O    2.434 --    11 C    1.293     9 C    1.051
    11   6 C    3.344 --    10 O    1.293    39 H    0.964    40 H    0.950
    12   6 C    3.869 --    13 C    1.441     9 C    1.355    41 H    0.911
    13   6 C    3.970 --    12 C    1.441     4 C    1.387    42 H    0.961
    14   6 C    3.973 --    15 C    0.984    44 H    0.972    43 H    0.969
                             3 C    0.956
    15   6 C    3.987 --    16 C    1.058    14 C    0.984    45 H    0.961
                            46 H    0.927
    16   6 C    3.597 --    17 N    1.404    15 C    1.058    48 H    0.957
    17   7 N    3.482 --    16 C    1.404    30 C    0.998    18 C    0.988
    18   6 C    3.954 --    17 N    0.988    50 H    0.968    19 C    0.966
                            49 H    0.964
    19   6 C    3.976 --    20 C    1.008    51 H    0.972    52 H    0.971
                            18 C    0.966
    20   6 C    3.942 --    21 C    1.407    29 C    1.381    19 C    1.008
    21   6 C    3.947 --    22 C    1.417    20 C    1.407    53 H    0.968
    22   6 C    3.958 --    21 C    1.417    23 C    1.382    54 H    0.963
    23   6 C    3.892 --    22 C    1.382    26 C    1.217    24 O    1.113
    24   8 O    2.255 --    23 C    1.113    25 C    0.975
    25   6 C    3.927 --    57 H    0.977    24 O    0.975    55 H    0.972
                            56 H    0.972
    26   6 C    3.896 --    29 C    1.393    23 C    1.217    27 O    1.107
    27   8 O    2.255 --    26 C    1.107    28 C    0.978
    28   6 C    3.930 --    27 O    0.978    58 H    0.977    59 H    0.973
                            60 H    0.973
    29   6 C    3.957 --    26 C    1.393    20 C    1.381    61 H    0.962
    30   6 C    3.957 --    17 N    0.998    64 H    0.977    62 H    0.966
                            63 H    0.962
    31   6 C    3.972 --    33 C    1.009    32 C    1.008    65 H    0.960
                             3 C    0.941
    32   6 C    3.979 --    31 C    1.008    67 H    0.982    68 H    0.981
                            66 H    0.974
    33   6 C    3.983 --    31 C    1.009    70 H    0.983    71 H    0.980
                            69 H    0.976
    34   1 H    0.995 --     5 C    0.957
    35   1 H    0.994 --     8 C    0.974
    36   1 H    0.992 --     8 C    0.977
    37   1 H    0.995 --     8 C    0.974
    38   1 H    0.069
    39   1 H    0.988 --    11 C    0.964
    40   1 H    0.991 --    11 C    0.950
    41   1 H    0.991 --    12 C    0.911
    42   1 H    0.996 --    13 C    0.961
    43   1 H    0.995 --    14 C    0.969
    44   1 H    0.996 --    14 C    0.972
    45   1 H    0.995 --    15 C    0.961
    46   1 H    0.970 --    15 C    0.927
    47   1 H    0.987 --     2 C    0.898
    48   1 H    0.995 --    16 C    0.957
    49   1 H    0.990 --    18 C    0.964
    50   1 H    0.994 --    18 C    0.968
    51   1 H    0.996 --    19 C    0.972
    52   1 H    0.996 --    19 C    0.971
    53   1 H    0.997 --    21 C    0.968
    54   1 H    0.995 --    22 C    0.963
    55   1 H    0.991 --    25 C    0.972
    56   1 H    0.991 --    25 C    0.972
    57   1 H    0.992 --    25 C    0.977
    58   1 H    0.992 --    28 C    0.977
    59   1 H    0.992 --    28 C    0.973
    60   1 H    0.992 --    28 C    0.973
    61   1 H    0.996 --    29 C    0.962
    62   1 H    0.985 --    30 C    0.966
    63   1 H    0.987 --    30 C    0.962
    64   1 H    0.993 --    30 C    0.977
    65   1 H    0.993 --    31 C    0.960
    66   1 H    0.991 --    32 C    0.974
    67   1 H    0.997 --    32 C    0.982
    68   1 H    0.994 --    32 C    0.981
    69   1 H    0.993 --    33 C    0.976
    70   1 H    0.997 --    33 C    0.983
    71   1 H    0.994 --    33 C    0.980
    72   1 H    0.969 --     1 N    0.941
 ---------------------------------------------------------------------------

molecular dipole:
                 x           y           z       tot (Debye)
 q only:        0.143       0.441      -1.936
   full:        0.387       0.325      -2.134       5.574

           -------------------------------------------------
          | TOTAL ENERGY              -99.276350791150 Eh   |
          | GRADIENT NORM               0.002625824281 Eh/α |
          | HOMO-LUMO GAP               0.545766206130 eV   |
           -------------------------------------------------

 * finished run on 2024/04/06 at 11:13:00.556
