   * xtb version 6.6.1 (8d0f1dd) compiled by 'conda@1efc2f54142f' on 2023-08-01
          program call               : xtb struc.xyz --opt loose --input .xc1 --gfn2

   ID    Z sym.   atoms
    1    7 N      1, 17
    2    6 C      2-6, 8, 9, 11-16, 18-23, 25, 26, 28-33
    3    8 O      7, 10, 24, 27
    4    1 H      34-72
constraining bond 66 68 to    3.2800000 Å, actual value:    1.7625272 Å

          :  Hamiltonian                  GFN2-xTB          :
 * total energy  :   -98.9929722 Eh     change       -0.4035485E-08 Eh
 * total energy  :   -99.1547734 Eh     change       -0.1618012E+00 Eh
 * total energy  :   -99.2286828 Eh     change       -0.7390941E-01 Eh
 * total energy  :   -99.2476964 Eh     change       -0.1901351E-01 Eh
 * total energy  :   -99.2509526 Eh     change       -0.3256199E-02 Eh
 * total energy  :   -99.2516992 Eh     change       -0.7465979E-03 Eh
 * total energy  :   -99.2525051 Eh     change       -0.8059834E-03 Eh
 * total energy  :   -99.2532281 Eh     change       -0.7229826E-03 Eh
 * total energy  :   -99.2551933 Eh     change       -0.1965153E-02 Eh
 * total energy  :   -99.2596437 Eh     change       -0.4450444E-02 Eh
 * total energy  :   -99.3264669 Eh     change       -0.2170807E-02 Eh
 * total energy  :   -99.3282836 Eh     change       -0.1816744E-02 Eh
 * total energy  :   -99.3297083 Eh     change       -0.1424660E-02 Eh
 * total energy  :   -99.3305961 Eh     change       -0.8878324E-03 Eh
 * total energy  :   -99.3311303 Eh     change       -0.5341801E-03 Eh
 * total energy  :   -99.3318554 Eh     change       -0.7250551E-03 Eh
 * total energy  :   -99.3321463 Eh     change       -0.2909105E-03 Eh
 * total energy  :   -99.3322411 Eh     change       -0.9481539E-04 Eh
 * total energy  :   -99.3322876 Eh     change       -0.4646400E-04 Eh
   *** GEOMETRY OPTIMIZATION CONVERGED AFTER 25 ITERATIONS ***

 final structure:
================
72
 xtb: 6.6.1 (8d0f1dd)
N           -2.01293041852683        2.59369407378467        2.44820791343449
C           -1.88370084225114        2.15623519087697        1.18729105750630
C           -2.99321723438642        1.91318417520054        0.22575975604297
C           -3.48070868048736        0.46245396352096        0.31398531146529
C           -4.44482848418669        0.00119501244262       -0.58440046348876
C           -4.91848514187309       -1.29813522912279       -0.53160287179468
O           -5.85137578668932       -1.82152549734128       -1.35661132969832
C           -6.47110396262643       -0.99013256449761       -2.30820657403806
C           -4.41163658854319       -2.18919678785095        0.45009579029916
O           -4.92745230887867       -3.43668534208775        0.42297865115298
C           -4.52426603047924       -4.36348159351543        1.40327221871984
C           -3.45368987771612       -1.72654586565598        1.33538327790401
C           -2.99358219825038       -0.41569120636147        1.26619234790721
C           -2.43359762583344        2.18398627531319       -1.19936179454495
C           -1.50304105240555        1.09047848207272       -1.75735304020717
C           -0.15105181041302        1.09645785253857       -1.15776643107343
N            0.48178959779633        0.03099896604833       -0.65638779467416
C            1.86424087189485        0.13378171463770       -0.25695492693369
C            2.83060357854839       -0.33226340840733       -1.36376887858936
C            4.25133425253097       -0.12969832303228       -0.91732503878243
C            4.89248270046203        1.07818479959020       -1.13043028224802
C            6.19348339120955        1.27854095666202       -0.69308450798314
C            6.87695449309838        0.27247783647730       -0.02804632172644
O            8.14110745411627        0.35419645926333        0.43697650246057
C            8.87183339183229        1.53911032779314        0.22410344934406
C            6.22562691939078       -0.96867856372279        0.20049697908677
O            6.96434045991440       -1.89294371833476        0.85318142928309
C            6.41585405744994       -3.16661455516474        1.08924895261131
C            4.92575485937128       -1.14586739265453       -0.24327350962128
C           -0.11084188210741       -1.28383158101888       -0.67207938468674
C           -4.22649979518406        2.84089219257948        0.46399920055372
C           -5.01342029275556        2.48814536310636        1.66847359783080
C           -3.86401466479395        4.33945102350164        0.45166320743508
H           -4.83767667716243        0.67045724211368       -1.33109048679727
H           -6.98100757371464       -0.14643740752036       -1.83270218914799
H           -7.20560198929198       -1.61777239171553       -2.80891082682675
H           -5.75370962975563       -0.61706049226842       -3.04670714045808
H           -4.75744058331801       -4.00847903921534        2.41169831885779
H           -5.09275744096995       -5.26883020091557        1.19992711770853
H           -3.45442188408892       -4.58515242136034        1.33180858236811
H           -3.05675566303208       -2.37690749604412        2.09800544463468
H           -2.25269566978605       -0.09056586292242        1.98102785762154
H           -3.27209292497639        2.28274971811178       -1.88771365077856
H           -1.89948089940012        3.13447565514007       -1.19213345247019
H           -1.98263241344946        0.11931301625838       -1.65633881125256
H           -1.39415777409119        1.29758334758728       -2.83026939310559
H           -0.87950535029271        1.94226835870649        0.85421814823400
H            0.40593238953480        2.02008302367013       -1.17796889336207
H            2.02246650922972       -0.47181173014778        0.63948015404537
H            2.09083182229367        1.17339508456983       -0.01070205904630
H            2.63529146235700        0.25058181118709       -2.26554672131622
H            2.65095853361982       -1.38458483958735       -1.58652465849464
H            4.38552576557240        1.87451161508890       -1.65433727931359
H            6.66917259926585        2.22684995049195       -0.88219421195383
H            8.40195134547315        2.39512098032236        0.71855284436255
H            8.98857301358492        1.75223181717287       -0.84285562206629
H            9.85072692533775        1.36138836850257        0.66526315627478
H            7.19627569062151       -3.73125942929755        1.59574663829130
H            5.53357156314715       -3.11141803709951        1.73561074330729
H            6.15366971462559       -3.67145657456593        0.15406932245654
H            4.42463017238805       -2.08754493374064       -0.08167589264414
H           -0.25193897339868       -1.64527108714957       -1.69356688917698
H           -1.08040548274770       -1.27048061915758       -0.16867767330876
H            0.54238657324512       -1.97615623170317       -0.14734917154919
H           -4.88612854880836        2.70180658183613       -0.40752200355630
H           -2.91772491098673        2.80501002756843        2.83693237930866
H           -4.80428446290138        1.59754858025695        2.22808795931551
H           -5.99059127555501        2.93179706309753        1.77464823510062
H           -3.06990546948041        4.56622874902149        1.15733426605131
H           -3.54988854979903        4.65801120139757       -0.53847138088716
H           -4.74021536820722        4.91922121048765        0.72863839835932
H           -1.20039031730700        2.75252187767946        3.01881719086869

          :  Hamiltonian                  GFN2-xTB          :
         :: total energy             -99.332287564811 Eh    ::
         :: gradient norm              0.001724006152 Eh/a0 ::
         :: HOMO-LUMO gap              0.410224283910 eV    ::
         :: SCC energy              -100.699936186069 Eh    ::
         :: -> dispersion             -0.075234073274 Eh    ::
         :: repulsion energy           1.366255325439 Eh    ::

    * Orbital Energies and Occupations

         #    Occupation            Energy/Eh            Energy/eV
      -------------------------------------------------------------
         1        2.0000           -0.8007085             -21.7884
       ...           ...                  ...                  ...
        78        1.9995           -0.5291751             -14.3996
        79        1.9994           -0.5275487             -14.3553
        80        1.9993           -0.5230865             -14.2339
        81        1.9992           -0.5222036             -14.2099
        82        1.9991           -0.5200514             -14.1513
        83        1.9989           -0.5168345             -14.0638
        84        1.9986           -0.5129926             -13.9592
        85        1.9982           -0.5086046             -13.8398
        86        1.9917           -0.4847352             -13.1903
        87        1.9859           -0.4762540             -12.9595
        88        1.9428           -0.4536979             -12.3457
        89        1.8985           -0.4442507             -12.0887
        90        1.0443           -0.3992761             -10.8649 (HOMO)
        91        0.5933           -0.3842007             -10.4546 (LUMO)
        92        0.5315           -0.3817815             -10.3888
        93        0.0080           -0.3105853              -8.4515
        94        0.0067           -0.3076366              -8.3712
        95        0.0041           -0.3000706              -8.1653
        96        0.0035           -0.2974906              -8.0951
        97        0.0000           -0.1844900              -5.0202
        98        0.0000           -0.1747775              -4.7559
        99                         -0.1219183              -3.3176
       100                         -0.1042688              -2.8373
       101                         -0.0703301              -1.9138
       ...                                ...                  ...
       171                          0.5898431              16.0504
      -------------------------------------------------------------
                  HL-Gap            0.0150755 Eh            0.4102 eV

     #   Z          covCN         q      C6AA      α(0)
     1   7 N        2.632    -0.187    25.051     7.433
     2   6 C        2.829     0.015    27.664     8.619
     3   6 C        3.903     0.009    20.371     6.416
     4   6 C        2.972    -0.004    28.108     8.696
     5   6 C        2.921    -0.081    30.022     8.985
     6   6 C        2.863     0.128    25.190     8.227
     7   8 O        1.706    -0.236    17.907     5.713
     8   6 C        3.644     0.030    20.413     6.494
     9   6 C        2.864     0.127    25.218     8.231
    10   8 O        1.706    -0.235    17.902     5.713
    11   6 C        3.645     0.029    20.422     6.495
    12   6 C        2.914    -0.077    29.931     8.971
    13   6 C        2.921    -0.060    29.494     8.906
    14   6 C        3.811    -0.070    21.828     6.650
    15   6 C        3.802    -0.069    21.828     6.652
    16   6 C        2.842    -0.015    28.371     8.729
    17   7 N        2.728    -0.000    21.272     6.850
    18   6 C        3.756    -0.015    20.903     6.519
    19   6 C        3.807    -0.070    21.833     6.652
    20   6 C        2.969    -0.003    28.107     8.696
    21   6 C        2.922    -0.052    29.283     8.874
    22   6 C        2.914    -0.070    29.735     8.942
    23   6 C        2.865     0.130    25.147     8.220
    24   8 O        1.706    -0.231    17.825     5.700
    25   6 C        3.645     0.028    20.440     6.498
    26   6 C        2.863     0.130    25.151     8.220
    27   8 O        1.706    -0.233    17.859     5.706
    28   6 C        3.645     0.030    20.408     6.493
    29   6 C        2.920    -0.081    30.026     8.986
    30   6 C        3.699    -0.069    22.001     6.708
    31   6 C        3.854    -0.008    20.685     6.469
    32   6 C        2.836    -0.132    31.353     9.176
    33   6 C        3.753    -0.115    22.754     6.802
    34   1 H        0.926     0.047     2.360     2.402
    35   1 H        0.924     0.049     2.333     2.389
    36   1 H        0.925     0.079     1.991     2.207
    37   1 H        0.924     0.045     2.387     2.416
    38   1 H        0.924     0.051     2.314     2.379
    39   1 H        0.925     0.078     1.995     2.209
    40   1 H        0.924     0.045     2.382     2.413
    41   1 H        0.926     0.048     2.350     2.397
    42   1 H        0.926     0.030     2.581     2.512
    43   1 H        0.925     0.058     2.228     2.334
    44   1 H        0.924     0.052     2.291     2.367
    45   1 H        0.925     0.064     2.149     2.292
    46   1 H        0.923     0.074     2.047     2.237
    47   1 H        0.926     0.055     2.254     2.348
    48   1 H        0.926     0.057     2.229     2.334
    49   1 H        0.924     0.062     2.171     2.304
    50   1 H        0.924     0.062     2.172     2.305
    51   1 H        0.924     0.053     2.286     2.365
    52   1 H        0.924     0.053     2.286     2.365
    53   1 H        0.926     0.040     2.447     2.446
    54   1 H        0.926     0.054     2.276     2.359
    55   1 H        0.924     0.050     2.326     2.385
    56   1 H        0.924     0.052     2.296     2.369
    57   1 H        0.925     0.078     1.997     2.210
    58   1 H        0.925     0.078     2.000     2.212
    59   1 H        0.924     0.044     2.390     2.418
    60   1 H        0.924     0.049     2.331     2.388
    61   1 H        0.926     0.043     2.405     2.425
    62   1 H        0.924     0.072     2.068     2.249
    63   1 H        0.924     0.077     2.010     2.217
    64   1 H        0.925     0.075     2.029     2.227
    65   1 H        0.923     0.060     2.205     2.322
    66   1 H        0.860     0.215     1.032     1.591
    67   1 H        0.926     0.033     2.546     2.495
    68   1 H        0.926     0.042     2.427     2.436
    69   1 H        0.925     0.038     2.474     2.460
    70   1 H        0.925     0.043     2.409     2.427
    71   1 H        0.925     0.058     2.224     2.332
    72   1 H        0.860     0.195     1.134     1.668

Wiberg/Mayer (AO) data.
largest (>0.10) Wiberg bond orders for each atom

     #   Z sym  total        # sym  WBO       # sym  WBO       # sym  WBO
 ---------------------------------------------------------------------------
     1   7 N    3.271 --     2 C    1.354    72 H    0.945    66 H    0.920
     2   6 C    3.403 --     1 N    1.354     3 C    1.037    47 H    0.950
     3   6 C    3.985 --     2 C    1.037    14 C    0.960     4 C    0.946
                            31 C    0.941
     4   6 C    3.932 --    13 C    1.428     5 C    1.364     3 C    0.946
     5   6 C    3.966 --     6 C    1.407     4 C    1.364    34 H    0.958
     6   6 C    3.919 --     5 C    1.407     9 C    1.230     7 O    1.092
     7   8 O    2.260 --     6 C    1.092     8 C    0.980
     8   6 C    3.936 --     7 O    0.980    36 H    0.977    35 H    0.975
                            37 H    0.975
     9   6 C    3.918 --    12 C    1.402     6 C    1.230    10 O    1.094
    10   8 O    2.259 --     9 C    1.094    11 C    0.979
    11   6 C    3.936 --    10 O    0.979    39 H    0.977    40 H    0.975
                            38 H    0.975
    12   6 C    3.970 --     9 C    1.402    13 C    1.393    41 H    0.964
    13   6 C    3.965 --     4 C    1.428    12 C    1.393    42 H    0.964
    14   6 C    3.959 --    15 C    0.981    44 H    0.974    43 H    0.969
                             3 C    0.960
    15   6 C    3.989 --    16 C    1.059    14 C    0.981    45 H    0.963
                            46 H    0.934
    16   6 C    3.492 --    17 N    1.357    15 C    1.059    48 H    0.960
    17   7 N    3.420 --    16 C    1.357    30 C    1.001    18 C    0.992
    18   6 C    3.959 --    17 N    0.992    50 H    0.968    19 C    0.966
                            49 H    0.965
    19   6 C    3.975 --    20 C    1.008    52 H    0.972    51 H    0.972
                            18 C    0.966
    20   6 C    3.956 --    21 C    1.418    29 C    1.376    19 C    1.008
    21   6 C    3.960 --    20 C    1.418    22 C    1.411    53 H    0.969
    22   6 C    3.967 --    21 C    1.411    23 C    1.392    54 H    0.964
    23   6 C    3.907 --    22 C    1.392    26 C    1.230    24 O    1.099
    24   8 O    2.254 --    23 C    1.099    25 C    0.979
    25   6 C    3.933 --    24 O    0.979    57 H    0.977    55 H    0.974
                            56 H    0.974
    26   6 C    3.910 --    29 C    1.402    23 C    1.230    27 O    1.093
    27   8 O    2.253 --    26 C    1.093    28 C    0.981
    28   6 C    3.937 --    27 O    0.981    58 H    0.977    59 H    0.974
                            60 H    0.974
    29   6 C    3.965 --    26 C    1.402    20 C    1.376    61 H    0.963
    30   6 C    3.960 --    17 N    1.001    64 H    0.978    62 H    0.967
                            63 H    0.960
    31   6 C    3.965 --    32 C    1.076    33 C    0.974     3 C    0.941
                            65 H    0.917
    32   6 C    3.089 --    31 C    1.076    68 H    0.980    67 H    0.978
    33   6 C    3.955 --    70 H    0.984    69 H    0.984    71 H    0.983
                            31 C    0.974
    34   1 H    0.997 --     5 C    0.958
    35   1 H    0.996 --     8 C    0.975
    36   1 H    0.993 --     8 C    0.977
    37   1 H    0.996 --     8 C    0.975
    38   1 H    0.995 --    11 C    0.975
    39   1 H    0.993 --    11 C    0.977
    40   1 H    0.996 --    11 C    0.975
    41   1 H    0.996 --    12 C    0.964
    42   1 H    0.999 --    13 C    0.964
    43   1 H    0.994 --    14 C    0.969
    44   1 H    0.997 --    14 C    0.974
    45   1 H    0.995 --    15 C    0.963
    46   1 H    0.967 --    15 C    0.934
    47   1 H    0.996 --     2 C    0.950
    48   1 H    0.996 --    16 C    0.960
    49   1 H    0.991 --    18 C    0.965
    50   1 H    0.995 --    18 C    0.968
    51   1 H    0.996 --    19 C    0.972
    52   1 H    0.996 --    19 C    0.972
    53   1 H    0.998 --    21 C    0.969
    54   1 H    0.996 --    22 C    0.964
    55   1 H    0.994 --    25 C    0.974
    56   1 H    0.994 --    25 C    0.974
    57   1 H    0.993 --    25 C    0.977
    58   1 H    0.993 --    28 C    0.977
    59   1 H    0.995 --    28 C    0.974
    60   1 H    0.995 --    28 C    0.974
    61   1 H    0.997 --    29 C    0.963
    62   1 H    0.983 --    30 C    0.967
    63   1 H    0.986 --    30 C    0.960
    64   1 H    0.994 --    30 C    0.978
    65   1 H    0.948 --    31 C    0.917
    66   1 H    0.952 --     1 N    0.920
    67   1 H    0.997 --    32 C    0.978
    68   1 H    0.995 --    32 C    0.980
    69   1 H    0.997 --    33 C    0.984
    70   1 H    0.996 --    33 C    0.984
    71   1 H    0.996 --    33 C    0.983
    72   1 H    0.961 --     1 N    0.945
 ---------------------------------------------------------------------------

molecular dipole:
                 x           y           z       tot (Debye)
 q only:       -0.341       1.250       0.430
   full:       -0.389       1.403       0.420       3.852

           -------------------------------------------------
          | TOTAL ENERGY              -99.332287564811 Eh   |
          | GRADIENT NORM               0.001724006152 Eh/α |
          | HOMO-LUMO GAP               0.410224283910 eV   |
           -------------------------------------------------

 * finished run on 2024/04/06 at 11:15:20.357
