   * xtb version 6.6.1 (8d0f1dd) compiled by 'conda@1efc2f54142f' on 2023-08-01
          program call               : xtb struc.xyz --opt loose --input .xc1 --gfn2

   ID    Z sym.   atoms
    1    6 C      1, 3, 5-7, 10, 11, 14
    2    7 N      2, 4, 9, 13
    3    8 O      8, 12
    4    1 H      15-25
constraining bond 6 15 to    3.7133300 Å, actual value:    3.1327550 Å

          :  Hamiltonian                  GFN2-xTB          :
 * total energy  :   -42.8497032 Eh     change       -0.6650680E-10 Eh
 * total energy  :   -45.1668589 Eh     change       -0.2317156E+01 Eh
 * total energy  :   -49.1582330 Eh     change       -0.3991374E+01 Eh
 * total energy  :   -55.0332092 Eh     change       -0.5874976E+01 Eh
 * total energy  :   -56.6940502 Eh     change       -0.1660841E+01 Eh
 * total energy  :   -58.1383192 Eh     change       -0.1444269E+01 Eh
 * total energy  :   -58.7802379 Eh     change       -0.6419187E+00 Eh
 * total energy  :   -58.6844513 Eh     change        0.9578658E-01 Eh
 * total energy  :   -59.2712222 Eh     change       -0.5867709E+00 Eh
 * total energy  :   -59.3670948 Eh     change       -0.9587257E-01 Eh
 * total energy  :   -59.7511781 Eh     change       -0.2232394E-03 Eh
 * total energy  :   -59.7514376 Eh     change       -0.2594648E-03 Eh
 * total energy  :   -59.7515145 Eh     change       -0.7693522E-04 Eh
 * total energy  :   -59.7516079 Eh     change       -0.9338074E-04 Eh
 * total energy  :   -59.7516715 Eh     change       -0.6364150E-04 Eh
 * total energy  :   -59.7517243 Eh     change       -0.5273772E-04 Eh
 * total energy  :   -59.7517614 Eh     change       -0.3713375E-04 Eh
 * total energy  :   -59.7517864 Eh     change       -0.2497060E-04 Eh
 * total energy  :   -59.7518047 Eh     change       -0.1828798E-04 Eh
   *** GEOMETRY OPTIMIZATION CONVERGED AFTER 43 ITERATIONS ***

 final structure:
================
25
 xtb: 6.6.1 (8d0f1dd)
C            3.28056905343710        1.14015777161076        0.13571262522146
N            2.42271669818775        0.15318644173013        0.05969926463868
C            2.55584086536965       -1.05156436720160       -0.53312687759719
N            1.39014023612643       -1.75416506497858       -0.43610516268105
C            0.47061072881813       -1.06428238358995        0.25285065954235
C            1.07620010383730        0.24377599439782        0.71439182836205
C            0.17732029363322        1.32731804611158       -0.10156840949472
O            0.69061259706186        2.23789069115299       -0.67913662307638
N           -1.14239833482706        1.06673543815268        0.05068262174175
C           -2.09431499344138        2.12135766376589       -0.30232258657397
C           -1.72341348066758       -0.16476718436524        0.39827026915244
O           -2.89073280439291       -0.28056939214557        0.63384384295690
N           -0.86009558767195       -1.26974105593615        0.34172532598635
C           -1.43683734411242       -2.60166767174354        0.28099417537925
H            1.07923849951837        0.35188135120769        1.12482299920079
H            4.24517273453117        1.03855900447175       -0.32265245132319
H            3.00390210860339        2.04754570437296        0.63489327342743
H            3.43136689439080       -1.40057076702472       -1.03596557498677
H           -1.55992875112142        3.06561499322584       -0.35899596107227
H           -2.56075293975453        1.90556731430823       -1.26312945460461
H           -2.86517593895914        2.16288348468165        0.46561991038540
H           -0.93350004632063       -3.25830902568728        0.98989253579912
H           -1.36453245596687       -3.01236773535386       -0.72832279202812
H           -2.48867627426465       -2.51696061581086        0.55233532247057
H            1.25709965208421       -2.66927009375503       -0.84323714292860

          :  Hamiltonian                  GFN2-xTB          :
         :: total energy             -59.751804660414 Eh    ::
         :: gradient norm              0.003369246337 Eh/a0 ::
         :: HOMO-LUMO gap              1.611546644297 eV    ::
         :: SCC energy               -42.698377040164 Eh    ::
         :: -> dispersion             -0.023136194881 Eh    ::
         :: repulsion energy           2.260146039403 Eh    ::

    * Orbital Energies and Occupations

         #    Occupation            Energy/Eh            Energy/eV
      -------------------------------------------------------------
         1        2.0000           -0.9145473             -24.8861
       ...           ...                  ...                  ...
        25        2.0000           -0.6787723             -18.4703
        26        2.0000           -0.6732898             -18.3211
        27        2.0000           -0.6668387             -18.1456
        28        2.0000           -0.6634353             -18.0530
        29        1.9999           -0.6406619             -17.4333
        30        1.9998           -0.6332469             -17.2315
        31        1.9998           -0.6283870             -17.0993
        32        1.9994           -0.6109140             -16.6238
        33        1.9992           -0.6078837             -16.5414
        34        1.9973           -0.5880393             -16.0014
        35        1.9958           -0.5813168             -15.8184
        36        1.9926           -0.5723093             -15.5733
        37        1.7298           -0.5131151             -13.9626 (HOMO)
        38        0.2640           -0.4538918             -12.3510 (LUMO)
        39        0.0180           -0.4092305             -11.1357
        40        0.0042           -0.3862800             -10.5112
        41        0.0004           -0.3468847              -9.4392
        42        0.0000           -0.2408478              -6.5538
        43                         -0.2013221              -5.4783
        44                         -0.1972142              -5.3665
        45                         -0.1611826              -4.3860
        46                         -0.1328487              -3.6150
        47                         -0.0928236              -2.5259
        48                         -0.0631497              -1.7184
       ...                                ...                  ...
        67                         10.4453197             284.2316
      -------------------------------------------------------------
                  HL-Gap            0.0592232 Eh            1.6115 eV

     #   Z          covCN         q      C6AA      α(0)
     1   6 C        2.787    -0.067    29.655     8.920
     2   7 N        2.780     0.090    19.691     6.591
     3   6 C        2.913     0.001    28.006     8.678
     4   7 N        2.730    -0.050    22.206     6.999
     5   6 C        2.975     0.084    26.117     8.383
     6   6 C        3.837    -0.064    21.704     6.628
     7   6 C        2.756     0.268    22.478     7.764
     8   8 O        0.857    -0.318    20.117     6.014
     9   7 N        2.734    -0.088    22.949     7.115
    10   6 C        3.707    -0.061    21.831     6.679
    11   6 C        2.723     0.315    21.651     7.617
    12   8 O        0.859    -0.337    20.458     6.064
    13   7 N        2.734    -0.063    22.469     7.040
    14   6 C        3.697    -0.072    22.056     6.718
    15   1 H        0.940     0.190     1.150     1.676
    16   1 H        0.926     0.109     1.708     2.044
    17   1 H        0.926     0.117     1.634     1.999
    18   1 H        0.927     0.116     1.649     2.008
    19   1 H        0.925     0.104     1.751     2.069
    20   1 H        0.925     0.094     1.844     2.123
    21   1 H        0.925     0.110     1.692     2.034
    22   1 H        0.925     0.088     1.901     2.156
    23   1 H        0.924     0.082     1.964     2.191
    24   1 H        0.925     0.126     1.566     1.957
    25   1 H        0.860     0.229     0.970     1.543

Wiberg/Mayer (AO) data.
largest (>0.10) Wiberg bond orders for each atom

     #   Z sym  total        # sym  WBO       # sym  WBO       # sym  WBO
 ---------------------------------------------------------------------------
     1   6 C    3.671 --     2 N    1.435    17 H    0.965    16 H    0.962
                             3 C    0.162
     2   7 N    3.711 --     1 C    1.435     3 C    1.240     6 C    0.957
     3   6 C    3.709 --     2 N    1.240     4 N    1.194    18 H    0.954
                             1 C    0.162     5 C    0.103
     4   7 N    3.559 --     5 C    1.280     3 C    1.194    25 H    0.916
     5   6 C    3.764 --     4 N    1.280    13 N    1.205     6 C    1.012
                             3 C    0.103
     6   6 C    3.920 --     5 C    1.012     2 N    0.957    15 H    0.923
                             7 C    0.797
     7   6 C    3.908 --     8 O    1.778     9 N    1.208     6 C    0.797
     8   8 O    2.136 --     7 C    1.778     9 N    0.159
     9   7 N    3.551 --     7 C    1.208    11 C    1.052    10 C    0.951
                             8 O    0.159    12 O    0.109
    10   6 C    3.912 --    19 H    0.974    20 H    0.970    21 H    0.966
                             9 N    0.951
    11   6 C    3.917 --    12 O    1.725     9 N    1.052    13 N    1.050
    12   8 O    2.043 --    11 C    1.725    13 N    0.116     9 N    0.109
    13   7 N    3.509 --     5 C    1.205    11 C    1.050    14 C    0.966
                            12 O    0.116
    14   6 C    3.920 --    22 H    0.974    23 H    0.969    13 N    0.966
                            24 H    0.964
    15   1 H    0.960 --     6 C    0.923
    16   1 H    0.987 --     1 C    0.962
    17   1 H    0.986 --     1 C    0.965
    18   1 H    0.986 --     3 C    0.954
    19   1 H    0.988 --    10 C    0.974
    20   1 H    0.989 --    10 C    0.970
    21   1 H    0.986 --    10 C    0.966
    22   1 H    0.989 --    14 C    0.974
    23   1 H    0.989 --    14 C    0.969
    24   1 H    0.983 --    14 C    0.964
    25   1 H    0.948 --     4 N    0.916
 ---------------------------------------------------------------------------

molecular dipole:
                 x           y           z       tot (Debye)
 q only:        1.935      -1.545      -0.001
   full:        2.197      -1.862      -0.087       7.324

           -------------------------------------------------
          | TOTAL ENERGY              -59.751804660414 Eh   |
          | GRADIENT NORM               0.003369246337 Eh/α |
          | HOMO-LUMO GAP               1.611546644297 eV   |
           -------------------------------------------------

 * finished run on 2024/06/05 at 19:59:12.524
