   * xtb version 6.6.1 (8d0f1dd) compiled by 'conda@1efc2f54142f' on 2023-08-01
          program call               : xtb struc.xyz --opt loose --input .xc1 --gfn2

   ID    Z sym.   atoms
    1    6 C      1, 3, 5-7, 10, 11, 14
    2    7 N      2, 4, 9, 13
    3    8 O      8, 12
    4    1 H      15-25
constraining bond 6 17 to    3.7133300 Å, actual value:    2.5833586 Å

          :  Hamiltonian                  GFN2-xTB          :
 * total energy  :   -44.5276889 Eh     change       -0.6650680E-10 Eh
 * total energy  :   -48.3493096 Eh     change       -0.3821621E+01 Eh
 * total energy  :   -53.9883904 Eh     change       -0.5639081E+01 Eh
 * total energy  :   -59.2935197 Eh     change       -0.5305129E+01 Eh
 * total energy  :   -58.6506757 Eh     change        0.6428439E+00 Eh
 * total energy  :   -59.3940823 Eh     change       -0.7434066E+00 Eh
 * total energy  :   -59.4248735 Eh     change       -0.3079121E-01 Eh
 * total energy  :   -59.4866330 Eh     change       -0.6175948E-01 Eh
 * total energy  :   -59.4997176 Eh     change       -0.1308454E-01 Eh
 * total energy  :   -59.5299205 Eh     change       -0.3020298E-01 Eh
 * total energy  :   -59.7512299 Eh     change       -0.3348655E-03 Eh
 * total energy  :   -59.7514425 Eh     change       -0.2125246E-03 Eh
 * total energy  :   -59.7515599 Eh     change       -0.1174082E-03 Eh
 * total energy  :   -59.7516638 Eh     change       -0.1039111E-03 Eh
 * total energy  :   -59.7517217 Eh     change       -0.5786112E-04 Eh
 * total energy  :   -59.7517657 Eh     change       -0.4404375E-04 Eh
 * total energy  :   -59.7517953 Eh     change       -0.2956413E-04 Eh
 * total energy  :   -59.7518073 Eh     change       -0.1204454E-04 Eh
 * total energy  :   -59.7518183 Eh     change       -0.1099321E-04 Eh
   *** GEOMETRY OPTIMIZATION CONVERGED AFTER 62 ITERATIONS ***

 final structure:
================
25
 xtb: 6.6.1 (8d0f1dd)
C            3.30179270112811        1.07415543468764       -0.21166299950220
N            2.42522693831428        0.10483324440565       -0.12983209673949
C            2.55132593754376       -1.11971317364939        0.42416546148358
N            1.36817117142088       -1.79513597288679        0.35092293791559
C            0.44062169011831       -1.06492814579184       -0.28316877312748
C            1.05930804090208        0.24019570106318       -0.73550170321005
C            0.21185301445946        1.32230351947486        0.13364278563130
O            0.76104366841281        2.20738224611342        0.71782379812368
N           -1.11840970452160        1.09581203116547        0.01383629260744
C           -2.03214980851851        2.16002950579929        0.43010657396659
C           -1.73687588122107       -0.11357291832889       -0.34087721346505
O           -2.91311261709354       -0.20260124676526       -0.54130060752332
N           -0.89559778730853       -1.23846781349015       -0.33728288071651
C           -1.50254641062099       -2.55728499035797       -0.27608434851835
H            3.02698418286713        2.00124238161592       -0.67554830485760
H            4.27800286414921        0.94477652596001        0.21492426595703
H            1.04684800370288        0.35556693167024       -1.14376474572611
H            3.43658932273973       -1.49707664754512        0.88938060003146
H           -1.48710012214188        3.10001649300781        0.44327950879539
H           -2.85646432361413        2.20537435832053       -0.27894254678520
H           -2.42881575934812        1.95348815050372        1.42374487906641
H           -1.43366862497905       -2.97021474287794        0.73172560207149
H           -1.01876747856537       -3.22335803349127       -0.98845348562189
H           -2.55368155551204       -2.44725041085771       -0.53964572437380
H            1.22985405178350       -2.71733388614639        0.73968434241793

          :  Hamiltonian                  GFN2-xTB          :
         :: total energy             -59.751818299671 Eh    ::
         :: gradient norm              0.003052075921 Eh/a0 ::
         :: HOMO-LUMO gap              1.611475328528 eV    ::
         :: SCC energy               -42.698597835417 Eh    ::
         :: -> dispersion             -0.023136269384 Eh    ::
         :: repulsion energy           2.260425950361 Eh    ::

    * Orbital Energies and Occupations

         #    Occupation            Energy/Eh            Energy/eV
      -------------------------------------------------------------
         1        2.0000           -0.9145829             -24.8871
       ...           ...                  ...                  ...
        25        2.0000           -0.6789054             -18.4740
        26        2.0000           -0.6733932             -18.3240
        27        2.0000           -0.6668963             -18.1472
        28        2.0000           -0.6634259             -18.0527
        29        1.9999           -0.6407769             -17.4364
        30        1.9998           -0.6331917             -17.2300
        31        1.9998           -0.6285808             -17.1046
        32        1.9994           -0.6108504             -16.6221
        33        1.9992           -0.6080147             -16.5449
        34        1.9974           -0.5883987             -16.0111
        35        1.9959           -0.5812765             -15.8173
        36        1.9927           -0.5723944             -15.5756
        37        1.7295           -0.5128629             -13.9557 (HOMO)
        38        0.2637           -0.4536423             -12.3442 (LUMO)
        39        0.0182           -0.4092606             -11.1365
        40        0.0043           -0.3861165             -10.5068
        41        0.0004           -0.3471748              -9.4471
        42        0.0000           -0.2409017              -6.5553
        43                         -0.2011427              -5.4734
        44                         -0.1966669              -5.3516
        45                         -0.1609146              -4.3787
        46                         -0.1330667              -3.6209
        47                         -0.0929629              -2.5296
        48                         -0.0639308              -1.7396
       ...                                ...                  ...
        67                         10.4417600             284.1348
      -------------------------------------------------------------
                  HL-Gap            0.0592206 Eh            1.6115 eV

     #   Z          covCN         q      C6AA      α(0)
     1   6 C        2.787    -0.067    29.657     8.920
     2   7 N        2.779     0.090    19.691     6.590
     3   6 C        2.915     0.001    28.015     8.679
     4   7 N        2.729    -0.050    22.204     6.998
     5   6 C        2.977     0.085    26.105     8.381
     6   6 C        3.838    -0.064    21.703     6.628
     7   6 C        2.757     0.268    22.483     7.765
     8   8 O        0.857    -0.318    20.110     6.012
     9   7 N        2.735    -0.087    22.945     7.114
    10   6 C        3.708    -0.062    21.832     6.679
    11   6 C        2.723     0.315    21.650     7.617
    12   8 O        0.859    -0.337    20.460     6.065
    13   7 N        2.734    -0.064    22.473     7.041
    14   6 C        3.697    -0.072    22.057     6.718
    15   1 H        0.926     0.117     1.635     2.000
    16   1 H        0.926     0.109     1.709     2.044
    17   1 H        0.940     0.190     1.150     1.676
    18   1 H        0.927     0.115     1.651     2.009
    19   1 H        0.925     0.103     1.756     2.072
    20   1 H        0.925     0.111     1.684     2.029
    21   1 H        0.925     0.093     1.849     2.127
    22   1 H        0.924     0.082     1.958     2.188
    23   1 H        0.925     0.087     1.903     2.158
    24   1 H        0.925     0.126     1.564     1.956
    25   1 H        0.860     0.229     0.970     1.542

Wiberg/Mayer (AO) data.
largest (>0.10) Wiberg bond orders for each atom

     #   Z sym  total        # sym  WBO       # sym  WBO       # sym  WBO
 ---------------------------------------------------------------------------
     1   6 C    3.672 --     2 N    1.436    15 H    0.965    16 H    0.962
                             3 C    0.163
     2   7 N    3.711 --     1 C    1.436     3 C    1.240     6 C    0.957
     3   6 C    3.708 --     2 N    1.240     4 N    1.193    18 H    0.954
                             1 C    0.163     5 C    0.103
     4   7 N    3.559 --     5 C    1.281     3 C    1.193    25 H    0.916
     5   6 C    3.766 --     4 N    1.281    13 N    1.208     6 C    1.011
                             3 C    0.103
     6   6 C    3.920 --     5 C    1.011     2 N    0.957    17 H    0.923
                             7 C    0.798
     7   6 C    3.907 --     8 O    1.779     9 N    1.206     6 C    0.798
     8   8 O    2.135 --     7 C    1.779     9 N    0.158
     9   7 N    3.551 --     7 C    1.206    11 C    1.054    10 C    0.951
                             8 O    0.158    12 O    0.109
    10   6 C    3.912 --    19 H    0.974    21 H    0.969    20 H    0.966
                             9 N    0.951
    11   6 C    3.916 --    12 O    1.725     9 N    1.054    13 N    1.047
    12   8 O    2.043 --    11 C    1.725    13 N    0.116     9 N    0.109
    13   7 N    3.509 --     5 C    1.208    11 C    1.047    14 C    0.966
                            12 O    0.116
    14   6 C    3.921 --    23 H    0.974    22 H    0.969    13 N    0.966
                            24 H    0.964
    15   1 H    0.986 --     1 C    0.965
    16   1 H    0.987 --     1 C    0.962
    17   1 H    0.960 --     6 C    0.923
    18   1 H    0.986 --     3 C    0.954
    19   1 H    0.988 --    10 C    0.974
    20   1 H    0.986 --    10 C    0.966
    21   1 H    0.989 --    10 C    0.969
    22   1 H    0.989 --    14 C    0.969
    23   1 H    0.989 --    14 C    0.974
    24   1 H    0.983 --    14 C    0.964
    25   1 H    0.948 --     4 N    0.916
 ---------------------------------------------------------------------------

molecular dipole:
                 x           y           z       tot (Debye)
 q only:        1.900      -1.584      -0.083
   full:        2.156      -1.907      -0.008       7.317

           -------------------------------------------------
          | TOTAL ENERGY              -59.751818299671 Eh   |
          | GRADIENT NORM               0.003052075921 Eh/α |
          | HOMO-LUMO GAP               1.611475328528 eV   |
           -------------------------------------------------

 * finished run on 2024/06/05 at 19:58:33.012
