   * xtb version 6.6.1 (8d0f1dd) compiled by 'conda@1efc2f54142f' on 2023-08-01
          program call               : xtb xtbopt.xyz --opt crude --input .xc2 --gfn2

   ID    Z sym.   atoms
    1    6 C      1, 3, 5-7, 10, 11, 14
    2    7 N      2, 4, 9, 13
    3    8 O      8, 12
    4    1 H      15-25
########################################################################
[WARNING] Please study the warnings concerning your input carefully
-1- readin_getIntValue: could not parse ''
########################################################################

          :  Hamiltonian                  GFN2-xTB          :
 * total energy  :   -40.4380131 Eh     change       -0.3907985E-12 Eh
 * total energy  :   -42.1514201 Eh     change       -0.1713407E+01 Eh
 * total energy  :   -42.1688161 Eh     change       -0.1739599E-01 Eh
 * total energy  :   -42.1725591 Eh     change       -0.3742954E-02 Eh
 * total energy  :   -42.1732904 Eh     change       -0.7313575E-03 Eh
 * total energy  :   -42.1738941 Eh     change       -0.6037222E-03 Eh
 * total energy  :   -42.1745200 Eh     change       -0.6258706E-03 Eh
 * total energy  :   -42.1750503 Eh     change       -0.5303244E-03 Eh
 * total energy  :   -42.1753149 Eh     change       -0.2645506E-03 Eh
   *** GEOMETRY OPTIMIZATION CONVERGED AFTER 9 ITERATIONS ***

 final structure:
================
25
 xtb: 6.6.1 (8d0f1dd)
C            3.29757980579902        1.07077044845902       -0.10957903392960
N            2.42008926508891        0.09570378135920       -0.08323994613203
C            2.56504143954188       -1.16106994489480        0.39138569557436
N            1.38422625654358       -1.84161468351420        0.30065437136010
C            0.44265633604738       -1.07639186586258       -0.26503492755339
C            1.05698291896992        0.23487230689868       -0.57795115981593
C            0.21647161114531        1.33876825050156        0.14013152289567
O            0.72365608887757        2.29075101136476        0.66064033833100
N           -1.12243858274118        1.09035291797408        0.05443077426532
C           -2.04097977191395        2.17518640109666        0.39869415282088
C           -1.73687630551904       -0.12015012357517       -0.27604204443693
O           -2.91740371471934       -0.22318174004476       -0.45075707293762
N           -0.89189211139700       -1.24663542620928       -0.29656055126219
C           -1.49861173003774       -2.56454811162156       -0.22800887799393
H            3.02073893126053        2.02871471494007       -0.50195581645836
H            4.27601247665311        0.90950027876702        0.30287750215905
H            1.03232111543493        0.51817499919326       -1.63861237492038
H            3.47025172883733       -1.56767442309083        0.78741683381108
H           -1.48754090015670        3.11010565013961        0.39734748730215
H           -2.84129010932983        2.20131363227126       -0.33890883022724
H           -2.47434775915678        2.00767880282900        1.38396650288947
H           -1.44364121636403       -2.96664038004093        0.78506962680889
H           -1.00587182258019       -3.23820161456087       -0.92665213890355
H           -2.54677639860052       -2.45772337076999       -0.50464060597751
H            1.26207396241412       -2.78982297001019        0.62650019023149

          :  Hamiltonian                  GFN2-xTB          :
         :: total energy             -42.175314886226 Eh    ::
         :: gradient norm              0.007905483147 Eh/a0 ::
         :: HOMO-LUMO gap              1.593153251478 eV    ::
         :: SCC energy               -42.691802831504 Eh    ::
         :: -> dispersion             -0.023053905596 Eh    ::
         :: repulsion energy           0.516323376566 Eh    ::

    * Orbital Energies and Occupations

         #    Occupation            Energy/Eh            Energy/eV
      -------------------------------------------------------------
         1        2.0000           -0.9066924             -24.6724
       ...           ...                  ...                  ...
        25        2.0000           -0.6771879             -18.4272
        26        2.0000           -0.6728015             -18.3079
        27        2.0000           -0.6644816             -18.0815
        28        2.0000           -0.6604999             -17.9731
        29        1.9999           -0.6369776             -17.3330
        30        1.9999           -0.6329088             -17.2223
        31        1.9998           -0.6283314             -17.0978
        32        1.9993           -0.6075607             -16.5326
        33        1.9991           -0.6041031             -16.4385
        34        1.9974           -0.5870430             -15.9743
        35        1.9953           -0.5776064             -15.7175
        36        1.9921           -0.5694461             -15.4954
        37        1.7253           -0.5109882             -13.9047 (HOMO)
        38        0.2694           -0.4524409             -12.3115 (LUMO)
        39        0.0179           -0.4073876             -11.0856
        40        0.0045           -0.3852738             -10.4838
        41        0.0003           -0.3422422              -9.3129
        42                         -0.2120611              -5.7705
        43                         -0.1910623              -5.1991
        44                         -0.1579329              -4.2976
        45                         -0.1486684              -4.0455
        46                         -0.1065039              -2.8981
        47                         -0.0781798              -2.1274
        48                         -0.0601310              -1.6362
       ...                                ...                  ...
        67                          0.5339702              14.5301
      -------------------------------------------------------------
                  HL-Gap            0.0585473 Eh            1.5932 eV

     #   Z          covCN         q      C6AA      α(0)
     1   6 C        2.789    -0.071    29.755     8.935
     2   7 N        2.780     0.107    19.396     6.541
     3   6 C        2.952    -0.002    28.076     8.691
     4   7 N        2.743    -0.047    22.155     6.991
     5   6 C        2.975     0.089    26.006     8.365
     6   6 C        3.901    -0.009    20.676     6.463
     7   6 C        2.763     0.271    22.420     7.754
     8   8 O        0.857    -0.326    20.265     6.036
     9   7 N        2.736    -0.088    22.965     7.117
    10   6 C        3.708    -0.062    21.841     6.680
    11   6 C        2.723     0.314    21.666     7.620
    12   8 O        0.859    -0.341    20.531     6.075
    13   7 N        2.735    -0.059    22.385     7.027
    14   6 C        3.697    -0.072    22.061     6.718
    15   1 H        0.926     0.119     1.620     1.990
    16   1 H        0.926     0.109     1.706     2.042
    17   1 H        0.923     0.121     1.604     1.981
    18   1 H        0.927     0.115     1.655     2.012
    19   1 H        0.925     0.105     1.741     2.063
    20   1 H        0.925     0.108     1.710     2.045
    21   1 H        0.925     0.094     1.837     2.120
    22   1 H        0.924     0.084     1.939     2.178
    23   1 H        0.925     0.086     1.917     2.165
    24   1 H        0.925     0.127     1.558     1.952
    25   1 H        0.860     0.228     0.975     1.547

Wiberg/Mayer (AO) data.
largest (>0.10) Wiberg bond orders for each atom

     #   Z sym  total        # sym  WBO       # sym  WBO       # sym  WBO
 ---------------------------------------------------------------------------
     1   6 C    3.660 --     2 N    1.427    15 H    0.964    16 H    0.964
                             3 C    0.166
     2   7 N    3.715 --     1 C    1.427     3 C    1.236     6 C    0.977
     3   6 C    3.702 --     2 N    1.236     4 N    1.187    18 H    0.956
                             1 C    0.166     5 C    0.100
     4   7 N    3.559 --     5 C    1.282     3 C    1.187    25 H    0.918
     5   6 C    3.764 --     4 N    1.282    13 N    1.219     6 C    1.016
                             3 C    0.100
     6   6 C    3.964 --     5 C    1.016     2 N    0.977    17 H    0.913
                             7 C    0.867
     7   6 C    3.920 --     8 O    1.766     9 N    1.184     6 C    0.867
     8   8 O    2.108 --     7 C    1.766     9 N    0.158
     9   7 N    3.552 --     7 C    1.184    11 C    1.071    10 C    0.955
                             8 O    0.158    12 O    0.113
    10   6 C    3.913 --    19 H    0.973    21 H    0.969    20 H    0.967
                             9 N    0.955
    11   6 C    3.919 --    12 O    1.720     9 N    1.071    13 N    1.039
    12   8 O    2.041 --    11 C    1.720     9 N    0.113    13 N    0.113
    13   7 N    3.513 --     5 C    1.219    11 C    1.039    14 C    0.969
                            12 O    0.113
    14   6 C    3.921 --    23 H    0.974    13 N    0.969    22 H    0.968
                            24 H    0.964
    15   1 H    0.986 --     1 C    0.964
    16   1 H    0.987 --     1 C    0.964
    17   1 H    0.965 --     6 C    0.913
    18   1 H    0.986 --     3 C    0.956
    19   1 H    0.988 --    10 C    0.973
    20   1 H    0.986 --    10 C    0.967
    21   1 H    0.988 --    10 C    0.969
    22   1 H    0.988 --    14 C    0.968
    23   1 H    0.989 --    14 C    0.974
    24   1 H    0.983 --    14 C    0.964
    25   1 H    0.948 --     4 N    0.918
 ---------------------------------------------------------------------------

molecular dipole:
                 x           y           z       tot (Debye)
 q only:        1.987      -1.684      -0.143
   full:        2.241      -2.018      -0.165       7.678

           -------------------------------------------------
          | TOTAL ENERGY              -42.175314886226 Eh   |
          | GRADIENT NORM               0.007905483147 Eh/α |
          | HOMO-LUMO GAP               1.593153251478 eV   |
           -------------------------------------------------

 * finished run on 2024/06/05 at 19:58:33.393
