   * xtb version 6.6.1 (8d0f1dd) compiled by 'conda@1efc2f54142f' on 2023-08-01
          program call               : xtb struc.xyz --opt loose --input .xc1 --gfn2

   ID    Z sym.   atoms
    1    6 C      1, 3, 5-7, 10, 11, 14
    2    7 N      2, 4, 9, 13
    3    8 O      8, 12
    4    1 H      15-25
constraining bond 3 15 to    3.7133300 Å, actual value:    2.8727362 Å

          :  Hamiltonian                  GFN2-xTB          :
 * total energy  :   -43.5217037 Eh     change       -0.2401990E-09 Eh
 * total energy  :   -46.5581385 Eh     change       -0.3036435E+01 Eh
 * total energy  :   -51.3794671 Eh     change       -0.4821329E+01 Eh
 * total energy  :   -57.9549658 Eh     change       -0.6575499E+01 Eh
 * total energy  :   -31.6837934 Eh     change        0.2627117E+02 Eh
 * total energy  :   -56.7668965 Eh     change       -0.2508310E+02 Eh
 * total energy  :   -56.9005117 Eh     change       -0.1336152E+00 Eh
 * total energy  :   -57.7170287 Eh     change       -0.8165170E+00 Eh
 * total energy  :   -57.7962537 Eh     change       -0.7922493E-01 Eh
 * total energy  :   -59.1645393 Eh     change       -0.1368286E+01 Eh
 * total energy  :   -59.7705164 Eh     change       -0.2499573E-01 Eh
 * total energy  :   -59.7705491 Eh     change       -0.3262609E-04 Eh
 * total energy  :   -59.7706313 Eh     change       -0.8225371E-04 Eh
 * total energy  :   -59.7706651 Eh     change       -0.3375590E-04 Eh
 * total energy  :   -59.7707303 Eh     change       -0.6524168E-04 Eh
 * total energy  :   -59.7707755 Eh     change       -0.4513925E-04 Eh
 * total energy  :   -59.7708193 Eh     change       -0.4387527E-04 Eh
 * total energy  :   -59.7708577 Eh     change       -0.3839841E-04 Eh
 * total energy  :   -59.7708980 Eh     change       -0.4026705E-04 Eh
   *** GEOMETRY OPTIMIZATION CONVERGED AFTER 53 ITERATIONS ***

 final structure:
================
25
 xtb: 6.6.1 (8d0f1dd)
C            3.23495300012660        1.19333520839364        0.07968146384516
N            2.21318666739754        0.25983072529810       -0.15145339567159
C            3.48798533652312       -0.31286867691538        0.24816994904899
N            1.16389232836609       -2.21129525624161        0.09224629400550
C            0.35016193313413       -1.23022838071523        0.01977969527380
C            0.90946814802525        0.09897645232132       -0.06779295973852
C            0.06484050241381        1.28554478900737       -0.12344231802842
O            0.52004115301602        2.41240160861346       -0.18236550612902
N           -1.29576024626575        1.03517949063760       -0.09003034633311
C           -2.20739835706865        2.16118639039762       -0.12589140811755
C           -1.87922263553631       -0.21999286689076       -0.01621769059843
O           -3.07962729378666       -0.34313038325107        0.01156427810316
N           -1.03238021864946       -1.31769108067027        0.02309480534163
C           -1.65152749454850       -2.62713493957904        0.09926693092247
H            3.54900307628194       -0.50667333991593        0.62064315462894
H            3.61656497712333        1.71966231911500       -0.78867042337949
H            3.15276562079692        1.82065107268373        0.96227784001275
H            3.98245192874808       -0.69723863561545       -0.68714912454168
H           -1.62734838728395        3.06795686445746       -0.29437282119254
H           -2.93959956882449        2.01965319275369       -0.92339744442658
H           -2.75064424249673        2.23612637156865        0.81942797829996
H           -1.39115265113683       -3.12011148641124        1.03824367968727
H           -1.33404387021563       -3.24709784985855       -0.74110692278488
H           -2.73212815398399       -2.49537559632938        0.05689729969350
H            0.83594996194410       -3.16342745125434        0.15176860997917

          :  Hamiltonian                  GFN2-xTB          :
         :: total energy             -59.770897992151 Eh    ::
         :: gradient norm              0.003326819870 Eh/a0 ::
         :: HOMO-LUMO gap              1.761737917344 eV    ::
         :: SCC energy               -42.716360011145 Eh    ::
         :: -> dispersion             -0.021790438428 Eh    ::
         :: repulsion energy           2.260889131756 Eh    ::

    * Orbital Energies and Occupations

         #    Occupation            Energy/Eh            Energy/eV
      -------------------------------------------------------------
         1        2.0000           -0.8946976             -24.3460
       ...           ...                  ...                  ...
        25        1.9937           -0.6559705             -17.8499
        26        1.9932           -0.6544530             -17.8086
        27        1.9922           -0.6510659             -17.7164
        28        1.9874           -0.6395228             -17.4023
        29        1.9838           -0.6335459             -17.2397
        30        1.9821           -0.6311513             -17.1745
        31        1.9750           -0.6232088             -16.9584
        32        1.9729           -0.6212582             -16.9053
        33        1.9341           -0.5996720             -16.3179
        34        1.8956           -0.5882697             -16.0076
        35        1.8877           -0.5864432             -15.9579
        36        1.8385           -0.5771763             -15.7058
        37        1.8022           -0.5718933             -15.5620 (HOMO)
        38        0.7475           -0.5071506             -13.8003 (LUMO)
        39        0.0141           -0.4019530             -10.9377
        40        0.0088           -0.3907246             -10.6322
        41        0.0002           -0.3024431              -8.2299
        42        0.0001           -0.2914806              -7.9316
        43        0.0000           -0.2130470              -5.7973
        44        0.0000           -0.1675422              -4.5591
        45        0.0000           -0.1402645              -3.8168
        46                         -0.0904892              -2.4623
        47                         -0.0625395              -1.7018
        48                         -0.0503340              -1.3697
       ...                                ...                  ...
        67                         10.7763320             293.2389
      -------------------------------------------------------------
                  HL-Gap            0.0647427 Eh            1.7617 eV

     #   Z          covCN         q      C6AA      α(0)
     1   6 C        3.736    -0.014    20.907     6.525
     2   7 N        2.745     0.041    20.529     6.729
     3   6 C        3.730    -0.063    21.802     6.665
     4   7 N        1.791    -0.274    27.934     7.828
     5   6 C        2.826     0.161    24.515     8.113
     6   6 C        2.900     0.028    27.386     8.581
     7   6 C        2.772     0.262    22.592     7.785
     8   8 O        0.858    -0.331    20.352     6.049
     9   7 N        2.741    -0.060    22.408     7.031
    10   6 C        3.706    -0.061    21.821     6.678
    11   6 C        2.718     0.320    21.562     7.601
    12   8 O        0.860    -0.334    20.408     6.057
    13   7 N        2.741    -0.061    22.429     7.034
    14   6 C        3.703    -0.064    21.886     6.689
    15   1 H        0.935     0.188     1.159     1.683
    16   1 H        0.925     0.124     1.578     1.965
    17   1 H        0.925     0.120     1.611     1.985
    18   1 H        0.919     0.120     1.618     1.989
    19   1 H        0.925     0.127     1.555     1.950
    20   1 H        0.924     0.121     1.604     1.980
    21   1 H        0.924     0.119     1.625     1.993
    22   1 H        0.924     0.100     1.781     2.087
    23   1 H        0.924     0.100     1.784     2.089
    24   1 H        0.925     0.129     1.541     1.942
    25   1 H        0.860     0.202     1.097     1.641

Wiberg/Mayer (AO) data.
largest (>0.10) Wiberg bond orders for each atom

     #   Z sym  total        # sym  WBO       # sym  WBO       # sym  WBO
 ---------------------------------------------------------------------------
     1   6 C    3.868 --     2 N    0.985     3 C    0.953    16 H    0.944
                            17 H    0.940
     2   7 N    3.356 --     6 C    1.368     1 C    0.985     3 C    0.936
     3   6 C    3.817 --     1 C    0.953    15 H    0.943     2 N    0.936
                            18 H    0.927
     4   7 N    2.729 --     5 C    1.626    25 H    0.919
     5   6 C    3.915 --     4 N    1.626    13 N    1.103     6 C    1.094
     6   6 C    3.701 --     2 N    1.368     5 C    1.094     7 C    1.049
     7   6 C    3.894 --     8 O    1.641     9 N    1.111     6 C    1.049
     8   8 O    1.878 --     7 C    1.641     9 N    0.118
     9   7 N    3.472 --     7 C    1.111    11 C    1.096    10 C    0.981
                             8 O    0.118    12 O    0.102
    10   6 C    3.848 --     9 N    0.981    19 H    0.951    20 H    0.940
                            21 H    0.936
    11   6 C    3.933 --    12 O    1.657    13 N    1.099     9 N    1.096
    12   8 O    1.945 --    11 C    1.657    13 N    0.107     9 N    0.102
    13   7 N    3.451 --     5 C    1.103    11 C    1.099    14 C    0.983
                            12 O    0.107
    14   6 C    3.880 --    13 N    0.983    23 H    0.952    24 H    0.951
                            22 H    0.950
    15   1 H    0.958 --     3 C    0.943
    16   1 H    0.965 --     1 C    0.944
    17   1 H    0.963 --     1 C    0.940
    18   1 H    0.958 --     3 C    0.927
    19   1 H    0.968 --    10 C    0.951
    20   1 H    0.956 --    10 C    0.940
    21   1 H    0.952 --    10 C    0.936
    22   1 H    0.967 --    14 C    0.950
    23   1 H    0.968 --    14 C    0.952
    24   1 H    0.972 --    14 C    0.951
    25   1 H    0.946 --     4 N    0.919
 ---------------------------------------------------------------------------

molecular dipole:
                 x           y           z       tot (Debye)
 q only:        1.644      -0.725       0.086
   full:        1.366      -0.924       0.066       4.195

           -------------------------------------------------
          | TOTAL ENERGY              -59.770897992151 Eh   |
          | GRADIENT NORM               0.003326819870 Eh/α |
          | HOMO-LUMO GAP               1.761737917344 eV   |
           -------------------------------------------------

 * finished run on 2024/06/05 at 19:58:57.273
