   * xtb version 6.6.1 (8d0f1dd) compiled by 'conda@1efc2f54142f' on 2023-08-01
          program call               : xtb xtbopt.xyz --opt crude --input .xc2 --gfn2

   ID    Z sym.   atoms
    1    6 C      1, 3, 5-7, 10, 11, 14
    2    7 N      2, 4, 9, 13
    3    8 O      8, 12
    4    1 H      15-25
########################################################################
[WARNING] Please study the warnings concerning your input carefully
-1- readin_getIntValue: could not parse ''
########################################################################

          :  Hamiltonian                  GFN2-xTB          :
 * total energy  :   -40.4553660 Eh     change       -0.1207923E-12 Eh
 * total energy  :   -42.1613888 Eh     change       -0.1706023E+01 Eh
 * total energy  :   -42.1805166 Eh     change       -0.1912781E-01 Eh
 * total energy  :   -42.1836027 Eh     change       -0.3086169E-02 Eh
 * total energy  :   -42.1849219 Eh     change       -0.1319217E-02 Eh
 * total energy  :   -42.1853992 Eh     change       -0.4772584E-03 Eh
 * total energy  :   -42.1858726 Eh     change       -0.4733925E-03 Eh
 * total energy  :   -42.1861361 Eh     change       -0.2634975E-03 Eh
 * total energy  :   -42.1863488 Eh     change       -0.2126600E-03 Eh
 * total energy  :   -42.1864702 Eh     change       -0.1214168E-03 Eh
   *** GEOMETRY OPTIMIZATION CONVERGED AFTER 10 ITERATIONS ***

 final structure:
================
25
 xtb: 6.6.1 (8d0f1dd)
C            3.25786567828959        1.21880118254856        0.01029391003382
N            2.20322087623567        0.29742274741507       -0.13905432481905
C            3.47332134009614       -0.25761472799148        0.10449234683574
N            1.17219745669111       -2.18849933889978        0.07784160824092
C            0.35457960286394       -1.20925162451580        0.01762282172860
C            0.90357850332165        0.12541953917225       -0.06229709600170
C            0.04657613841669        1.30461890229422       -0.10525885063426
O            0.49296502774107        2.43595480374848       -0.14796545595064
N           -1.31140570433331        1.04154268839818       -0.08588791558837
C           -2.23346976592390        2.15993822522307       -0.12147259516907
C           -1.88428897125489       -0.21830409090673       -0.02707668089451
O           -3.08360234029949       -0.35399762197020       -0.01918358820210
N           -1.02705625744339       -1.30858177517809        0.02495329849297
C           -1.63569234521829       -2.62400875689854        0.09200637619392
H            3.62949542436902       -0.73880928087437        1.06032841757008
H            3.57984457961337        1.74108091554032       -0.88581460337928
H            3.25242714619186        1.84685886927818        0.89599010086138
H            3.93762427164175       -0.77268520378315       -0.72923281682689
H           -1.65960836525903        3.07337269186066       -0.27196236353494
H           -2.95299926263847        2.02049095103124       -0.93027371485813
H           -2.78929274574815        2.21854634204758        0.81716433504056
H           -1.35551940014112       -3.12780754096197        1.01968589168357
H           -1.32916860178510       -3.22944003507436       -0.76359068745272
H           -2.71812573171587       -2.49825995010139        0.06941368024251
H            0.83696496038915       -3.13854936980258        0.13044952428807

          :  Hamiltonian                  GFN2-xTB          :
         :: total energy             -42.186470171460 Eh    ::
         :: gradient norm              0.003919065014 Eh/a0 ::
         :: HOMO-LUMO gap              1.807122119132 eV    ::
         :: SCC energy               -42.707854510915 Eh    ::
         :: -> dispersion             -0.021767529105 Eh    ::
         :: repulsion energy           0.521276776414 Eh    ::

    * Orbital Energies and Occupations

         #    Occupation            Energy/Eh            Energy/eV
      -------------------------------------------------------------
         1        2.0000           -0.8930854             -24.3021
       ...           ...                  ...                  ...
        25        1.9939           -0.6546195             -17.8131
        26        1.9931           -0.6516374             -17.7320
        27        1.9924           -0.6495411             -17.6749
        28        1.9881           -0.6387644             -17.3817
        29        1.9843           -0.6321909             -17.2028
        30        1.9826           -0.6297337             -17.1359
        31        1.9756           -0.6215196             -16.9124
        32        1.9741           -0.6200733             -16.8731
        33        1.9357           -0.5980479             -16.2737
        34        1.8985           -0.5867520             -15.9663
        35        1.8912           -0.5850025             -15.9187
        36        1.8435           -0.5757683             -15.6675
        37        1.8065           -0.5702439             -15.5171 (HOMO)
        38        0.7261           -0.5038334             -13.7100 (LUMO)
        39        0.0146           -0.4005394             -10.8992
        40        0.0089           -0.3887347             -10.5780
        41        0.0002           -0.2986181              -8.1258
        42        0.0001           -0.2670402              -7.2665
        43        0.0000           -0.2104582              -5.7269
        44        0.0000           -0.1616449              -4.3986
        45        0.0000           -0.1369819              -3.7275
        46                         -0.0880508              -2.3960
        47                         -0.0576373              -1.5684
        48                         -0.0485783              -1.3219
       ...                                ...                  ...
        67                          0.5380256              14.6404
      -------------------------------------------------------------
                  HL-Gap            0.0664105 Eh            1.8071 eV

     #   Z          covCN         q      C6AA      α(0)
     1   6 C        3.737    -0.012    20.869     6.519
     2   7 N        2.744     0.069    20.048     6.650
     3   6 C        3.738    -0.016    20.941     6.530
     4   7 N        1.790    -0.279    28.062     7.846
     5   6 C        2.826     0.160    24.527     8.115
     6   6 C        2.899     0.025    27.449     8.590
     7   6 C        2.772     0.262    22.590     7.784
     8   8 O        0.858    -0.333    20.389     6.054
     9   7 N        2.741    -0.061    22.421     7.033
    10   6 C        3.706    -0.061    21.819     6.677
    11   6 C        2.718     0.320    21.565     7.602
    12   8 O        0.860    -0.336    20.434     6.061
    13   7 N        2.741    -0.063    22.451     7.037
    14   6 C        3.702    -0.064    21.885     6.689
    15   1 H        0.925     0.120     1.615     1.987
    16   1 H        0.925     0.127     1.557     1.951
    17   1 H        0.925     0.122     1.596     1.976
    18   1 H        0.925     0.126     1.570     1.959
    19   1 H        0.925     0.127     1.561     1.954
    20   1 H        0.924     0.120     1.611     1.985
    21   1 H        0.924     0.118     1.633     1.999
    22   1 H        0.924     0.099     1.792     2.094
    23   1 H        0.924     0.099     1.792     2.094
    24   1 H        0.925     0.129     1.543     1.943
    25   1 H        0.860     0.202     1.098     1.642

Wiberg/Mayer (AO) data.
largest (>0.10) Wiberg bond orders for each atom

     #   Z sym  total        # sym  WBO       # sym  WBO       # sym  WBO
 ---------------------------------------------------------------------------
     1   6 C    3.865 --     2 N    0.969     3 C    0.966    17 H    0.940
                            16 H    0.938
     2   7 N    3.380 --     6 C    1.379     1 C    0.969     3 C    0.966
     3   6 C    3.864 --     1 C    0.966     2 N    0.966    15 H    0.941
                            18 H    0.939
     4   7 N    2.731 --     5 C    1.626    25 H    0.919
     5   6 C    3.914 --     4 N    1.626    13 N    1.105     6 C    1.091
     6   6 C    3.712 --     2 N    1.379     5 C    1.091     7 C    1.048
     7   6 C    3.893 --     8 O    1.641     9 N    1.113     6 C    1.048
     8   8 O    1.879 --     7 C    1.641     9 N    0.119
     9   7 N    3.475 --     7 C    1.113    11 C    1.097    10 C    0.980
                             8 O    0.119    12 O    0.102
    10   6 C    3.851 --     9 N    0.980    19 H    0.951    20 H    0.941
                            21 H    0.937
    11   6 C    3.933 --    12 O    1.658    13 N    1.097     9 N    1.097
    12   8 O    1.946 --    11 C    1.658    13 N    0.108     9 N    0.102
    13   7 N    3.453 --     5 C    1.105    11 C    1.097    14 C    0.982
                            12 O    0.108
    14   6 C    3.882 --    13 N    0.982    23 H    0.952    24 H    0.952
                            22 H    0.951
    15   1 H    0.964 --     3 C    0.941
    16   1 H    0.962 --     1 C    0.938
    17   1 H    0.963 --     1 C    0.940
    18   1 H    0.963 --     3 C    0.939
    19   1 H    0.969 --    10 C    0.951
    20   1 H    0.957 --    10 C    0.941
    21   1 H    0.954 --    10 C    0.937
    22   1 H    0.968 --    14 C    0.951
    23   1 H    0.969 --    14 C    0.952
    24   1 H    0.973 --    14 C    0.952
    25   1 H    0.946 --     4 N    0.919
 ---------------------------------------------------------------------------

molecular dipole:
                 x           y           z       tot (Debye)
 q only:        1.727      -0.695       0.067
   full:        1.465      -0.928       0.102       4.416

           -------------------------------------------------
          | TOTAL ENERGY              -42.186470171460 Eh   |
          | GRADIENT NORM               0.003919065014 Eh/α |
          | HOMO-LUMO GAP               1.807122119132 eV   |
           -------------------------------------------------

 * finished run on 2024/06/05 at 19:58:57.691
