   * xtb version 6.6.1 (8d0f1dd) compiled by 'conda@1efc2f54142f' on 2023-08-01
          program call               : xtb struc.xyz --opt loose --input .xc1 --gfn2

   ID    Z sym.   atoms
    1    7 N      1, 17
    2    6 C      2-6, 8, 9, 11-16, 18-23, 25, 26, 28-33
    3    8 O      7, 10, 24, 27
    4    1 H      34-72
constraining bond 65 70 to    4.2800000 Å, actual value:    2.4700078 Å

          :  Hamiltonian                  GFN2-xTB          :
 * total energy  :   -98.8191778 Eh     change       -0.4035485E-08 Eh
 * total energy  :   -99.0834764 Eh     change       -0.2642987E+00 Eh
 * total energy  :   -99.2260665 Eh     change       -0.1425900E+00 Eh
 * total energy  :   -99.2658835 Eh     change       -0.3981703E-01 Eh
 * total energy  :   -99.2718731 Eh     change       -0.5989585E-02 Eh
 * total energy  :   -99.2744260 Eh     change       -0.2552942E-02 Eh
 * total energy  :   -99.2777352 Eh     change       -0.3309180E-02 Eh
 * total energy  :   -99.2801361 Eh     change       -0.2400863E-02 Eh
 * total energy  :   -99.2815767 Eh     change       -0.1440668E-02 Eh
 * total energy  :   -99.2824724 Eh     change       -0.8956933E-03 Eh
 * total energy  :   -99.3053942 Eh     change       -0.9174485E-03 Eh
 * total energy  :   -99.3061930 Eh     change       -0.7988449E-03 Eh
 * total energy  :   -99.3065904 Eh     change       -0.3973733E-03 Eh
 * total energy  :   -99.3068241 Eh     change       -0.2337347E-03 Eh
 * total energy  :   -99.3069820 Eh     change       -0.1579126E-03 Eh
 * total energy  :   -99.3070705 Eh     change       -0.8841961E-04 Eh
 * total energy  :   -99.3071455 Eh     change       -0.7500706E-04 Eh
 * total energy  :   -99.3072031 Eh     change       -0.5764349E-04 Eh
 * total energy  :   -99.3072504 Eh     change       -0.4732050E-04 Eh
   *** GEOMETRY OPTIMIZATION CONVERGED AFTER 34 ITERATIONS ***

 final structure:
================
72
 xtb: 6.6.1 (8d0f1dd)
N           -1.80317908740708        2.75167908079649        2.21174972255411
C           -1.80985153219724        2.08851336939407        1.15497981740823
C           -3.00026155385050        1.89322266210970        0.25500377131219
C           -3.46523031814830        0.44578920344626        0.33464848177452
C           -4.37428616981935       -0.04688948064630       -0.60573927601346
C           -4.85141433684774       -1.34538024153207       -0.54477101153414
O           -5.73990686617346       -1.89012079789829       -1.40267036760474
C           -6.35333450432126       -1.07505423516670       -2.37377378307476
C           -4.39133919352583       -2.21122080834106        0.48357349783943
O           -4.89890198683941       -3.45988575445364        0.46086180830644
C           -4.53415289431482       -4.36602642054824        1.47555865819358
C           -3.48282494357628       -1.72036872468387        1.40741699305153
C           -3.03139198857706       -0.40788123934347        1.33630126602771
C           -2.49479779921568        2.20536884179953       -1.17828190995333
C           -1.55430649797434        1.13775398537697       -1.77134921549218
C           -0.20568508691480        1.12685172372768       -1.15800170056624
N            0.46918985768066        0.04176768407358       -0.79274059884707
C            1.84368091605486        0.14183746412545       -0.35859730028059
C            2.83212094524938       -0.35024396203565       -1.43267655294965
C            4.24341695617890       -0.14258117670840       -0.95581774618166
C            4.88457943617794        1.06828138699383       -1.16097542048640
C            6.17605298724469        1.27542614887268       -0.70183706958053
C            6.85380738617443        0.27351011176357       -0.02220030307797
O            8.10735971586872        0.36194116114785        0.46031123967494
C            8.84366312178630        1.54468521505187        0.24837419481441
C            6.20192188957459       -0.97104111207817        0.19919977241310
O            6.93090110210409       -1.88965800433637        0.86426193807990
C            6.38354486026288       -3.16439494314204        1.10204674625139
C            4.90934640068781       -1.15373673009337       -0.26725332808610
C           -0.12436663860572       -1.27386135326341       -0.81616518690728
C           -4.19610840728772        2.82607046522990        0.60984981674652
C           -4.71719781687439        2.57876117988558        2.02119267619916
C           -3.69714652012088        4.41065196595887        0.58021824354310
H           -4.72096595750798        0.59471254608810       -1.39947514344936
H           -6.87939818529378       -0.23180573503046       -1.91632038046138
H           -7.07390861691579       -1.71567385521082       -2.87858345710919
H           -5.62957922010828       -0.70270741451617       -3.10662034112945
H           -4.82556312508770       -3.99941049636957        2.46431965054373
H           -5.07697654161118       -5.28336651172406        1.25676967496633
H           -3.45873795598683       -4.57012904349232        1.46336765605053
H           -3.12722427422653       -2.35040961092974        2.20642124259794
H           -2.34910043873277       -0.05365220919020        2.09346739882659
H           -3.35655372251193        2.30536031245200       -1.83701000064960
H           -1.97933111652673        3.16592972126274       -1.16643083683319
H           -2.02806919270270        0.15919459604549       -1.71738217971459
H           -1.42673294007697        1.39061199981584       -2.83201233776076
H           -0.90891622511387        1.59946092073375        0.73302241474451
H            0.34196215739014        2.05818822750640       -1.15292221904216
H            1.97519714198349       -0.45049880575939        0.55150138305144
H            2.07212743243464        1.18318999433767       -0.12310235028028
H            2.66382317565498        0.21459833439289       -2.35110814166592
H            2.65666270301834       -1.40642481354227       -1.63956138634972
H            4.38455483819725        1.86142221653128       -1.69590676018353
H            6.65083975845017        2.22547185153563       -0.88386963805955
H            8.37355833283890        2.40302036894298        0.73803998200311
H            8.96641679638886        1.75389318177749       -0.81846709700269
H            9.81958769314141        1.36519672868347        0.69530664774722
H            7.15897196569083       -3.72287722990622        1.62272770551193
H            5.49290433657189       -3.10696886050054        1.73613344732046
H            6.13600414099335       -3.67593776674066        0.16670629250403
H            4.41044361338452       -2.09744207958762       -0.11118223007154
H           -0.31263671000498       -1.60272725151615       -1.84018009858127
H           -1.06884932022155       -1.27813014027834       -0.26604436402093
H            0.55369456988923       -1.98038240016710       -0.34485925947279
H           -5.17243490119433        2.25603668552611       -0.12941384120095
H           -3.97701794595348        2.88510626977228        2.75351041410659
H           -4.95667277372076        1.52895477406586        2.17879990383591
H           -5.62167028007171        3.16133754291119        2.18124801449949
H           -4.57013446183140        4.97947192178764        0.89402021914667
H           -2.75238530642938        4.98251248186742        1.22019086039327
H           -3.50443763915934        4.67925871863708       -0.45463963398158
H           -0.92683764049712        2.83598768680881        2.71810575822301

          :  Hamiltonian                  GFN2-xTB          :
         :: total energy             -99.307250434290 Eh    ::
         :: gradient norm              0.002714168876 Eh/a0 ::
         :: HOMO-LUMO gap              1.680942035593 eV    ::
         :: SCC energy              -100.676837909483 Eh    ::
         :: -> dispersion             -0.074962897584 Eh    ::
         :: repulsion energy           1.340794142970 Eh    ::

    * Orbital Energies and Occupations

         #    Occupation            Energy/Eh            Energy/eV
      -------------------------------------------------------------
         1        2.0000           -0.8086473             -22.0044
       ...           ...                  ...                  ...
        78        1.9984           -0.5287033             -14.3868
        79        1.9983           -0.5282340             -14.3740
        80        1.9979           -0.5246543             -14.2766
        81        1.9973           -0.5203444             -14.1593
        82        1.9971           -0.5195193             -14.1368
        83        1.9967           -0.5171898             -14.0735
        84        1.9952           -0.5115617             -13.9203
        85        1.9881           -0.4969946             -13.5239
        86        1.9813           -0.4898406             -13.3292
        87        1.9790           -0.4879387             -13.2775
        88        1.9358           -0.4699041             -12.7867
        89        1.8782           -0.4592966             -12.4981
        90        1.8463           -0.4553431             -12.3905 (HOMO)
        91        0.3909           -0.3935696             -10.7096 (LUMO)
        92        0.0156           -0.3392629              -9.2318
        93        0.0038           -0.3167914              -8.6203
        94        0.0031           -0.3136646              -8.5352
        95        0.0028           -0.3118931              -8.4870
        96        0.0024           -0.3096160              -8.4251
        97        0.0000           -0.2244619              -6.1079
        98        0.0000           -0.1910664              -5.1992
        99        0.0000           -0.1871358              -5.0922
       100                         -0.1373844              -3.7384
       101                         -0.1129160              -3.0726
       ...                                ...                  ...
       171                          0.5763893              15.6844
      -------------------------------------------------------------
                  HL-Gap            0.0617735 Eh            1.6809 eV

     #   Z          covCN         q      C6AA      α(0)
     1   7 N        1.773    -0.265    27.702     7.794
     2   6 C        2.827     0.100    25.785     8.321
     3   6 C        3.906     0.006    20.415     6.422
     4   6 C        2.973     0.000    28.023     8.683
     5   6 C        2.921    -0.079    29.979     8.979
     6   6 C        2.861     0.129    25.169     8.223
     7   8 O        1.706    -0.231    17.832     5.701
     8   6 C        3.644     0.029    20.434     6.498
     9   6 C        2.864     0.129    25.179     8.225
    10   8 O        1.706    -0.229    17.793     5.695
    11   6 C        3.645     0.027    20.454     6.500
    12   6 C        2.914    -0.074    29.858     8.960
    13   6 C        2.921    -0.053    29.325     8.880
    14   6 C        3.813    -0.066    21.752     6.638
    15   6 C        3.801    -0.069    21.822     6.651
    16   6 C        2.842     0.007    27.846     8.648
    17   7 N        2.728     0.009    21.107     6.823
    18   6 C        3.755    -0.016    20.916     6.521
    19   6 C        3.807    -0.071    21.845     6.653
    20   6 C        2.969    -0.001    28.038     8.685
    21   6 C        2.922    -0.049    29.219     8.864
    22   6 C        2.914    -0.068    29.684     8.934
    23   6 C        2.865     0.133    25.082     8.209
    24   8 O        1.706    -0.222    17.688     5.678
    25   6 C        3.645     0.025    20.487     6.505
    26   6 C        2.863     0.133    25.091     8.211
    27   8 O        1.706    -0.225    17.732     5.685
    28   6 C        3.645     0.027    20.451     6.500
    29   6 C        2.919    -0.079    29.987     8.980
    30   6 C        3.699    -0.070    22.004     6.709
    31   6 C        3.563     0.010    21.275     6.722
    32   6 C        3.753    -0.119    22.847     6.816
    33   6 C        3.605    -0.097    22.948     6.924
    34   1 H        0.926     0.053     2.279     2.361
    35   1 H        0.924     0.053     2.282     2.362
    36   1 H        0.925     0.081     1.970     2.195
    37   1 H        0.924     0.047     2.362     2.404
    38   1 H        0.924     0.055     2.258     2.350
    39   1 H        0.925     0.081     1.968     2.194
    40   1 H        0.924     0.048     2.349     2.397
    41   1 H        0.926     0.052     2.292     2.368
    42   1 H        0.926     0.039     2.466     2.455
    43   1 H        0.925     0.061     2.186     2.312
    44   1 H        0.925     0.055     2.262     2.352
    45   1 H        0.925     0.066     2.132     2.283
    46   1 H        0.924     0.080     1.984     2.203
    47   1 H        0.922     0.010     2.889     2.658
    48   1 H        0.926     0.069     2.095     2.263
    49   1 H        0.924     0.067     2.122     2.278
    50   1 H        0.924     0.067     2.120     2.277
    51   1 H        0.924     0.056     2.247     2.344
    52   1 H        0.924     0.055     2.253     2.347
    53   1 H        0.926     0.045     2.387     2.416
    54   1 H        0.926     0.058     2.219     2.329
    55   1 H        0.924     0.054     2.269     2.356
    56   1 H        0.924     0.056     2.250     2.346
    57   1 H        0.925     0.082     1.956     2.187
    58   1 H        0.925     0.082     1.961     2.190
    59   1 H        0.924     0.048     2.339     2.392
    60   1 H        0.924     0.052     2.291     2.367
    61   1 H        0.926     0.047     2.358     2.401
    62   1 H        0.924     0.077     2.014     2.219
    63   1 H        0.924     0.078     1.998     2.210
    64   1 H        0.925     0.080     1.979     2.200
    65   1 H        0.664     0.015     3.108     2.824
    66   1 H        0.925     0.075     2.027     2.226
    67   1 H        0.925     0.036     2.509     2.477
    68   1 H        0.925     0.053     2.288     2.365
    69   1 H        0.925     0.054     2.270     2.356
    70   1 H        0.808     0.041     2.482     2.474
    71   1 H        0.925     0.035     2.519     2.482
    72   1 H        0.860     0.158     1.349     1.820

Wiberg/Mayer (AO) data.
largest (>0.10) Wiberg bond orders for each atom

     #   Z sym  total        # sym  WBO       # sym  WBO       # sym  WBO
 ---------------------------------------------------------------------------
     1   7 N    3.046 --     2 C    1.959    72 H    0.941
     2   6 C    3.924 --     1 N    1.959     3 C    0.991    47 H    0.890
     3   6 C    3.975 --     2 C    0.991     4 C    0.968    14 C    0.958
                            31 C    0.949
     4   6 C    3.951 --    13 C    1.417     5 C    1.365     3 C    0.968
     5   6 C    3.963 --     6 C    1.401     4 C    1.365    34 H    0.953
     6   6 C    3.907 --     5 C    1.401     9 C    1.223     7 O    1.098
     7   8 O    2.253 --     6 C    1.098     8 C    0.978
     8   6 C    3.932 --     7 O    0.978    36 H    0.977    35 H    0.974
                            37 H    0.973
     9   6 C    3.904 --    12 C    1.393     6 C    1.223    10 O    1.102
    10   8 O    2.254 --     9 C    1.102    11 C    0.978
    11   6 C    3.931 --    10 O    0.978    39 H    0.977    40 H    0.974
                            38 H    0.973
    12   6 C    3.963 --    13 C    1.403     9 C    1.393    41 H    0.964
    13   6 C    3.957 --     4 C    1.417    12 C    1.403    42 H    0.963
    14   6 C    3.972 --    15 C    0.980    44 H    0.972    43 H    0.968
                             3 C    0.958
    15   6 C    3.987 --    16 C    1.058    14 C    0.980    45 H    0.962
                            46 H    0.929
    16   6 C    3.599 --    17 N    1.395    15 C    1.058    48 H    0.957
    17   7 N    3.477 --    16 C    1.395    30 C    0.998    18 C    0.988
    18   6 C    3.956 --    17 N    0.988    19 C    0.968    50 H    0.968
                            49 H    0.963
    19   6 C    3.977 --    20 C    1.007    52 H    0.972    51 H    0.972
                            18 C    0.968
    20   6 C    3.945 --    21 C    1.410    29 C    1.381    19 C    1.007
    21   6 C    3.951 --    22 C    1.417    20 C    1.410    53 H    0.968
    22   6 C    3.960 --    21 C    1.417    23 C    1.383    54 H    0.963
    23   6 C    3.896 --    22 C    1.383    26 C    1.221    24 O    1.110
    24   8 O    2.255 --    23 C    1.110    25 C    0.976
    25   6 C    3.928 --    57 H    0.977    24 O    0.976    56 H    0.973
                            55 H    0.973
    26   6 C    3.899 --    29 C    1.395    23 C    1.221    27 O    1.103
    27   8 O    2.254 --    26 C    1.103    28 C    0.979
    28   6 C    3.932 --    27 O    0.979    58 H    0.977    59 H    0.973
                            60 H    0.973
    29   6 C    3.959 --    26 C    1.395    20 C    1.381    61 H    0.962
    30   6 C    3.958 --    17 N    0.998    64 H    0.978    62 H    0.967
                            63 H    0.962
    31   6 C    3.944 --    32 C    1.021    33 C    0.979     3 C    0.949
                            65 H    0.926
    32   6 C    3.975 --    31 C    1.021    67 H    0.980    68 H    0.979
                            66 H    0.966
    33   6 C    3.967 --    71 H    0.987    69 H    0.985    31 C    0.979
                            70 H    0.972
    34   1 H    0.996 --     5 C    0.953
    35   1 H    0.994 --     8 C    0.974
    36   1 H    0.993 --     8 C    0.977
    37   1 H    0.994 --     8 C    0.973
    38   1 H    0.993 --    11 C    0.973
    39   1 H    0.993 --    11 C    0.977
    40   1 H    0.994 --    11 C    0.974
    41   1 H    0.996 --    12 C    0.964
    42   1 H    0.998 --    13 C    0.963
    43   1 H    0.995 --    14 C    0.968
    44   1 H    0.996 --    14 C    0.972
    45   1 H    0.995 --    15 C    0.962
    46   1 H    0.971 --    15 C    0.929
    47   1 H    0.987 --     2 C    0.890
    48   1 H    0.995 --    16 C    0.957
    49   1 H    0.990 --    18 C    0.963
    50   1 H    0.995 --    18 C    0.968
    51   1 H    0.995 --    19 C    0.972
    52   1 H    0.996 --    19 C    0.972
    53   1 H    0.997 --    21 C    0.968
    54   1 H    0.995 --    22 C    0.963
    55   1 H    0.992 --    25 C    0.973
    56   1 H    0.992 --    25 C    0.973
    57   1 H    0.992 --    25 C    0.977
    58   1 H    0.993 --    28 C    0.977
    59   1 H    0.993 --    28 C    0.973
    60   1 H    0.993 --    28 C    0.973
    61   1 H    0.997 --    29 C    0.962
    62   1 H    0.985 --    30 C    0.967
    63   1 H    0.987 --    30 C    0.962
    64   1 H    0.993 --    30 C    0.978
    65   1 H    0.989 --    31 C    0.926
    66   1 H    0.989 --    32 C    0.966
    67   1 H    0.996 --    32 C    0.980
    68   1 H    0.993 --    32 C    0.979
    69   1 H    0.994 --    33 C    0.985
    70   1 H    0.995 --    33 C    0.972
    71   1 H    0.996 --    33 C    0.987
    72   1 H    0.970 --     1 N    0.941
 ---------------------------------------------------------------------------

molecular dipole:
                 x           y           z       tot (Debye)
 q only:        0.588       0.049      -0.824
   full:        0.861       0.029      -1.004       3.362

           -------------------------------------------------
          | TOTAL ENERGY              -99.307250434290 Eh   |
          | GRADIENT NORM               0.002714168876 Eh/α |
          | HOMO-LUMO GAP               1.680942035593 eV   |
           -------------------------------------------------

 * finished run on 2024/04/06 at 11:15:18.660
