   * xtb version 6.6.1 (8d0f1dd) compiled by 'conda@1efc2f54142f' on 2023-08-01
          program call               : xtb xtbopt.xyz --opt crude --input .xc2 --gfn2

   ID    Z sym.   atoms
    1    7 N      1, 17
    2    6 C      2-6, 8, 9, 11-16, 18-23, 25, 26, 28-33
    3    8 O      7, 10, 24, 27
    4    1 H      34-72
########################################################################
[WARNING] Please study the warnings concerning your input carefully
-1- readin_getIntValue: could not parse ''
########################################################################

          :  Hamiltonian                  GFN2-xTB          :
 * total energy  :   -99.3347741 Eh     change       -0.4263256E-12 Eh
 * total energy  :   -99.3848755 Eh     change       -0.5010143E-01 Eh
 * total energy  :   -99.3978610 Eh     change       -0.1298544E-01 Eh
 * total energy  :   -99.4047238 Eh     change       -0.6862860E-02 Eh
 * total energy  :   -99.4061669 Eh     change       -0.1443084E-02 Eh
 * total energy  :   -99.4062326 Eh     change       -0.6571465E-04 Eh
 * total energy  :   -99.4063990 Eh     change       -0.1663902E-03 Eh
   *** GEOMETRY OPTIMIZATION CONVERGED AFTER 7 ITERATIONS ***

 final structure:
================
72
 xtb: 6.6.1 (8d0f1dd)
N           -1.77873224499425        2.77466497999495        2.21266418815725
C           -1.78985496579730        2.09034688637898        1.16847991251535
C           -2.97967243920444        1.90797464774611        0.26714963411088
C           -3.46202777422350        0.46658553920684        0.35024247449033
C           -4.38265423646343       -0.01668786441345       -0.58203928965042
C           -4.84886407237609       -1.32004618587993       -0.53039425638722
O           -5.73309823089535       -1.86846011242195       -1.38941761915744
C           -6.34306392689333       -1.06063847055780       -2.36816815687048
C           -4.38195948495059       -2.19210488774587        0.49011053053852
O           -4.88483800196027       -3.44234589293095        0.45844743105361
C           -4.52927069479968       -4.35176354056001        1.47360027373260
C           -3.47526958134073       -1.70364247332168        1.41710188372143
C           -3.02363341052450       -0.39169259382389        1.34701919177107
C           -2.47652383891310        2.21439466489757       -1.16740881778562
C           -1.54873520197872        1.13911766923395       -1.76336089261244
C           -0.19920948587348        1.12449050157322       -1.15523805692062
N            0.47272064358164        0.03796417185789       -0.79241027149289
C            1.84613561505605        0.13596649447311       -0.35701304916060
C            2.83177310134237       -0.35136694186730       -1.43544049498591
C            4.24342607608218       -0.14429757987075       -0.96102307982631
C            4.88414670907011        1.06688341551733       -1.16627071077153
C            6.17554728211116        1.27411085762666       -0.70720056409919
C            6.85268362878230        0.27189069903934       -0.02726938703115
O            8.10540823036867        0.35915943050297        0.45653077450918
C            8.84180546479291        1.54264527771703        0.24945072209345
C            6.20076585128367       -0.97278624138271        0.19450937091132
O            6.92961952211274       -1.88988136941406        0.86104773496176
C            6.38341175797177       -3.16493567942680        1.09979191962788
C            4.90844573196547       -1.15569479915185       -0.27227637201239
C           -0.12528402268975       -1.27530173027810       -0.81746327760203
C           -4.16998181726503        2.84937800570320        0.62120351534484
C           -4.71609790221889        2.56053856590251        2.01822128685884
C           -3.81068743541688        4.32712082789604        0.50979305583538
H           -4.75077560953634        0.63837502241030       -1.35456486168414
H           -6.87247877263049       -0.21566224278663       -1.91812141666797
H           -7.05930846151272       -1.70637156428496       -2.87270696292893
H           -5.61523681541558       -0.69197320131223       -3.09851221388086
H           -4.82288879227235       -3.98478946562814        2.46148004499563
H           -5.07679038693446       -5.26560997738403        1.25117488421686
H           -3.45514140076770       -4.56282307978062        1.46605469851789
H           -3.11850475088629       -2.33559164537610        2.21416595499570
H           -2.33995567952540       -0.03969289513118        2.10412097994711
H           -3.33861036568537        2.31845977584062       -1.82503912103729
H           -1.95200351032927        3.17037390098853       -1.15927769329600
H           -2.02973871814203        0.16453609653796       -1.70199709756581
H           -1.42586968638891        1.38607841728859       -2.82583343387128
H           -0.89686242171736        1.57406427991916        0.76330406366145
H            0.34854517504515        2.05566442774537       -1.14389286739272
H            1.97799560480971       -0.45980199140711        0.55081827529590
H            2.07492153759052        1.17643793346621       -0.11750330017957
H            2.66014371376886        0.21720546377782       -2.35098139105887
H            2.65566452276660       -1.40673180593109       -1.64574539937272
H            4.38311331705039        1.85962516118747       -1.70086302571023
H            6.65033038894717        2.22416381044584       -0.88919221928895
H            8.36883010650554        2.39980153299922        0.73837629560718
H            8.96889389879639        1.75349915278914       -0.81655210244683
H            9.81578302920511        1.36287678472810        0.70041632165285
H            7.15900692342766       -3.72164224833503        1.62209469096009
H            5.49198996355721       -3.10779422268276        1.73281650291625
H            6.13749232671845       -3.67788226304109        0.16483438558997
H            4.40875766509108       -2.09892930377475       -0.11580467981162
H           -0.31696130875317       -1.60131173598913       -1.84177861133704
H           -1.06901390861552       -1.27703104123905       -0.26575093559474
H            0.55072590321888       -1.98555870512052       -0.34878524679665
H           -4.95547335078067        2.63521274504598       -0.09958461518652
H           -3.98461892298429        2.83979287377987        2.76999380910925
H           -4.95871027545158        1.50744950622112        2.13702993172717
H           -5.61996443124418        3.14160362943134        2.18159079645741
H           -4.65710417208858        4.92757327142106        0.83297174698368
H           -2.96472566925106        4.55111498309066        1.15489838740173
H           -3.57489500251287        4.61231890367675       -0.51254889246180
H           -0.90647691181976        2.84552296669579        2.72718955627341

          :  Hamiltonian                  GFN2-xTB          :
         :: total energy             -99.406399001914 Eh    ::
         :: gradient norm              0.007358998215 Eh/a0 ::
         :: HOMO-LUMO gap              1.674416307127 eV    ::
         :: SCC energy              -100.785921328558 Eh    ::
         :: -> dispersion             -0.074948169625 Eh    ::
         :: repulsion energy           1.378241773291 Eh    ::

    * Orbital Energies and Occupations

         #    Occupation            Energy/Eh            Energy/eV
      -------------------------------------------------------------
         1        2.0000           -0.8089025             -22.0114
       ...           ...                  ...                  ...
        78        1.9983           -0.5289652             -14.3939
        79        1.9983           -0.5287978             -14.3893
        80        1.9983           -0.5283586             -14.3774
        81        1.9975           -0.5224163             -14.2157
        82        1.9971           -0.5201165             -14.1531
        83        1.9960           -0.5150914             -14.0163
        84        1.9954           -0.5129955             -13.9593
        85        1.9943           -0.5096523             -13.8683
        86        1.9811           -0.4904901             -13.3469
        87        1.9787           -0.4886005             -13.2955
        88        1.9406           -0.4720525             -12.8452
        89        1.8723           -0.4593722             -12.5002
        90        1.8437           -0.4559319             -12.4065 (HOMO)
        91        0.3898           -0.3943982             -10.7321 (LUMO)
        92        0.0155           -0.3399839              -9.2514
        93        0.0035           -0.3165126              -8.6127
        94        0.0029           -0.3135556              -8.5323
        95        0.0027           -0.3124956              -8.5034
        96        0.0024           -0.3102507              -8.4424
        97        0.0000           -0.1908854              -5.1943
        98        0.0000           -0.1877408              -5.1087
        99                         -0.1373566              -3.7377
       100                         -0.0689259              -1.8756
       101                         -0.0647447              -1.7618
       ...                                ...                  ...
       171                          0.5761100              15.6768
      -------------------------------------------------------------
                  HL-Gap            0.0615337 Eh            1.6744 eV

     #   Z          covCN         q      C6AA      α(0)
     1   7 N        1.773    -0.268    27.768     7.803
     2   6 C        2.827     0.101    25.764     8.317
     3   6 C        3.907     0.006    20.412     6.422
     4   6 C        2.974     0.002    27.983     8.677
     5   6 C        2.920    -0.080    29.999     8.982
     6   6 C        2.862     0.129    25.166     8.223
     7   8 O        1.706    -0.230    17.819     5.699
     8   6 C        3.644     0.028    20.449     6.500
     9   6 C        2.864     0.129    25.180     8.225
    10   8 O        1.706    -0.228    17.789     5.695
    11   6 C        3.645     0.027    20.457     6.501
    12   6 C        2.914    -0.075    29.860     8.960
    13   6 C        2.921    -0.053    29.325     8.880
    14   6 C        3.813    -0.065    21.742     6.637
    15   6 C        3.802    -0.069    21.824     6.651
    16   6 C        2.843     0.008    27.833     8.646
    17   7 N        2.729     0.010    21.085     6.820
    18   6 C        3.756    -0.016    20.916     6.521
    19   6 C        3.808    -0.071    21.845     6.653
    20   6 C        2.969    -0.000    28.034     8.685
    21   6 C        2.922    -0.049    29.216     8.864
    22   6 C        2.914    -0.067    29.680     8.934
    23   6 C        2.865     0.133    25.080     8.209
    24   8 O        1.706    -0.222    17.680     5.677
    25   6 C        3.645     0.025    20.489     6.506
    26   6 C        2.863     0.133    25.087     8.210
    27   8 O        1.706    -0.225    17.725     5.684
    28   6 C        3.645     0.027    20.454     6.500
    29   6 C        2.919    -0.079    29.987     8.980
    30   6 C        3.699    -0.070    22.005     6.709
    31   6 C        3.854    -0.008    20.683     6.468
    32   6 C        3.756    -0.120    22.850     6.816
    33   6 C        3.755    -0.118    22.815     6.811
    34   1 H        0.926     0.052     2.300     2.372
    35   1 H        0.924     0.054     2.274     2.358
    36   1 H        0.925     0.081     1.966     2.193
    37   1 H        0.924     0.047     2.357     2.401
    38   1 H        0.924     0.055     2.255     2.348
    39   1 H        0.925     0.081     1.967     2.193
    40   1 H        0.924     0.048     2.346     2.395
    41   1 H        0.926     0.052     2.295     2.369
    42   1 H        0.926     0.039     2.459     2.452
    43   1 H        0.925     0.060     2.194     2.317
    44   1 H        0.924     0.054     2.266     2.354
    45   1 H        0.925     0.066     2.130     2.282
    46   1 H        0.924     0.080     1.982     2.202
    47   1 H        0.922     0.007     2.932     2.678
    48   1 H        0.926     0.070     2.089     2.260
    49   1 H        0.924     0.067     2.120     2.277
    50   1 H        0.924     0.067     2.117     2.275
    51   1 H        0.924     0.056     2.247     2.344
    52   1 H        0.924     0.056     2.251     2.346
    53   1 H        0.926     0.045     2.383     2.414
    54   1 H        0.926     0.059     2.216     2.328
    55   1 H        0.924     0.054     2.266     2.354
    56   1 H        0.924     0.056     2.248     2.344
    57   1 H        0.925     0.082     1.954     2.186
    58   1 H        0.925     0.082     1.959     2.189
    59   1 H        0.924     0.049     2.338     2.391
    60   1 H        0.924     0.053     2.288     2.366
    61   1 H        0.926     0.047     2.356     2.400
    62   1 H        0.924     0.077     2.011     2.217
    63   1 H        0.924     0.079     1.994     2.208
    64   1 H        0.925     0.080     1.977     2.199
    65   1 H        0.925     0.039     2.461     2.453
    66   1 H        0.925     0.071     2.069     2.250
    67   1 H        0.925     0.036     2.501     2.473
    68   1 H        0.925     0.050     2.316     2.380
    69   1 H        0.925     0.056     2.251     2.346
    70   1 H        0.925     0.057     2.235     2.338
    71   1 H        0.925     0.035     2.519     2.482
    72   1 H        0.860     0.157     1.355     1.824

Wiberg/Mayer (AO) data.
largest (>0.10) Wiberg bond orders for each atom

     #   Z sym  total        # sym  WBO       # sym  WBO       # sym  WBO
 ---------------------------------------------------------------------------
     1   7 N    3.044 --     2 C    1.956    72 H    0.941
     2   6 C    3.926 --     1 N    1.956     3 C    0.995    47 H    0.894
     3   6 C    3.976 --     2 C    0.995     4 C    0.969    14 C    0.958
                            31 C    0.941
     4   6 C    3.949 --    13 C    1.414     5 C    1.369     3 C    0.969
     5   6 C    3.962 --     6 C    1.401     4 C    1.369    34 H    0.958
     6   6 C    3.905 --     5 C    1.401     9 C    1.222     7 O    1.099
     7   8 O    2.254 --     6 C    1.099     8 C    0.978
     8   6 C    3.932 --     7 O    0.978    36 H    0.977    35 H    0.974
                            37 H    0.973
     9   6 C    3.902 --    12 C    1.392     6 C    1.222    10 O    1.102
    10   8 O    2.253 --     9 C    1.102    11 C    0.977
    11   6 C    3.931 --    10 O    0.977    39 H    0.977    40 H    0.974
                            38 H    0.973
    12   6 C    3.963 --    13 C    1.404     9 C    1.392    41 H    0.964
    13   6 C    3.955 --     4 C    1.414    12 C    1.404    42 H    0.963
    14   6 C    3.972 --    15 C    0.980    44 H    0.972    43 H    0.968
                             3 C    0.958
    15   6 C    3.987 --    16 C    1.059    14 C    0.980    45 H    0.962
                            46 H    0.928
    16   6 C    3.599 --    17 N    1.398    15 C    1.059    48 H    0.957
    17   7 N    3.479 --    16 C    1.398    30 C    0.998    18 C    0.988
    18   6 C    3.956 --    17 N    0.988    19 C    0.968    50 H    0.968
                            49 H    0.963
    19   6 C    3.977 --    20 C    1.007    52 H    0.972    51 H    0.972
                            18 C    0.968
    20   6 C    3.944 --    21 C    1.409    29 C    1.381    19 C    1.007
    21   6 C    3.950 --    22 C    1.417    20 C    1.409    53 H    0.968
    22   6 C    3.960 --    21 C    1.417    23 C    1.383    54 H    0.963
    23   6 C    3.895 --    22 C    1.383    26 C    1.220    24 O    1.110
    24   8 O    2.255 --    23 C    1.110    25 C    0.976
    25   6 C    3.928 --    57 H    0.977    24 O    0.976    56 H    0.973
                            55 H    0.973
    26   6 C    3.899 --    29 C    1.394    23 C    1.220    27 O    1.104
    27   8 O    2.255 --    26 C    1.104    28 C    0.978
    28   6 C    3.932 --    27 O    0.978    58 H    0.977    59 H    0.973
                            60 H    0.973
    29   6 C    3.959 --    26 C    1.394    20 C    1.381    61 H    0.962
    30   6 C    3.958 --    17 N    0.998    64 H    0.978    62 H    0.967
                            63 H    0.962
    31   6 C    3.972 --    33 C    1.009    32 C    1.008    65 H    0.961
                             3 C    0.941
    32   6 C    3.978 --    31 C    1.008    67 H    0.982    68 H    0.981
                            66 H    0.973
    33   6 C    3.984 --    31 C    1.009    71 H    0.983    69 H    0.980
                            70 H    0.978
    34   1 H    0.996 --     5 C    0.958
    35   1 H    0.993 --     8 C    0.974
    36   1 H    0.993 --     8 C    0.977
    37   1 H    0.994 --     8 C    0.973
    38   1 H    0.993 --    11 C    0.973
    39   1 H    0.993 --    11 C    0.977
    40   1 H    0.993 --    11 C    0.974
    41   1 H    0.996 --    12 C    0.964
    42   1 H    0.998 --    13 C    0.963
    43   1 H    0.995 --    14 C    0.968
    44   1 H    0.996 --    14 C    0.972
    45   1 H    0.995 --    15 C    0.962
    46   1 H    0.971 --    15 C    0.928
    47   1 H    0.987 --     2 C    0.894
    48   1 H    0.995 --    16 C    0.957
    49   1 H    0.990 --    18 C    0.963
    50   1 H    0.995 --    18 C    0.968
    51   1 H    0.995 --    19 C    0.972
    52   1 H    0.996 --    19 C    0.972
    53   1 H    0.997 --    21 C    0.968
    54   1 H    0.995 --    22 C    0.963
    55   1 H    0.992 --    25 C    0.973
    56   1 H    0.992 --    25 C    0.973
    57   1 H    0.992 --    25 C    0.977
    58   1 H    0.993 --    28 C    0.977
    59   1 H    0.993 --    28 C    0.973
    60   1 H    0.993 --    28 C    0.973
    61   1 H    0.997 --    29 C    0.962
    62   1 H    0.985 --    30 C    0.967
    63   1 H    0.987 --    30 C    0.962
    64   1 H    0.993 --    30 C    0.978
    65   1 H    0.993 --    31 C    0.961
    66   1 H    0.990 --    32 C    0.973
    67   1 H    0.997 --    32 C    0.982
    68   1 H    0.994 --    32 C    0.981
    69   1 H    0.994 --    33 C    0.980
    70   1 H    0.994 --    33 C    0.978
    71   1 H    0.997 --    33 C    0.983
    72   1 H    0.970 --     1 N    0.941
 ---------------------------------------------------------------------------

molecular dipole:
                 x           y           z       tot (Debye)
 q only:        0.641      -0.042      -0.869
   full:        0.916      -0.099      -1.055       3.560

           -------------------------------------------------
          | TOTAL ENERGY              -99.406399001914 Eh   |
          | GRADIENT NORM               0.007358998215 Eh/α |
          | HOMO-LUMO GAP               1.674416307127 eV   |
           -------------------------------------------------

 * finished run on 2024/04/06 at 11:15:20.097
