   * xtb version 6.6.1 (8d0f1dd) compiled by 'conda@1efc2f54142f' on 2023-08-01
          program call               : xtb xtbopt.xyz --opt crude --input .xc2 --gfn2

   ID    Z sym.   atoms
    1    6 C      1, 3, 5-7, 10, 11, 14
    2    7 N      2, 4, 9, 13
    3    8 O      8, 12
    4    1 H      15-25

          :  Hamiltonian                  GFN2-xTB          :
 * total energy  :   -42.1060370 Eh     change       -0.7958079E-12 Eh
   *** GEOMETRY OPTIMIZATION CONVERGED AFTER 1 ITERATIONS ***

 final structure:
================
25
 xtb: 6.6.1 (8d0f1dd)
C            3.36554044244003        1.04504483677654        0.06107701282949
N            2.37638014279976        0.00187833384945        0.02808431177469
C            2.59851319703220       -1.30857523252730       -0.00499370569074
N            1.41931064037160       -1.97424380359131       -0.01193237696012
C            0.41507311151640       -1.05425384008284        0.01668445096713
C            1.01177979989253        0.20020123687985        0.04469146518126
C            0.25609219728598        1.41304812015805        0.05866356903085
O            0.67099440294648        2.55030303653184        0.08256265204192
N           -1.16210295250282        1.14460589807381        0.02470730037538
C           -1.98223831542711        2.20321634030839        0.00713336288766
C           -1.77212307102265       -0.14339472219519        0.00912331850581
O           -2.96575225966964       -0.26501204967102       -0.00532341797187
N           -0.92029460020607       -1.24458805549085        0.01201208155881
C           -1.49687363301868       -2.57724529957711        0.00164698988143
H            3.82400137493982        1.10238629977449        1.04975472696932
H            4.14293105303009        0.85187656552860       -0.67667617893881
H            2.87995876218300        1.99703341718198       -0.15160334032171
H            3.56341205248580       -1.77295744760958       -0.02683048192415
H           -1.53118227284675        3.17932148076806        0.02309891275092
H           -4.81641087417904        2.10186258685037       -0.39803352544280
H           -3.06423541932401        2.05760265019845       -0.07161613073601
H           -1.19352839456036       -3.12803032857556        0.89197932385711
H           -1.19531158857773       -3.11516882354048       -0.89739532010364
H           -2.58020374621227       -2.46848928672795        0.00299466382844
H            1.31670146472352       -2.97818337169072       -0.03863804645032

          :  Hamiltonian                  GFN2-xTB          :
         :: total energy             -42.106036974062 Eh    ::
         :: gradient norm              0.004157079903 Eh/a0 ::
         :: HOMO-LUMO gap              0.102007454454 eV    ::
         :: SCC energy               -42.624232699132 Eh    ::
         :: -> dispersion             -0.022887969754 Eh    ::
         :: repulsion energy           0.518114638367 Eh    ::

    * Orbital Energies and Occupations

         #    Occupation            Energy/Eh            Energy/eV
      -------------------------------------------------------------
         1        2.0000           -0.9109152             -24.7873
       ...           ...                  ...                  ...
        25        2.0000           -0.6713495             -18.2683
        26        2.0000           -0.6689511             -18.2031
        27        2.0000           -0.6626633             -18.0320
        28        1.9999           -0.6331520             -17.2289
        29        1.9999           -0.6297670             -17.1368
        30        1.9999           -0.6277836             -17.0829
        31        1.9998           -0.6186204             -16.8335
        32        1.9997           -0.6143598             -16.7176
        33        1.9997           -0.6132163             -16.6865
        34        1.9982           -0.5852185             -15.9246
        35        1.9943           -0.5666312             -15.4188
        36        1.9905           -0.5584157             -15.1953
        37        0.9976           -0.4736920             -12.8898 (HOMO)
        38        0.8798           -0.4699433             -12.7878 (LUMO)
        39        0.1194           -0.4301204             -11.7042
        40        0.0181           -0.3994553             -10.8697
        41        0.0031           -0.3713468             -10.1049
        42        0.0000           -0.2874045              -7.8207
        43        0.0000           -0.2086461              -5.6775
        44                         -0.1964739              -5.3463
        45                         -0.1509389              -4.1073
        46                         -0.1460304              -3.9737
        47                         -0.0783623              -2.1323
        48                         -0.0540386              -1.4705
       ...                                ...                  ...
        67                          0.5490028              14.9391
      -------------------------------------------------------------
                  HL-Gap            0.0037487 Eh            0.1020 eV

     #   Z          covCN         q      C6AA      α(0)
     1   6 C        3.691    -0.093    22.476     6.784
     2   7 N        2.830     0.077    19.900     6.625
     3   6 C        3.050     0.047    26.901     8.506
     4   7 N        2.792    -0.058    22.360     7.023
     5   6 C        3.041     0.106    25.629     8.303
     6   6 C        3.109    -0.023    28.431     8.736
     7   6 C        2.774     0.253    22.744     7.811
     8   8 O        0.857    -0.362    20.944     6.136
     9   7 N        2.740    -0.032    21.855     6.943
    10   6 C        2.812    -0.021    28.515     8.749
    11   6 C        2.737     0.309    21.756     7.637
    12   8 O        0.859    -0.352    20.746     6.107
    13   7 N        2.737    -0.050    22.202     6.998
    14   6 C        3.698    -0.073    22.077     6.720
    15   1 H        0.924     0.109     1.708     2.044
    16   1 H        0.925     0.104     1.753     2.070
    17   1 H        0.925     0.134     1.508     1.920
    18   1 H        0.926     0.123     1.586     1.970
    19   1 H        0.926     0.133     1.511     1.922
    20   1 H        0.000     0.013     7.091     4.869
    21   1 H        0.924     0.134     1.504     1.918
    22   1 H        0.925     0.084     1.938     2.177
    23   1 H        0.924     0.084     1.943     2.180
    24   1 H        0.925     0.127     1.557     1.951
    25   1 H        0.860     0.229     0.971     1.543

Wiberg/Mayer (AO) data.
largest (>0.10) Wiberg bond orders for each atom

     #   Z sym  total        # sym  WBO       # sym  WBO       # sym  WBO
 ---------------------------------------------------------------------------
     1   6 C    3.917 --     2 N    0.987    16 H    0.965    17 H    0.961
                            15 H    0.955
     2   7 N    3.647 --     3 C    1.379     6 C    1.144     1 C    0.987
     3   6 C    3.819 --     2 N    1.379     4 N    1.265    18 H    0.953
     4   7 N    3.579 --     3 C    1.265     5 C    1.194    25 H    0.919
     5   6 C    3.898 --     6 C    1.326     4 N    1.194    13 N    1.190
     6   6 C    3.908 --     5 C    1.326     2 N    1.144     7 C    1.120
     7   6 C    3.864 --     8 O    1.675     6 C    1.120     9 N    0.978
     8   8 O    1.958 --     7 C    1.675     9 N    0.108
     9   7 N    3.613 --    10 C    1.350    11 C    1.015     7 C    0.978
                             8 O    0.108
    10   6 C    3.299 --     9 N    1.350    19 H    0.956    21 H    0.905
    11   6 C    3.903 --    12 O    1.706    13 N    1.088     9 N    1.015
    12   8 O    2.017 --    11 C    1.706    13 N    0.134
    13   7 N    3.565 --     5 C    1.190    11 C    1.088    14 C    0.970
                            12 O    0.134
    14   6 C    3.924 --    22 H    0.972    23 H    0.972    13 N    0.970
                            24 H    0.965
    15   1 H    0.983 --     1 C    0.955
    16   1 H    0.986 --     1 C    0.965
    17   1 H    0.982 --     1 C    0.961
    18   1 H    0.984 --     3 C    0.953
    19   1 H    0.979 --    10 C    0.956
    20   1 H    0.062
    21   1 H    0.981 --    10 C    0.905
    22   1 H    0.991 --    14 C    0.972
    23   1 H    0.991 --    14 C    0.972
    24   1 H    0.983 --    14 C    0.965
    25   1 H    0.947 --     4 N    0.919
 ---------------------------------------------------------------------------

molecular dipole:
                 x           y           z       tot (Debye)
 q only:        2.358      -1.974      -0.027
   full:        2.577      -2.432      -0.034       9.007

           -------------------------------------------------
          | TOTAL ENERGY              -42.106036974062 Eh   |
          | GRADIENT NORM               0.004157079903 Eh/α |
          | HOMO-LUMO GAP               0.102007454454 eV   |
           -------------------------------------------------

 * finished run on 2024/06/05 at 20:00:16.798
