   * xtb version 6.6.1 (8d0f1dd) compiled by 'conda@1efc2f54142f' on 2023-08-01
          program call               : xtb struc.xyz --opt loose --input .xc1 --gfn2

   ID    Z sym.   atoms
    1    6 C      1, 3, 5-7, 10, 11, 14
    2    7 N      2, 4, 9, 13
    3    8 O      8, 12
    4    1 H      15-25
constraining bond 4 16 to    4.6866700 Å, actual value:    3.9838146 Å

          :  Hamiltonian                  GFN2-xTB          :
 * total energy  :   -43.1273463 Eh     change       -0.6633627E-10 Eh
 * total energy  :   -45.7339661 Eh     change       -0.2606620E+01 Eh
 * total energy  :   -49.8071182 Eh     change       -0.4073152E+01 Eh
 * total energy  :   -55.5010161 Eh     change       -0.5693898E+01 Eh
 * total energy  :   -63.1694616 Eh     change       -0.7668445E+01 Eh
 * total energy  :   -71.3721528 Eh     change       -0.8202691E+01 Eh
 * total energy  :   -67.9839069 Eh     change        0.3388246E+01 Eh
 * total energy  :   -72.0982523 Eh     change       -0.4114345E+01 Eh
 * total energy  :   -72.2405367 Eh     change       -0.1422845E+00 Eh
 * total energy  :   -72.2951948 Eh     change       -0.5465807E-01 Eh
 * total energy  :   -72.9046802 Eh     change       -0.4592276E-04 Eh
 * total energy  :   -72.9048314 Eh     change       -0.1512098E-03 Eh
 * total energy  :   -72.9048932 Eh     change       -0.6186258E-04 Eh
 * total energy  :   -72.9050743 Eh     change       -0.1811200E-03 Eh
 * total energy  :   -72.9052409 Eh     change       -0.1665252E-03 Eh
 * total energy  :   -72.9053747 Eh     change       -0.1338490E-03 Eh
 * total energy  :   -72.9053537 Eh     change        0.2097866E-04 Eh
 * total energy  :   -72.9054733 Eh     change       -0.1195444E-03 Eh
 * total energy  :   -72.9055059 Eh     change       -0.3257395E-04 Eh
   *** GEOMETRY OPTIMIZATION CONVERGED AFTER 104 ITERATIONS ***

 final structure:
================
25
 xtb: 6.6.1 (8d0f1dd)
C            2.21994529202042        1.50929681936530       -0.09122248867636
N            2.15200838377233        0.05207060453322       -0.07624784987825
C            3.25808499252887       -0.74337355216540       -0.31365653513231
N            4.39745730293254       -0.27448243884188       -0.49071413956244
C            0.12805541547652       -1.47829448170920        0.10222016793295
C            0.81809463382864       -0.30101805632069        0.01838072040125
C            0.08786169029253        0.90815653958965        0.01139692033842
O            0.87067129421882        1.96770219326133       -0.06608832891380
N           -1.23170002825404        0.93443445508317        0.06589958674324
C           -1.99632725076375        2.16650506048936        0.03972365724795
C           -1.97734208806322       -0.27498633844513        0.15612820952418
O           -3.17141482309419       -0.24254107372371        0.21392735954645
N           -1.22920987396855       -1.43919926651886        0.17085163294457
C           -1.95910086605496       -2.69162084300127        0.26953606175545
H            2.71769532945249        1.87841919335554       -0.99785598775761
H            4.78327427404405       -0.18080639552784       -0.56147036994874
H            2.74525934217032        1.89742552509627        0.79323650580852
H            2.98941644710207       -1.80536800264345       -0.31287630509920
H           -1.31482089467359        3.01184011031652        0.05208035526419
H           -2.61445194139705        2.18944538899474       -0.85840088079549
H           -2.66104349306575        2.19507945787333        0.90321094884943
H           -1.71208134838499       -3.19773465232763        1.20256138018346
H           -1.70815926350432       -3.33844441545428       -0.57030611547960
H           -3.02547388874785       -2.47429784286296        0.25220046196610
H            0.59373287623465       -2.44996944682361        0.11865665063253

          :  Hamiltonian                  GFN2-xTB          :
         :: total energy             -72.905505863548 Eh    ::
         :: gradient norm              0.003816667525 Eh/a0 ::
         :: HOMO-LUMO gap              1.334851081654 eV    ::
         :: SCC energy               -42.754635778844 Eh    ::
         :: -> dispersion             -0.021850491422 Eh    ::
         :: repulsion energy           2.608976748260 Eh    ::

    * Orbital Energies and Occupations

         #    Occupation            Energy/Eh            Energy/eV
      -------------------------------------------------------------
         1        2.0000           -0.9396638             -25.5696
       ...           ...                  ...                  ...
        25        2.0000           -0.6819894             -18.5579
        26        2.0000           -0.6767452             -18.4152
        27        2.0000           -0.6554669             -17.8362
        28        2.0000           -0.6533805             -17.7794
        29        2.0000           -0.6493519             -17.6698
        30        2.0000           -0.6335972             -17.2411
        31        2.0000           -0.6255449             -17.0219
        32        2.0000           -0.6240879             -16.9823
        33        2.0000           -0.6046810             -16.4542
        34        2.0000           -0.5914085             -16.0930
        35        2.0000           -0.5898205             -16.0498
        36        1.9973           -0.5340434             -14.5321
        37        1.9149           -0.5062760             -13.7765 (HOMO)
        38        0.0877           -0.4572212             -12.4416 (LUMO)
        39        0.0001           -0.4029116             -10.9638
        40        0.0000           -0.3613556              -9.8330
        41                         -0.3063711              -8.3368
        42                         -0.2253299              -6.1315
        43                         -0.1753282              -4.7709
        44                         -0.1660136              -4.5175
        45                         -0.1389465              -3.7809
        46                         -0.1153007              -3.1375
        47                         -0.0680784              -1.8525
        48                         -0.0437770              -1.1912
       ...                                ...                  ...
        67                          7.1705976             195.1219
      -------------------------------------------------------------
                  HL-Gap            0.0490549 Eh            1.3349 eV

     #   Z          covCN         q      C6AA      α(0)
     1   6 C        3.788     0.117    18.680     6.156
     2   7 N        2.790    -0.069    22.576     7.057
     3   6 C        2.801     0.121    25.336     8.246
     4   7 N        1.783    -0.327    29.317     8.019
     5   6 C        2.861     0.003    27.958     8.667
     6   6 C        2.959     0.026    27.432     8.591
     7   6 C        2.969     0.223    23.320     7.921
     8   8 O        1.710    -0.182    17.049     5.575
     9   7 N        2.738    -0.026    21.750     6.926
    10   6 C        3.701    -0.072    22.035     6.713
    11   6 C        2.728     0.309    21.752     7.635
    12   8 O        0.859    -0.349    20.688     6.098
    13   7 N        2.745    -0.010    21.450     6.879
    14   6 C        3.707    -0.080    22.186     6.733
    15   1 H        0.923     0.114     1.664     2.017
    16   1 H        0.911     0.256     0.856     1.447
    17   1 H        0.923     0.111     1.689     2.032
    18   1 H        0.924     0.058     2.217     2.328
    19   1 H        0.925     0.106     1.732     2.058
    20   1 H        0.924     0.117     1.641     2.003
    21   1 H        0.925     0.120     1.614     1.987
    22   1 H        0.925     0.100     1.786     2.090
    23   1 H        0.925     0.099     1.795     2.095
    24   1 H        0.925     0.124     1.578     1.964
    25   1 H        0.926     0.112     1.676     2.025

Wiberg/Mayer (AO) data.
largest (>0.10) Wiberg bond orders for each atom

     #   Z sym  total        # sym  WBO       # sym  WBO       # sym  WBO
 ---------------------------------------------------------------------------
     1   6 C    3.895 --     2 N    0.980    15 H    0.949     8 O    0.949
                            17 H    0.948
     2   7 N    3.495 --     3 C    1.106     6 C    1.102     1 C    0.980
                             4 N    0.146
     3   6 C    3.951 --     4 N    1.876     2 N    1.106    18 H    0.919
     4   7 N    3.055 --     3 C    1.876    16 H    0.929     2 N    0.146
     5   6 C    3.912 --     6 C    1.445    13 N    1.230    25 H    0.953
     6   6 C    3.963 --     5 C    1.445     7 C    1.196     2 N    1.102
     7   6 C    3.895 --     9 N    1.329     6 C    1.196     8 O    1.175
     8   8 O    2.352 --     7 C    1.175     1 C    0.949
     9   7 N    3.615 --     7 C    1.329    11 C    1.006    10 C    0.968
                            12 O    0.121
    10   6 C    3.912 --    19 H    0.974     9 N    0.968    21 H    0.958
                            20 H    0.957
    11   6 C    3.956 --    12 O    1.719    13 N    1.122     9 N    1.006
    12   8 O    2.081 --    11 C    1.719    13 N    0.150     9 N    0.121
    13   7 N    3.620 --     5 C    1.230    11 C    1.122    14 C    0.972
                            12 O    0.150
    14   6 C    3.917 --    13 N    0.972    23 H    0.967    24 H    0.967
                            22 H    0.965
    15   1 H    0.985 --     1 C    0.949
    16   1 H    0.934 --     4 N    0.929
    17   1 H    0.986 --     1 C    0.948
    18   1 H    0.982 --     3 C    0.919
    19   1 H    0.988 --    10 C    0.974
    20   1 H    0.984 --    10 C    0.957
    21   1 H    0.984 --    10 C    0.958
    22   1 H    0.987 --    14 C    0.965
    23   1 H    0.987 --    14 C    0.967
    24   1 H    0.984 --    14 C    0.967
    25   1 H    0.987 --     5 C    0.953
 ---------------------------------------------------------------------------

molecular dipole:
                 x           y           z       tot (Debye)
 q only:        0.732      -0.124       0.024
   full:        0.988      -0.190       0.002       2.558

           -------------------------------------------------
          | TOTAL ENERGY              -72.905505863548 Eh   |
          | GRADIENT NORM               0.003816667525 Eh/α |
          | HOMO-LUMO GAP               1.334851081654 eV   |
           -------------------------------------------------

 * finished run on 2024/06/05 at 19:58:12.541
