   * xtb version 6.6.1 (8d0f1dd) compiled by 'conda@1efc2f54142f' on 2023-08-01
          program call               : xtb xtbopt.xyz --opt crude --input .xc2 --gfn2

   ID    Z sym.   atoms
    1    6 C      1, 3, 5-7, 10, 11, 14
    2    7 N      2, 4, 9, 13
    3    8 O      8, 12
    4    1 H      15-25
########################################################################
[WARNING] Please study the warnings concerning your input carefully
-1- readin_getIntValue: could not parse ''
########################################################################

          :  Hamiltonian                  GFN2-xTB          :
 * total energy  :   -40.1456125 Eh     change       -0.8526513E-13 Eh
 * total energy  :   -41.9659196 Eh     change       -0.1820307E+01 Eh
 * total energy  :   -42.1440787 Eh     change       -0.1781591E+00 Eh
 * total energy  :   -42.1565494 Eh     change       -0.1247072E-01 Eh
 * total energy  :   -42.1624816 Eh     change       -0.5932108E-02 Eh
 * total energy  :   -42.1629860 Eh     change       -0.5044923E-03 Eh
 * total energy  :   -42.1639620 Eh     change       -0.9759720E-03 Eh
 * total energy  :   -42.1652082 Eh     change       -0.1246159E-02 Eh
 * total energy  :   -42.1663509 Eh     change       -0.1142686E-02 Eh
 * total energy  :   -42.1675616 Eh     change       -0.1210741E-02 Eh
 * total energy  :   -42.1826891 Eh     change       -0.9375951E-03 Eh
 * total energy  :   -42.1839300 Eh     change       -0.1240848E-02 Eh
 * total energy  :   -42.1848384 Eh     change       -0.9084180E-03 Eh
 * total energy  :   -42.1852885 Eh     change       -0.4501337E-03 Eh
 * total energy  :   -42.1858290 Eh     change       -0.5404924E-03 Eh
 * total energy  :   -42.1863461 Eh     change       -0.5170471E-03 Eh
 * total energy  :   -42.1871625 Eh     change       -0.8164402E-03 Eh
 * total energy  :   -42.1877974 Eh     change       -0.6348952E-03 Eh
 * total energy  :   -42.1879647 Eh     change       -0.1672775E-03 Eh
   *** GEOMETRY OPTIMIZATION CONVERGED AFTER 24 ITERATIONS ***

 final structure:
================
25
 xtb: 6.6.1 (8d0f1dd)
C            2.16930826702979        1.52512146411513       -0.32283070399126
N            2.11621247390901        0.07268819914089       -0.18933719973398
C            3.27367371682729       -0.66237541819172       -0.14959711133373
N            4.36477977251347       -0.05127500275982       -0.27627543298365
C            0.11120685552147       -1.47342765915993        0.04128592371026
C            0.79739790850477       -0.29500845063598       -0.05514366029281
C            0.05894071535606        0.91480068391489       -0.03895744773769
O            0.82546595353467        1.97535038780952       -0.17029111194171
N           -1.25096542791945        0.93511225852789        0.10468735102730
C           -2.01440701736381        2.16714604376141        0.15123077775475
C           -1.99396109259215       -0.27952346442288        0.20307679833230
O           -3.18345074853541       -0.24590972631445        0.31884095572985
N           -1.24484077419488       -1.43895366170447        0.15300753185521
C           -1.97514289073538       -2.69583076897188        0.20540090215687
H            2.54775012011677        1.82062761715992       -1.31330520867218
H            5.20463681656002       -0.61483461715849       -0.24501499947609
H            2.81295796525035        1.97128791740362        0.44744484180940
H            3.10482019383808       -1.73555237835608       -0.00987024328995
H           -1.33164078605591        3.01095102230143        0.19143953156069
H           -2.65149806725561        2.23662845252574       -0.73062501103637
H           -2.65980909865509        2.15136503900026        1.02953966661250
H           -1.66421525317153       -3.27867885417388        1.07183383094969
H           -1.79462777223893       -3.27061148735769       -0.70281943716348
H           -3.03797195507803       -2.47490930709850        0.28475067918202
H            0.57581163893996       -2.44594974776157        0.03270039486466

          :  Hamiltonian                  GFN2-xTB          :
         :: total energy             -42.187964673684 Eh    ::
         :: gradient norm              0.004778451180 Eh/a0 ::
         :: HOMO-LUMO gap              1.720347583220 eV    ::
         :: SCC energy               -42.707719893004 Eh    ::
         :: -> dispersion             -0.021800601565 Eh    ::
         :: repulsion energy           0.519715364312 Eh    ::

    * Orbital Energies and Occupations

         #    Occupation            Energy/Eh            Energy/eV
      -------------------------------------------------------------
         1        2.0000           -0.9425157             -25.6472
       ...           ...                  ...                  ...
        25        2.0000           -0.6771422             -18.4260
        26        2.0000           -0.6666501             -18.1405
        27        2.0000           -0.6574838             -17.8910
        28        2.0000           -0.6504677             -17.7001
        29        2.0000           -0.6380277             -17.3616
        30        2.0000           -0.6325032             -17.2113
        31        2.0000           -0.6256904             -17.0259
        32        2.0000           -0.6225453             -16.9403
        33        2.0000           -0.6044522             -16.4480
        34        2.0000           -0.5922838             -16.1169
        35        2.0000           -0.5907111             -16.0741
        36        1.9904           -0.5319363             -14.4747
        37        1.9682           -0.5223463             -14.2138 (HOMO)
        38        0.0413           -0.4591247             -12.4934 (LUMO)
        39        0.0000           -0.4037644             -10.9870
        40        0.0000           -0.3576039              -9.7309
        41                         -0.3073523              -8.3635
        42                         -0.2274650              -6.1896
        43                         -0.1772546              -4.8233
        44                         -0.1666100              -4.5337
        45                         -0.1400001              -3.8096
        46                         -0.1185459              -3.2258
        47                         -0.0694726              -1.8904
        48                         -0.0540685              -1.4713
       ...                                ...                  ...
        67                          0.5416037              14.7378
      -------------------------------------------------------------
                  HL-Gap            0.0632216 Eh            1.7203 eV

     #   Z          covCN         q      C6AA      α(0)
     1   6 C        3.792     0.113    18.749     6.166
     2   7 N        2.806    -0.050    22.196     6.997
     3   6 C        2.755     0.130    25.128     8.209
     4   7 N        1.792    -0.311    28.901     7.963
     5   6 C        2.859     0.003    27.957     8.667
     6   6 C        2.956     0.026    27.426     8.590
     7   6 C        2.976     0.227    23.240     7.908
     8   8 O        1.710    -0.173    16.917     5.553
     9   7 N        2.738    -0.024    21.709     6.920
    10   6 C        3.701    -0.073    22.056     6.716
    11   6 C        2.727     0.309    21.756     7.636
    12   8 O        0.859    -0.348    20.664     6.095
    13   7 N        2.744    -0.010    21.443     6.878
    14   6 C        3.706    -0.080    22.190     6.734
    15   1 H        0.923     0.120     1.610     1.984
    16   1 H        0.860     0.190     1.160     1.687
    17   1 H        0.923     0.127     1.561     1.954
    18   1 H        0.924     0.041     2.433     2.439
    19   1 H        0.925     0.107     1.723     2.053
    20   1 H        0.925     0.117     1.634     1.999
    21   1 H        0.925     0.122     1.598     1.977
    22   1 H        0.925     0.100     1.782     2.088
    23   1 H        0.925     0.099     1.790     2.092
    24   1 H        0.925     0.125     1.574     1.962
    25   1 H        0.926     0.113     1.675     2.024

Wiberg/Mayer (AO) data.
largest (>0.10) Wiberg bond orders for each atom

     #   Z sym  total        # sym  WBO       # sym  WBO       # sym  WBO
 ---------------------------------------------------------------------------
     1   6 C    3.886 --     2 N    0.979     8 O    0.946    17 H    0.945
                            15 H    0.944
     2   7 N    3.514 --     3 C    1.127     6 C    1.116     1 C    0.979
                             4 N    0.107
     3   6 C    3.950 --     4 N    1.843     2 N    1.127    18 H    0.930
     4   7 N    2.995 --     3 C    1.843    16 H    0.935     2 N    0.107
     5   6 C    3.936 --     6 C    1.447    13 N    1.228    25 H    0.953
     6   6 C    3.963 --     5 C    1.447     7 C    1.181     2 N    1.116
     7   6 C    3.920 --     9 N    1.345     8 O    1.192     6 C    1.181
     8   8 O    2.375 --     7 C    1.192     1 C    0.946
     9   7 N    3.631 --     7 C    1.345    11 C    0.998    10 C    0.967
                            12 O    0.120
    10   6 C    3.911 --    19 H    0.974     9 N    0.967    21 H    0.958
                            20 H    0.956
    11   6 C    3.954 --    12 O    1.720    13 N    1.128     9 N    0.998
    12   8 O    2.082 --    11 C    1.720    13 N    0.152     9 N    0.120
    13   7 N    3.627 --     5 C    1.228    11 C    1.128    14 C    0.971
                            12 O    0.152
    14   6 C    3.916 --    13 N    0.971    24 H    0.967    23 H    0.966
                            22 H    0.966
    15   1 H    0.984 --     1 C    0.944
    16   1 H    0.962 --     4 N    0.935
    17   1 H    0.980 --     1 C    0.945
    18   1 H    0.992 --     3 C    0.930
    19   1 H    0.988 --    10 C    0.974
    20   1 H    0.985 --    10 C    0.956
    21   1 H    0.984 --    10 C    0.958
    22   1 H    0.987 --    14 C    0.966
    23   1 H    0.987 --    14 C    0.966
    24   1 H    0.984 --    14 C    0.967
    25   1 H    0.987 --     5 C    0.953
 ---------------------------------------------------------------------------

molecular dipole:
                 x           y           z       tot (Debye)
 q only:        0.523      -0.206      -0.061
   full:        0.789      -0.608      -0.041       2.534

           -------------------------------------------------
          | TOTAL ENERGY              -42.187964673684 Eh   |
          | GRADIENT NORM               0.004778451180 Eh/α |
          | HOMO-LUMO GAP               1.720347583220 eV   |
           -------------------------------------------------

 * finished run on 2024/06/05 at 19:58:14.050
