   * xtb version 6.6.1 (8d0f1dd) compiled by 'conda@1efc2f54142f' on 2023-08-01
          program call               : xtb struc.xyz --opt loose --input .xc1 --gfn2

   ID    Z sym.   atoms
    1    6 C      1, 3, 5-7, 10, 11, 14
    2    7 N      2, 4, 9, 13
    3    8 O      8, 12
    4    1 H      15-25
constraining bond 22 23 to    3.2800000 Å, actual value:    1.7896004 Å

          :  Hamiltonian                  GFN2-xTB          :
 * total energy  :   -38.2938640 Eh     change       -0.2401990E-09 Eh
 * total energy  :   -40.3572871 Eh     change       -0.2063423E+01 Eh
 * total energy  :   -41.6723971 Eh     change       -0.1315110E+01 Eh
 * total energy  :   -42.0599598 Eh     change       -0.3875627E+00 Eh
 * total energy  :   -42.0880021 Eh     change       -0.2804229E-01 Eh
 * total energy  :   -42.0885066 Eh     change       -0.5044950E-03 Eh
 * total energy  :   -42.0897333 Eh     change       -0.1226669E-02 Eh
 * total energy  :   -42.0901039 Eh     change       -0.3706876E-03 Eh
 * total energy  :   -42.0904038 Eh     change       -0.2998104E-03 Eh
 * total energy  :   -42.0907530 Eh     change       -0.3492806E-03 Eh
 * total energy  :   -42.1365228 Eh     change       -0.3056981E-03 Eh
 * total energy  :   -42.1365949 Eh     change       -0.7205959E-04 Eh
 * total energy  :   -42.1367147 Eh     change       -0.1198040E-03 Eh
 * total energy  :   -42.1367880 Eh     change       -0.7331041E-04 Eh
 * total energy  :   -42.1369725 Eh     change       -0.1844315E-03 Eh
 * total energy  :   -42.1370581 Eh     change       -0.8563451E-04 Eh
 * total energy  :   -42.1371390 Eh     change       -0.8094337E-04 Eh
 * total energy  :   -42.1371873 Eh     change       -0.4823614E-04 Eh
 * total energy  :   -42.1372201 Eh     change       -0.3279846E-04 Eh
   *** GEOMETRY OPTIMIZATION CONVERGED AFTER 48 ITERATIONS ***

 final structure:
================
25
 xtb: 6.6.1 (8d0f1dd)
C            3.21175531907901        1.12339446197632       -0.05893582672430
N            2.26746762290838        0.04427015058265        0.04605374468603
C            2.55508975420885       -1.25631806948824        0.15511521231791
N            1.41268897803205       -1.97353078888995        0.26347366796692
C            0.35994169249731       -1.09682539076945        0.22057706001127
C            0.89923263330009        0.17870347328567        0.08098914444862
C            0.07364459679768        1.35408831209668       -0.03204246815544
O            0.46869571274973        2.49596195460060       -0.15701591604733
N           -1.28949128261282        1.02925175505439        0.01527250518762
C           -2.23797297690782        2.12923159622577       -0.08843710924869
C           -1.86242962661950       -0.21135581079066        0.14815459747239
O           -3.04881300257949       -0.39072410478187        0.17260480268646
N           -0.97276845388450       -1.34596596653697        0.28156933752837
C           -1.52114252553404       -2.56529405293315        0.42357529002996
H            3.79163853187700        1.20959505602973        0.86152539170527
H            3.89664839686457        0.94914420735322       -0.88885081983104
H            2.66644789880886        2.05246030099723       -0.22396544078074
H            3.54156393790679       -1.67470885614753        0.15526088563256
H           -1.67359334673438        3.05899585368691       -0.12894791996294
H           -2.84316815562214        2.01808682857960       -0.98885662397737
H           -2.90411098745646        2.12568126802438        0.77469355913569
H           -0.90839775545479       -3.41210812014002        0.66486683246353
H           -1.49195206324715       -2.41525390517802       -2.40500111077171
H           -2.59295018812039       -2.62891070143681        0.41256312779064
H            1.36240680384310       -2.97963090980055        0.32692969433623

          :  Hamiltonian                  GFN2-xTB          :
         :: total energy             -42.137220064799 Eh    ::
         :: gradient norm              0.003418795343 Eh/a0 ::
         :: HOMO-LUMO gap              0.462418372310 eV    ::
         :: SCC energy               -42.654810003011 Eh    ::
         :: -> dispersion             -0.023378214056 Eh    ::
         :: repulsion energy           0.517424083819 Eh    ::

    * Orbital Energies and Occupations

         #    Occupation            Energy/Eh            Energy/eV
      -------------------------------------------------------------
         1        2.0000           -0.9163457             -24.9350
       ...           ...                  ...                  ...
        25        1.9992           -0.6770396             -18.4232
        26        1.9990           -0.6715788             -18.2746
        27        1.9988           -0.6677863             -18.1714
        28        1.9959           -0.6388465             -17.3839
        29        1.9956           -0.6370961             -17.3363
        30        1.9954           -0.6357862             -17.3006
        31        1.9916           -0.6215824             -16.9141
        32        1.9858           -0.6090191             -16.5723
        33        1.9726           -0.5932161             -16.1422
        34        1.9703           -0.5912970             -16.0900
        35        1.9358           -0.5725457             -15.5798
        36        1.9332           -0.5715564             -15.5528
        37        1.1607           -0.4993294             -13.5874 (HOMO)
        38        0.8069           -0.4823359             -13.1250 (LUMO)
        39        0.1916           -0.4383055             -11.9269
        40        0.0519           -0.4054989             -11.0342
        41        0.0174           -0.3791457             -10.3171
        42        0.0005           -0.2947383              -8.0202
        43        0.0000           -0.2145385              -5.8379
        44        0.0000           -0.2034158              -5.5352
        45        0.0000           -0.1525544              -4.1512
        46        0.0000           -0.1396068              -3.7989
        47                         -0.0706469              -1.9224
        48                         -0.0420285              -1.1437
       ...                                ...                  ...
        67                          0.5377976              14.6342
      -------------------------------------------------------------
                  HL-Gap            0.0169936 Eh            0.4624 eV

     #   Z          covCN         q      C6AA      α(0)
     1   6 C        3.691    -0.094    22.494     6.787
     2   7 N        2.825     0.078    19.889     6.624
     3   6 C        3.042     0.048    26.887     8.505
     4   7 N        2.784    -0.056    22.319     7.017
     5   6 C        3.037     0.094    25.884     8.345
     6   6 C        3.104    -0.012    28.172     8.697
     7   6 C        2.764     0.263    22.568     7.780
     8   8 O        0.858    -0.354    20.777     6.111
     9   7 N        2.744    -0.070    22.602     7.061
    10   6 C        3.711    -0.064    21.864     6.682
    11   6 C        2.734     0.309    21.750     7.636
    12   8 O        0.859    -0.327    20.273     6.037
    13   7 N        2.736     0.016    20.980     6.803
    14   6 C        2.798    -0.049    29.192     8.851
    15   1 H        0.924     0.111     1.690     2.033
    16   1 H        0.925     0.109     1.701     2.040
    17   1 H        0.925     0.138     1.473     1.898
    18   1 H        0.926     0.127     1.557     1.951
    19   1 H        0.925     0.124     1.580     1.966
    20   1 H        0.924     0.110     1.698     2.038
    21   1 H        0.924     0.109     1.703     2.041
    22   1 H        0.926     0.095     1.829     2.115
    23   1 H        0.000    -0.075    11.874     6.301
    24   1 H        0.926     0.139     1.470     1.896
    25   1 H        0.860     0.230     0.964     1.538

Wiberg/Mayer (AO) data.
largest (>0.10) Wiberg bond orders for each atom

     #   Z sym  total        # sym  WBO       # sym  WBO       # sym  WBO
 ---------------------------------------------------------------------------
     1   6 C    3.903 --     2 N    0.988    16 H    0.958    17 H    0.956
                            15 H    0.953
     2   7 N    3.621 --     3 C    1.347     6 C    1.159     1 C    0.988
     3   6 C    3.760 --     2 N    1.347     4 N    1.271    18 H    0.952
     4   7 N    3.531 --     3 C    1.271     5 C    1.173    25 H    0.918
     5   6 C    3.856 --     6 C    1.326     4 N    1.173    13 N    1.154
     6   6 C    3.832 --     5 C    1.326     2 N    1.159     7 C    1.087
     7   6 C    3.884 --     8 O    1.644     6 C    1.087     9 N    1.073
     8   8 O    1.921 --     7 C    1.644     9 N    0.122
     9   7 N    3.517 --    11 C    1.154     7 C    1.073    10 C    0.971
                            12 O    0.137     8 O    0.122
    10   6 C    3.877 --     9 N    0.971    19 H    0.957    21 H    0.953
                            20 H    0.951
    11   6 C    3.901 --    12 O    1.706     9 N    1.154    13 N    0.952
    12   8 O    2.005 --    11 C    1.706     9 N    0.137
    13   7 N    3.602 --    14 C    1.288     5 C    1.154    11 C    0.952
    14   6 C    3.334 --    13 N    1.288    22 H    0.967    24 H    0.956
    15   1 H    0.978 --     1 C    0.953
    16   1 H    0.980 --     1 C    0.958
    17   1 H    0.977 --     1 C    0.956
    18   1 H    0.983 --     3 C    0.952
    19   1 H    0.976 --    10 C    0.957
    20   1 H    0.969 --    10 C    0.951
    21   1 H    0.971 --    10 C    0.953
    22   1 H    0.988 --    14 C    0.967
    23   1 H    0.028
    24   1 H    0.978 --    14 C    0.956
    25   1 H    0.946 --     4 N    0.918
 ---------------------------------------------------------------------------

molecular dipole:
                 x           y           z       tot (Debye)
 q only:        2.485      -1.470       0.699
   full:        2.724      -2.019       0.744       8.824

           -------------------------------------------------
          | TOTAL ENERGY              -42.137220064799 Eh   |
          | GRADIENT NORM               0.003418795343 Eh/α |
          | HOMO-LUMO GAP               0.462418372310 eV   |
           -------------------------------------------------

 * finished run on 2024/06/05 at 19:58:56.374
