   * xtb version 6.6.1 (8d0f1dd) compiled by 'conda@1efc2f54142f' on 2023-08-01
          program call               : xtb xtbopt.xyz --opt crude --input .xc2 --gfn2

   ID    Z sym.   atoms
    1    7 N      1, 17
    2    6 C      2-6, 8, 9, 11-16, 18-23, 25, 26, 28-33
    3    8 O      7, 10, 24, 27
    4    1 H      34-72

          :  Hamiltonian                  GFN2-xTB          :
 * total energy  :   -99.3528627 Eh     change       -0.1847411E-11 Eh
   *** GEOMETRY OPTIMIZATION CONVERGED AFTER 1 ITERATIONS ***

 final structure:
================
72
 xtb: 6.6.1 (8d0f1dd)
N           -1.92821262369129        2.84807887777078        2.20670580773848
C           -1.89706288868790        2.13405200859458        1.18380779334142
C           -3.05389973089557        1.92076959110683        0.24773215028955
C           -3.52089952977023        0.47555962507794        0.33679801447898
C           -4.45052287541909       -0.01031026045276       -0.58493784121078
C           -4.91581034872068       -1.31353212412476       -0.52580725925042
O           -5.81640376424999       -1.85861367792805       -1.36796599882077
C           -6.43203262364245       -1.04820084802437       -2.34157459775891
C           -4.43173106372466       -2.18433081823396        0.48858911026359
O           -4.93306402594117       -3.43450090310400        0.46729708353369
C           -4.58430716047814       -4.33091997475317        1.49664314331521
C           -3.51006927503025       -1.69509524101902        1.40057673700727
C           -3.06355990983225       -0.38159161510654        1.32581396373210
C           -2.50686322312612        2.21045166616695       -1.17461015727858
C           -1.57423065182240        1.11905096173329       -1.73038197391142
C           -0.24196847568299        1.08975838425569       -1.08624975985517
N            0.40900865644830       -0.00344765929586       -0.71166353723401
C            1.79560441977199        0.07086031862915       -0.31239202751062
C            2.73362790461490       -0.39823422393498       -1.44073625564872
C            4.16572957580221       -0.11664615847789       -1.07449425901997
C            4.73285833786017        1.11262879058317       -1.38166211498148
C            6.04789795678696        1.37771725990528       -1.02941041722520
C            6.79756566978373        0.43110732984436       -0.36663481373801
O           10.19092786954874        0.17535393689626        1.24302881679800
C           10.02235046223958        1.33928292912082        1.04323593799647
C            6.23816429000466       -0.81310470183818       -0.04785644974762
O            7.05202174574467       -1.67039573732652        0.59516917465984
C            6.58802939068980       -2.95619697746286        0.93391976788186
C            4.91647925879904       -1.07519515384771       -0.40536415835071
C           -0.19885877470856       -1.31198681729504       -0.75743621897958
C           -4.26782508474848        2.84842957642611        0.55138549234539
C           -4.88746718768857        2.52787760894127        1.90950866151396
C           -3.92204014557406        4.33309831759142        0.47974616774933
H           -4.82759448849916        0.64591129930334       -1.35157195579900
H           -6.95380771710898       -0.20099816955012       -1.88661433307575
H           -7.15539731855110       -1.69036726546030       -2.84015356562366
H           -5.70843836490926       -0.68228478723836       -3.07735166737369
H           -4.86255406588949       -3.93913869006460        2.47931030593499
H           -5.14932487919818       -5.23915970914376        1.29668325568743
H           -3.51409278097729       -4.56076270026878        1.48390582551884
H           -3.13803823765118       -2.32724656062154        2.19035602309725
H           -2.36982266105654       -0.02898868569414        2.07328039345485
H           -3.34824926144405        2.31488355282607       -1.85859795634061
H           -1.97426034663927        3.16196861144912       -1.16045164224104
H           -2.06993900681090        0.15139238343318       -1.67630856062861
H           -1.41421368872549        1.35375461152357       -2.79084142916288
H           -0.98758036663097        1.61141663097735        0.82495779675224
H            0.31523344015684        2.01529534699968       -1.05938313645003
H            1.94859842243447       -0.54865815638008        0.57540770376024
H            2.04147318679433        1.10321684820823       -0.05477384530350
H            2.47584972827941        0.14189192793081       -2.35368959671979
H            2.59213321766513       -1.46483738260017       -1.61843847721001
H            4.15647526580087        1.85768146603542       -1.90866055582057
H            6.48757037143881        2.33004049604497       -1.28236066377642
H            9.57404272430858        2.01144790807362        1.78888614417214
H            7.82238768641108        0.61627170689482       -0.09177345068989
H           10.31215842298625        1.83252585148054        0.09921845339172
H            7.42227262128463       -3.44495761137030        1.43285784193562
H            5.73539497936970       -2.90711589443870        1.61875985799902
H            6.31237849069517       -3.52956017153324        0.04335898313891
H            4.46811411315232       -2.03054106808314       -0.17984148587298
H           -0.36167246944454       -1.63616486899126       -1.78765853580040
H           -1.15864551027635       -1.30546401940696       -0.23478479662538
H            0.45618666341461       -2.02877802322311       -0.26881601069303
H           -5.01875897429122        2.63878700509426       -0.21888321898095
H           -4.17769610584354        2.74168094185836        2.70215913666688
H           -5.18206640291706        1.48304861842913        1.97107329453382
H           -5.77099957046385        3.14218314274248        2.06100219111584
H           -3.15591964463607        4.57829408145224        1.20890068913071
H           -3.58241692743801        4.62462106147080       -0.51066465423210
H           -4.80911753285815        4.91657857694409        0.71173574267191
H           -1.07658358957385        2.94449692659041        2.75025075978843

          :  Hamiltonian                  GFN2-xTB          :
         :: total energy             -99.352862665537 Eh    ::
         :: gradient norm              0.003856628128 Eh/a0 ::
         :: HOMO-LUMO gap              1.749497403223 eV    ::
         :: SCC energy              -100.758111758311 Eh    ::
         :: -> dispersion             -0.073571560411 Eh    ::
         :: repulsion energy           1.403944694128 Eh    ::

    * Orbital Energies and Occupations

         #    Occupation            Energy/Eh            Energy/eV
      -------------------------------------------------------------
         1        2.0000           -0.8128418             -22.1186
       ...           ...                  ...                  ...
        78        1.9980           -0.5312513             -14.4561
        79        1.9978           -0.5298834             -14.4189
        80        1.9972           -0.5262899             -14.3211
        81        1.9955           -0.5185619             -14.1108
        82        1.9947           -0.5161582             -14.0454
        83        1.9944           -0.5151061             -14.0168
        84        1.9937           -0.5131742             -13.9642
        85        1.9837           -0.4981924             -13.5565
        86        1.9795           -0.4944651             -13.4551
        87        1.9543           -0.4815681             -13.1041
        88        1.9336           -0.4755021             -12.9391
        89        1.9063           -0.4698214             -12.7845
        90        1.8615           -0.4632640             -12.6061 (HOMO)
        91        0.3764           -0.3989711             -10.8566 (LUMO)
        92        0.0195           -0.3489512              -9.4954
        93        0.0137           -0.3433667              -9.3435
        94        0.0033           -0.3206025              -8.7240
        95        0.0031           -0.3195685              -8.6959
        96        0.0027           -0.3176204              -8.6429
        97        0.0015           -0.3083486              -8.3906
        98        0.0000           -0.1949789              -5.3056
        99        0.0000           -0.1880734              -5.1177
       100                         -0.1407629              -3.8304
       101                         -0.0727075              -1.9785
       ...                                ...                  ...
       171                          0.5721034              15.5677
      -------------------------------------------------------------
                  HL-Gap            0.0642928 Eh            1.7495 eV

     #   Z          covCN         q      C6AA      α(0)
     1   7 N        1.774    -0.265    27.702     7.794
     2   6 C        2.827     0.101    25.747     8.315
     3   6 C        3.908     0.007    20.410     6.421
     4   6 C        2.974     0.003    27.964     8.674
     5   6 C        2.920    -0.080    29.997     8.982
     6   6 C        2.862     0.130    25.149     8.220
     7   8 O        1.706    -0.228    17.782     5.693
     8   6 C        3.644     0.027    20.459     6.502
     9   6 C        2.864     0.129    25.170     8.224
    10   8 O        1.706    -0.227    17.760     5.690
    11   6 C        3.645     0.026    20.467     6.502
    12   6 C        2.913    -0.074    29.858     8.960
    13   6 C        2.921    -0.053    29.319     8.880
    14   6 C        3.813    -0.065    21.737     6.636
    15   6 C        3.802    -0.069    21.829     6.652
    16   6 C        2.844     0.010    27.794     8.640
    17   7 N        2.729     0.013    21.032     6.811
    18   6 C        3.756    -0.016    20.913     6.521
    19   6 C        3.808    -0.071    21.848     6.654
    20   6 C        2.971     0.010    27.800     8.649
    21   6 C        2.923    -0.048    29.187     8.860
    22   6 C        2.917    -0.025    28.637     8.775
    23   6 C        2.920    -0.049    29.209     8.863
    24   8 O        0.856    -0.255    18.991     5.843
    25   6 C        2.701     0.179    24.140     8.042
    26   6 C        2.863     0.155    24.639     8.136
    27   8 O        1.706    -0.233    17.870     5.707
    28   6 C        3.643     0.028    20.436     6.498
    29   6 C        2.920    -0.074    29.858     8.961
    30   6 C        3.699    -0.071    22.025     6.712
    31   6 C        3.853    -0.007    20.672     6.467
    32   6 C        3.756    -0.119    22.833     6.813
    33   6 C        3.755    -0.119    22.833     6.813
    34   1 H        0.926     0.053     2.285     2.364
    35   1 H        0.924     0.055     2.262     2.352
    36   1 H        0.925     0.082     1.955     2.187
    37   1 H        0.924     0.048     2.342     2.393
    38   1 H        0.924     0.056     2.246     2.343
    39   1 H        0.925     0.082     1.955     2.187
    40   1 H        0.924     0.049     2.332     2.388
    41   1 H        0.926     0.053     2.282     2.363
    42   1 H        0.926     0.039     2.459     2.452
    43   1 H        0.925     0.061     2.184     2.311
    44   1 H        0.924     0.055     2.264     2.353
    45   1 H        0.925     0.067     2.121     2.278
    46   1 H        0.924     0.082     1.962     2.190
    47   1 H        0.922     0.008     2.929     2.676
    48   1 H        0.926     0.071     2.069     2.250
    49   1 H        0.924     0.068     2.108     2.271
    50   1 H        0.924     0.068     2.108     2.270
    51   1 H        0.924     0.055     2.262     2.352
    52   1 H        0.924     0.055     2.253     2.347
    53   1 H        0.926     0.041     2.442     2.444
    54   1 H        0.926     0.053     2.277     2.360
    55   1 H        0.923     0.051     2.308     2.376
    56   1 H        0.926     0.059     2.206     2.322
    57   1 H        0.923     0.051     2.308     2.376
    58   1 H        0.925     0.083     1.948     2.183
    59   1 H        0.924     0.047     2.353     2.399
    60   1 H        0.924     0.052     2.297     2.370
    61   1 H        0.926     0.042     2.423     2.434
    62   1 H        0.924     0.078     2.003     2.213
    63   1 H        0.924     0.080     1.980     2.201
    64   1 H        0.925     0.081     1.968     2.194
    65   1 H        0.924     0.038     2.474     2.460
    66   1 H        0.925     0.070     2.091     2.261
    67   1 H        0.925     0.036     2.505     2.475
    68   1 H        0.925     0.052     2.292     2.368
    69   1 H        0.925     0.061     2.188     2.313
    70   1 H        0.925     0.035     2.514     2.479
    71   1 H        0.925     0.056     2.251     2.346
    72   1 H        0.860     0.159     1.343     1.815

Wiberg/Mayer (AO) data.
largest (>0.10) Wiberg bond orders for each atom

     #   Z sym  total        # sym  WBO       # sym  WBO       # sym  WBO
 ---------------------------------------------------------------------------
     1   7 N    3.044 --     2 C    1.959    72 H    0.941
     2   6 C    3.928 --     1 N    1.959     3 C    0.994    47 H    0.895
     3   6 C    3.975 --     2 C    0.994     4 C    0.969    14 C    0.957
                            31 C    0.942
     4   6 C    3.947 --    13 C    1.413     5 C    1.369     3 C    0.969
     5   6 C    3.961 --     6 C    1.400     4 C    1.369    34 H    0.958
     6   6 C    3.904 --     5 C    1.400     9 C    1.220     7 O    1.102
     7   8 O    2.255 --     6 C    1.102     8 C    0.977
     8   6 C    3.931 --     7 O    0.977    36 H    0.976    35 H    0.973
                            37 H    0.973
     9   6 C    3.900 --    12 C    1.391     6 C    1.220    10 O    1.104
    10   8 O    2.253 --     9 C    1.104    11 C    0.977
    11   6 C    3.930 --    10 O    0.977    39 H    0.977    40 H    0.973
                            38 H    0.973
    12   6 C    3.961 --    13 C    1.404     9 C    1.391    41 H    0.964
    13   6 C    3.952 --     4 C    1.413    12 C    1.404    42 H    0.962
    14   6 C    3.973 --    15 C    0.982    44 H    0.972    43 H    0.968
                             3 C    0.957
    15   6 C    3.986 --    16 C    1.059    14 C    0.982    45 H    0.961
                            46 H    0.926
    16   6 C    3.610 --    17 N    1.409    15 C    1.059    48 H    0.957
    17   7 N    3.488 --    16 C    1.409    30 C    0.998    18 C    0.987
    18   6 C    3.957 --    17 N    0.987    50 H    0.968    19 C    0.968
                            49 H    0.964
    19   6 C    3.976 --    20 C    1.005    52 H    0.972    51 H    0.972
                            18 C    0.968
    20   6 C    3.968 --    29 C    1.413    21 C    1.406    19 C    1.005
    21   6 C    3.945 --    22 C    1.409    20 C    1.406    53 H    0.968
    22   6 C    3.977 --    23 C    1.475    21 C    1.409    54 H    0.968
    23   6 C    3.946 --    22 C    1.475    26 C    1.316    56 H    0.961
    24   8 O    2.090 --    25 C    1.998
    25   6 C    3.874 --    24 O    1.998    55 H    0.936    57 H    0.934
    26   6 C    3.912 --    29 C    1.353    23 C    1.316    27 O    1.106
    27   8 O    2.256 --    26 C    1.106    28 C    0.977
    28   6 C    3.931 --    27 O    0.977    58 H    0.977    59 H    0.974
                            60 H    0.973
    29   6 C    3.952 --    20 C    1.413    26 C    1.353    61 H    0.963
    30   6 C    3.957 --    17 N    0.998    64 H    0.977    62 H    0.966
                            63 H    0.961
    31   6 C    3.971 --    33 C    1.009    32 C    1.008    65 H    0.959
                             3 C    0.942
    32   6 C    3.977 --    31 C    1.008    67 H    0.982    68 H    0.981
                            66 H    0.973
    33   6 C    3.982 --    31 C    1.009    70 H    0.983    71 H    0.980
                            69 H    0.976
    34   1 H    0.996 --     5 C    0.958
    35   1 H    0.993 --     8 C    0.973
    36   1 H    0.992 --     8 C    0.976
    37   1 H    0.993 --     8 C    0.973
    38   1 H    0.992 --    11 C    0.973
    39   1 H    0.992 --    11 C    0.977
    40   1 H    0.993 --    11 C    0.973
    41   1 H    0.995 --    12 C    0.964
    42   1 H    0.998 --    13 C    0.962
    43   1 H    0.995 --    14 C    0.968
    44   1 H    0.996 --    14 C    0.972
    45   1 H    0.995 --    15 C    0.961
    46   1 H    0.971 --    15 C    0.926
    47   1 H    0.986 --     2 C    0.895
    48   1 H    0.994 --    16 C    0.957
    49   1 H    0.991 --    18 C    0.964
    50   1 H    0.994 --    18 C    0.968
    51   1 H    0.996 --    19 C    0.972
    52   1 H    0.996 --    19 C    0.972
    53   1 H    0.998 --    21 C    0.968
    54   1 H    0.995 --    22 C    0.968
    55   1 H    0.983 --    25 C    0.936
    56   1 H    0.995 --    23 C    0.961
    57   1 H    0.983 --    25 C    0.934
    58   1 H    0.992 --    28 C    0.977
    59   1 H    0.993 --    28 C    0.974
    60   1 H    0.992 --    28 C    0.973
    61   1 H    0.997 --    29 C    0.963
    62   1 H    0.985 --    30 C    0.966
    63   1 H    0.987 --    30 C    0.961
    64   1 H    0.993 --    30 C    0.977
    65   1 H    0.992 --    31 C    0.959
    66   1 H    0.990 --    32 C    0.973
    67   1 H    0.996 --    32 C    0.982
    68   1 H    0.994 --    32 C    0.981
    69   1 H    0.993 --    33 C    0.976
    70   1 H    0.997 --    33 C    0.983
    71   1 H    0.993 --    33 C    0.980
    72   1 H    0.969 --     1 N    0.941
 ---------------------------------------------------------------------------

molecular dipole:
                 x           y           z       tot (Debye)
 q only:       -0.413       0.170      -0.848
   full:       -0.130       0.185      -0.981       2.560

           -------------------------------------------------
          | TOTAL ENERGY              -99.352862665537 Eh   |
          | GRADIENT NORM               0.003856628128 Eh/α |
          | HOMO-LUMO GAP               1.749497403223 eV   |
           -------------------------------------------------

 * finished run on 2024/04/06 at 11:14:19.503
