   * xtb version 6.6.1 (8d0f1dd) compiled by 'conda@1efc2f54142f' on 2023-08-01
          program call               : xtb struc.xyz --opt loose --input .xc1 --gfn2

   ID    Z sym.   atoms
    1    6 C      1, 3, 5-7, 10, 11, 14
    2    7 N      2, 4, 9, 13
    3    8 O      8, 12
    4    1 H      15-25
constraining bond 3 17 to    5.1400000 Å, actual value:    3.3163079 Å

          :  Hamiltonian                  GFN2-xTB          :
 * total energy  :   -30.3710246 Eh     change       -0.6650680E-10 Eh
 * total energy  :   -36.6644716 Eh     change       -0.6293447E+01 Eh
 * total energy  :   -40.2750085 Eh     change       -0.3610537E+01 Eh
 * total energy  :   -41.7148859 Eh     change       -0.1439877E+01 Eh
 * total energy  :   -41.9411778 Eh     change       -0.2262919E+00 Eh
 * total energy  :   -41.9493052 Eh     change       -0.8127422E-02 Eh
 * total energy  :   -41.9614972 Eh     change       -0.1219195E-01 Eh
 * total energy  :   -41.9756613 Eh     change       -0.1416414E-01 Eh
 * total energy  :   -41.9850327 Eh     change       -0.9371433E-02 Eh
 * total energy  :   -41.9917510 Eh     change       -0.6718299E-02 Eh
 * total energy  :   -42.0697635 Eh     change       -0.5980030E-02 Eh
 * total energy  :   -42.0726295 Eh     change       -0.2866048E-02 Eh
 * total energy  :   -42.0771559 Eh     change       -0.4526397E-02 Eh
 * total energy  :   -42.0840745 Eh     change       -0.6918580E-02 Eh
 * total energy  :   -42.0867019 Eh     change       -0.2627380E-02 Eh
 * total energy  :   -42.0873831 Eh     change       -0.6812162E-03 Eh
 * total energy  :   -42.0878268 Eh     change       -0.4437438E-03 Eh
 * total energy  :   -42.0878849 Eh     change       -0.5806277E-04 Eh
 * total energy  :   -42.0879014 Eh     change       -0.1650763E-04 Eh
   *** GEOMETRY OPTIMIZATION CONVERGED AFTER 27 ITERATIONS ***

 final structure:
================
25
 xtb: 6.6.1 (8d0f1dd)
C            3.11946814734011        1.56900435202610        0.01504857870535
N            2.37086156233823        0.38718668751212       -0.01857382446891
C            2.51106173749108       -2.60213155311824       -0.00687808826984
N            1.26228847814079       -2.31100093900312       -0.00895027139446
C            0.52394741244504       -1.11839907103311       -0.00917827842378
C            1.09784150209813        0.18510001679267       -0.00640355539035
C            0.14200461792199        1.35896898349477        0.00115197766278
O            0.53819124061695        2.49983868228332        0.01014229298463
N           -1.18902879578442        1.05265248154377       -0.00752399438706
C           -2.15826274097410        2.14335662696669       -0.00783534986603
C           -1.73684576055780       -0.21141052787585       -0.00610174196125
O           -2.92360603990242       -0.39233681055235       -0.00437600175663
N           -0.83127062338915       -1.28343947481080       -0.00480737815169
C           -1.44882011070309       -2.60119326505680        0.00428115865258
H            3.67189579619690        1.58516631889918        0.96192000976275
H            3.86494400464992        1.51242876884459       -0.78528950227651
H            2.56513877106956        2.53396260046297       -0.07547579352294
H            3.26339045380574       -1.81979648800405       -0.00527410879155
H           -1.62039444741419        3.08749635253043       -0.00032362847019
H           -2.78607283124552        2.07092622099042       -0.89567854141039
H           -2.79641000061477        2.06267287591164        0.87187699694500
H           -1.18896701725691       -3.15801863094026        0.90679543207546
H           -1.20238995266831       -3.16505074683605       -0.89757682940425
H           -2.52914654167331       -2.44281727001124        0.01133688281928
H            0.64061265216954       -3.12492764941679       -0.01113482376201

          :  Hamiltonian                  GFN2-xTB          :
         :: total energy             -42.087901402509 Eh    ::
         :: gradient norm              0.001451239822 Eh/a0 ::
         :: HOMO-LUMO gap              0.175188478612 eV    ::
         :: SCC energy               -42.595261542773 Eh    ::
         :: -> dispersion             -0.022099410569 Eh    ::
         :: repulsion energy           0.507195494119 Eh    ::

    * Orbital Energies and Occupations

         #    Occupation            Energy/Eh            Energy/eV
      -------------------------------------------------------------
         1        2.0000           -0.8962337             -24.3878
       ...           ...                  ...                  ...
        25        1.9999           -0.6768700             -18.4186
        26        1.9998           -0.6676354             -18.1673
        27        1.9994           -0.6473409             -17.6150
        28        1.9993           -0.6432302             -17.5032
        29        1.9988           -0.6357461             -17.2995
        30        1.9986           -0.6324241             -17.2091
        31        1.9970           -0.6204072             -16.8821
        32        1.9942           -0.6103160             -16.6075
        33        1.9910           -0.6031571             -16.4127
        34        1.9836           -0.5936952             -16.1553
        35        1.9670           -0.5824363             -15.8489
        36        1.7363           -0.5475651             -14.9000
        37        1.2475           -0.5257263             -14.3057 (HOMO)
        38        1.0495           -0.5192883             -14.1306 (LUMO)
        39        0.0363           -0.4545108             -12.3679
        40        0.0015           -0.4042132             -10.9992
        41        0.0005           -0.3853588             -10.4861
        42        0.0000           -0.3020874              -8.2202
        43                         -0.2116774              -5.7600
        44                         -0.1757548              -4.7825
        45                         -0.1517826              -4.1302
        46                         -0.1015104              -2.7622
        47                         -0.0887353              -2.4146
        48                         -0.0574262              -1.5626
       ...                                ...                  ...
        67                          0.5385367              14.6543
      -------------------------------------------------------------
                  HL-Gap            0.0064381 Eh            0.1752 eV

     #   Z          covCN         q      C6AA      α(0)
     1   6 C        3.686    -0.053    21.740     6.675
     2   7 N        1.831    -0.118    24.331     7.309
     3   6 C        1.841    -0.061    32.824     9.255
     4   7 N        2.687     0.005    21.181     6.835
     5   6 C        2.832     0.089    26.015     8.358
     6   6 C        2.884     0.054    26.789     8.485
     7   6 C        2.768     0.269    22.461     7.762
     8   8 O        0.859    -0.323    20.199     6.026
     9   7 N        2.738    -0.065    22.491     7.044
    10   6 C        3.710    -0.063    21.849     6.680
    11   6 C        2.726     0.318    21.590     7.607
    12   8 O        0.860    -0.347    20.653     6.093
    13   7 N        2.743    -0.045    22.104     6.983
    14   6 C        3.702    -0.084    22.268     6.748
    15   1 H        0.924     0.125     1.572     1.961
    16   1 H        0.924     0.122     1.596     1.975
    17   1 H        0.920     0.137     1.481     1.903
    18   1 H        0.925     0.130     1.536     1.938
    19   1 H        0.925     0.115     1.654     2.011
    20   1 H        0.925     0.107     1.721     2.052
    21   1 H        0.925     0.107     1.720     2.051
    22   1 H        0.924     0.094     1.838     2.120
    23   1 H        0.924     0.095     1.836     2.119
    24   1 H        0.924     0.141     1.451     1.884
    25   1 H        0.859     0.250     0.885     1.473

Wiberg/Mayer (AO) data.
largest (>0.10) Wiberg bond orders for each atom

     #   Z sym  total        # sym  WBO       # sym  WBO       # sym  WBO
 ---------------------------------------------------------------------------
     1   6 C    3.863 --     2 N    1.109    16 H    0.916    15 H    0.904
                            17 H    0.878
     2   7 N    2.836 --     6 C    1.565     1 C    1.109
     3   6 C    2.674 --     4 N    1.626    18 H    0.907
     4   7 N    3.662 --     3 C    1.626     5 C    1.083    25 H    0.865
     5   6 C    3.667 --    13 N    1.215     6 C    1.208     4 N    1.083
     6   6 C    3.916 --     2 N    1.565     5 C    1.208     7 C    0.928
     7   6 C    3.893 --     8 O    1.702     9 N    1.165     6 C    0.928
     8   8 O    2.019 --     7 C    1.702     9 N    0.137
     9   7 N    3.549 --     7 C    1.165    11 C    1.106    10 C    0.960
                             8 O    0.137    12 O    0.119
    10   6 C    3.891 --    19 H    0.967     9 N    0.960    21 H    0.959
                            20 H    0.959
    11   6 C    3.939 --    12 O    1.695     9 N    1.106    13 N    1.053
    12   8 O    2.011 --    11 C    1.695     9 N    0.119    13 N    0.109
    13   7 N    3.482 --     5 C    1.215    11 C    1.053    14 C    0.978
                            12 O    0.109
    14   6 C    3.913 --    13 N    0.978    22 H    0.958    23 H    0.958
                            24 H    0.950
    15   1 H    0.943 --     1 C    0.904
    16   1 H    0.947 --     1 C    0.916
    17   1 H    0.913 --     1 C    0.878
    18   1 H    0.939 --     3 C    0.907
    19   1 H    0.984 --    10 C    0.967
    20   1 H    0.979 --    10 C    0.959
    21   1 H    0.979 --    10 C    0.959
    22   1 H    0.981 --    14 C    0.958
    23   1 H    0.981 --    14 C    0.958
    24   1 H    0.978 --    14 C    0.950
    25   1 H    0.917 --     4 N    0.865
 ---------------------------------------------------------------------------

molecular dipole:
                 x           y           z       tot (Debye)
 q only:        1.341      -1.511       0.016
   full:        1.238      -1.318       0.025       4.597

           -------------------------------------------------
          | TOTAL ENERGY              -42.087901402509 Eh   |
          | GRADIENT NORM               0.001451239822 Eh/α |
          | HOMO-LUMO GAP               0.175188478612 eV   |
           -------------------------------------------------

 * finished run on 2024/06/05 at 19:59:08.979
