   * xtb version 6.6.1 (8d0f1dd) compiled by 'conda@1efc2f54142f' on 2023-08-01
          program call               : xtb xtbopt.xyz --opt crude --input .xc2 --gfn2

   ID    Z sym.   atoms
    1    6 C      1, 3, 5-7, 10, 11, 14
    2    7 N      2, 4, 9, 13
    3    8 O      8, 12
    4    1 H      15-25
########################################################################
[WARNING] Please study the warnings concerning your input carefully
-1- readin_getIntValue: could not parse ''
########################################################################

          :  Hamiltonian                  GFN2-xTB          :
 * total energy  :   -42.0879371 Eh     change       -0.5968559E-12 Eh
 * total energy  :   -42.0912667 Eh     change       -0.3329568E-02 Eh
 * total energy  :   -42.0939565 Eh     change       -0.2689839E-02 Eh
 * total energy  :   -42.0943813 Eh     change       -0.4248177E-03 Eh
   *** GEOMETRY OPTIMIZATION CONVERGED AFTER 4 ITERATIONS ***

 final structure:
================
25
 xtb: 6.6.1 (8d0f1dd)
C            3.15307387684468        1.41461132000820        0.01633038013868
N            2.34826438521671        0.27577378648758       -0.00566623975663
C            2.57893941793340       -2.30455727650785       -0.00944681938119
N            1.29537795476970       -2.22897336765225       -0.00811224832440
C            0.46917598884740       -1.10953576721793       -0.00417335186099
C            1.06153422174443        0.16943482063668        0.00152626006751
C            0.13443895232911        1.35603443345224        0.00472545309713
O            0.54672085356501        2.49212832439706        0.01174960346555
N           -1.20043036080595        1.05387557370678       -0.00624558709192
C           -2.16064030675354        2.15242243505883       -0.00834872531642
C           -1.76650839347136       -0.20734460233944       -0.00622637311498
O           -2.95448553737977       -0.37628117383543       -0.00811382625750
N           -0.87475649164845       -1.29004910544717       -0.00317779882059
C           -1.46911922244637       -2.61498067045424        0.00282902369116
H            3.70970993138191        1.45134381522148        0.95893734388857
H            3.88504614298794        1.35844013718843       -0.79456195237407
H            2.55593916487834        2.32903164242739       -0.08171977451131
H            3.21511311990397       -1.42283339995486       -0.00263241840319
H           -1.61504296081221        3.09228004507750       -0.00113080589539
H           -2.78849413152431        2.08478837075636       -0.89652980456421
H           -2.80039619742180        2.07816969582898        0.87079569911866
H           -1.19067646483890       -3.16699136441108        0.90225052580852
H           -1.20116327126737       -3.17137178189850       -0.89718242849823
H           -2.55195344351252       -2.47832059041131        0.00831399751788
H            0.78076428557995       -3.11885675851746       -0.01301851472260

          :  Hamiltonian                  GFN2-xTB          :
         :: total energy             -42.094381346230 Eh    ::
         :: gradient norm              0.009483353356 Eh/a0 ::
         :: HOMO-LUMO gap              0.131778306742 eV    ::
         :: SCC energy               -42.608205717646 Eh    ::
         :: -> dispersion             -0.022355348316 Eh    ::
         :: repulsion energy           0.513693566647 Eh    ::

    * Orbital Energies and Occupations

         #    Occupation            Energy/Eh            Energy/eV
      -------------------------------------------------------------
         1        2.0000           -0.8955825             -24.3700
       ...           ...                  ...                  ...
        25        1.9999           -0.6782883             -18.4572
        26        1.9999           -0.6768174             -18.4171
        27        1.9995           -0.6469265             -17.6038
        28        1.9993           -0.6424045             -17.4807
        29        1.9991           -0.6391330             -17.3917
        30        1.9987           -0.6326392             -17.2150
        31        1.9970           -0.6197875             -16.8653
        32        1.9946           -0.6103254             -16.6078
        33        1.9920           -0.6040188             -16.4362
        34        1.9855           -0.5946079             -16.1801
        35        1.9671           -0.5814489             -15.8220
        36        1.8585           -0.5574568             -15.1692
        37        1.1568           -0.5216838             -14.1957 (HOMO)
        38        1.0052           -0.5168411             -14.0640 (LUMO)
        39        0.0448           -0.4568899             -12.4326
        40        0.0017           -0.4046312             -11.0106
        41        0.0005           -0.3859048             -10.5010
        42        0.0000           -0.3006299              -8.1806
        43                         -0.2085359              -5.6746
        44                         -0.1696324              -4.6159
        45                         -0.1484340              -4.0391
        46                         -0.1002363              -2.7276
        47                         -0.0824356              -2.2432
        48                         -0.0437695              -1.1910
       ...                                ...                  ...
        67                          0.5393614              14.6768
      -------------------------------------------------------------
                  HL-Gap            0.0048428 Eh            0.1318 eV

     #   Z          covCN         q      C6AA      α(0)
     1   6 C        3.691    -0.055    21.762     6.675
     2   7 N        1.838    -0.119    24.367     7.315
     3   6 C        1.847    -0.068    33.000     9.280
     4   7 N        2.688     0.011    21.061     6.816
     5   6 C        2.854     0.088    26.043     8.364
     6   6 C        2.892     0.049    26.904     8.504
     7   6 C        2.767     0.270    22.445     7.759
     8   8 O        0.858    -0.325    20.244     6.032
     9   7 N        2.738    -0.067    22.534     7.050
    10   6 C        3.710    -0.063    21.844     6.679
    11   6 C        2.726     0.318    21.599     7.608
    12   8 O        0.860    -0.345    20.621     6.088
    13   7 N        2.740    -0.042    22.057     6.975
    14   6 C        3.700    -0.080    22.201     6.738
    15   1 H        0.924     0.120     1.612     1.985
    16   1 H        0.924     0.118     1.633     1.999
    17   1 H        0.924     0.137     1.486     1.907
    18   1 H        0.925     0.157     1.348     1.815
    19   1 H        0.925     0.115     1.655     2.012
    20   1 H        0.925     0.107     1.724     2.053
    21   1 H        0.925     0.107     1.723     2.053
    22   1 H        0.924     0.092     1.855     2.130
    23   1 H        0.924     0.093     1.854     2.129
    24   1 H        0.924     0.137     1.479     1.902
    25   1 H        0.859     0.248     0.893     1.480

Wiberg/Mayer (AO) data.
largest (>0.10) Wiberg bond orders for each atom

     #   Z sym  total        # sym  WBO       # sym  WBO       # sym  WBO
 ---------------------------------------------------------------------------
     1   6 C    3.873 --     2 N    1.095    16 H    0.922    15 H    0.912
                            17 H    0.884
     2   7 N    2.901 --     6 C    1.535     1 C    1.095     3 C    0.109
     3   6 C    2.732 --     4 N    1.615    18 H    0.858     2 N    0.109
     4   7 N    3.668 --     3 C    1.615     5 C    1.091    25 H    0.874
     5   6 C    3.699 --     6 C    1.222    13 N    1.215     4 N    1.091
     6   6 C    3.917 --     2 N    1.535     5 C    1.222     7 C    0.938
     7   6 C    3.899 --     8 O    1.697     9 N    1.164     6 C    0.938
     8   8 O    2.038 --     7 C    1.697     9 N    0.140
     9   7 N    3.552 --     7 C    1.164    11 C    1.102    10 C    0.961
                             8 O    0.140    12 O    0.120
    10   6 C    3.892 --    19 H    0.967     9 N    0.961    21 H    0.959
                            20 H    0.959
    11   6 C    3.940 --    12 O    1.699     9 N    1.102    13 N    1.053
    12   8 O    2.013 --    11 C    1.699     9 N    0.120    13 N    0.110
    13   7 N    3.483 --     5 C    1.215    11 C    1.053    14 C    0.977
                            12 O    0.110
    14   6 C    3.914 --    13 N    0.977    22 H    0.961    23 H    0.961
                            24 H    0.955
    15   1 H    0.948 --     1 C    0.912
    16   1 H    0.953 --     1 C    0.922
    17   1 H    0.928 --     1 C    0.884
    18   1 H    0.937 --     3 C    0.858
    19   1 H    0.984 --    10 C    0.967
    20   1 H    0.979 --    10 C    0.959
    21   1 H    0.979 --    10 C    0.959
    22   1 H    0.982 --    14 C    0.961
    23   1 H    0.981 --    14 C    0.961
    24   1 H    0.980 --    14 C    0.955
    25   1 H    0.917 --     4 N    0.874
 ---------------------------------------------------------------------------

molecular dipole:
                 x           y           z       tot (Debye)
 q only:        1.433      -1.628       0.009
   full:        1.287      -1.505       0.019       5.034

           -------------------------------------------------
          | TOTAL ENERGY              -42.094381346230 Eh   |
          | GRADIENT NORM               0.009483353356 Eh/α |
          | HOMO-LUMO GAP               0.131778306742 eV   |
           -------------------------------------------------

 * finished run on 2024/06/05 at 19:59:09.227
