   * xtb version 6.6.1 (8d0f1dd) compiled by 'conda@1efc2f54142f' on 2023-08-01
          program call               : xtb xtbopt.xyz --opt crude --input .xc2 --gfn2

   ID    Z sym.   atoms
    1    6 C      1, 3, 5-7, 10, 11, 14
    2    7 N      2, 4, 9, 13
    3    8 O      8, 12
    4    1 H      15-25
########################################################################
[WARNING] Please study the warnings concerning your input carefully
-1- readin_getIntValue: could not parse ''
########################################################################

          :  Hamiltonian                  GFN2-xTB          :
 * total energy  :   -40.4179813 Eh     change       -0.1421085E-12 Eh
 * total energy  :   -42.1198884 Eh     change       -0.1701907E+01 Eh
 * total energy  :   -42.1429040 Eh     change       -0.2301560E-01 Eh
 * total energy  :   -42.1486912 Eh     change       -0.5787117E-02 Eh
 * total energy  :   -42.1511430 Eh     change       -0.2451847E-02 Eh
 * total energy  :   -42.1515997 Eh     change       -0.4567007E-03 Eh
 * total energy  :   -42.1523105 Eh     change       -0.7108249E-03 Eh
 * total energy  :   -42.1534454 Eh     change       -0.1134897E-02 Eh
 * total energy  :   -42.1538465 Eh     change       -0.4011074E-03 Eh
 * total energy  :   -42.1540734 Eh     change       -0.2268464E-03 Eh
   *** GEOMETRY OPTIMIZATION CONVERGED AFTER 10 ITERATIONS ***

 final structure:
================
25
 xtb: 6.6.1 (8d0f1dd)
C            3.12118828952325        1.20181627390157       -0.13677876701261
N            2.14815175882276        0.14304298325253       -0.07031156664911
C            2.39790996503677       -1.13102448498344        0.20835421686430
N            1.24025977214756       -1.81713121953305        0.21545398452219
C            0.22395863276935       -0.94584427485867       -0.07414665279556
C            0.80587811338056        0.28811057111781       -0.27166515334482
C            0.08934044922072        1.55833556700668       -0.62823369743107
O            0.41412575465805        2.63849833259363       -0.15845899253276
N           -1.52869025199953        1.04062439588835        0.17147380372382
C           -2.17981648465387        2.01208996657747        0.68084371036183
C           -2.06911979196579       -0.26161562510379        0.09194181701278
O           -3.23936840123673       -0.50586593812668        0.17662073589940
N           -1.10749473916747       -1.25004660826120       -0.08239532358551
C           -1.53892998606548       -2.63578586365803       -0.13031308593172
H            3.88139648018991        1.05359847366410        0.62776657728226
H            3.60057149687607        1.21959918144443       -1.11708856113249
H            2.61534867305742        2.15433417218217        0.02492269624783
H            3.36579546168504       -1.55289234579832        0.39450085340260
H           -1.68491429547835        2.97584612543839        0.69211704839641
H           -0.37180699988176        1.48667146399982       -1.63952520740578
H           -3.17256824737002        1.89285485238022        1.09563253031711
H           -1.33012897694681       -3.14767575478292        0.81114525322151
H           -1.05125194247221       -3.15116408169091       -0.95709177012180
H           -2.61609414525302       -2.64156418202423       -0.29089238434322
H            1.14669092922412       -2.80657343902710        0.39729955293438

          :  Hamiltonian                  GFN2-xTB          :
         :: total energy             -42.154073381179 Eh    ::
         :: gradient norm              0.004651607236 Eh/a0 ::
         :: HOMO-LUMO gap              2.135686014683 eV    ::
         :: SCC energy               -42.680962492508 Eh    ::
         :: -> dispersion             -0.023062791292 Eh    ::
         :: repulsion energy           0.526717631165 Eh    ::

    * Orbital Energies and Occupations

         #    Occupation            Energy/Eh            Energy/eV
      -------------------------------------------------------------
         1        2.0000           -0.9108751             -24.7862
       ...           ...                  ...                  ...
        25        2.0000           -0.6729560             -18.3121
        26        2.0000           -0.6666680             -18.1410
        27        1.9999           -0.6548555             -17.8195
        28        1.9998           -0.6351915             -17.2844
        29        1.9998           -0.6341083             -17.2550
        30        1.9997           -0.6257909             -17.0286
        31        1.9995           -0.6207314             -16.8910
        32        1.9994           -0.6171367             -16.7931
        33        1.9992           -0.6128960             -16.6777
        34        1.9963           -0.5877817             -15.9944
        35        1.9789           -0.5602351             -15.2448
        36        1.9504           -0.5464454             -14.8695
        37        1.8668           -0.5301177             -14.4252 (HOMO)
        38        0.1795           -0.4516326             -12.2895 (LUMO)
        39        0.0257           -0.4195435             -11.4164
        40        0.0049           -0.3932534             -10.7010
        41        0.0001           -0.3296126              -8.9692
        42        0.0001           -0.3248922              -8.8408
        43                         -0.1916931              -5.2162
        44                         -0.1855780              -5.0498
        45                         -0.1427233              -3.8837
        46                         -0.0791923              -2.1549
        47                         -0.0668524              -1.8191
        48                         -0.0462165              -1.2576
       ...                                ...                  ...
        67                          0.5382199              14.6457
      -------------------------------------------------------------
                  HL-Gap            0.0784850 Eh            2.1357 eV

     #   Z          covCN         q      C6AA      α(0)
     1   6 C        3.692    -0.094    22.484     6.785
     2   7 N        2.850     0.089    19.707     6.593
     3   6 C        3.053     0.047    26.891     8.505
     4   7 N        2.808    -0.056    22.318     7.017
     5   6 C        3.037     0.104    25.656     8.308
     6   6 C        3.108    -0.005    27.999     8.669
     7   6 C        3.344     0.210    21.344     7.297
     8   8 O        0.856    -0.388    21.449     6.209
     9   7 N        2.416    -0.131    23.948     7.267
    10   6 C        2.792     0.048    26.907     8.497
    11   6 C        2.731     0.327    21.440     7.581
    12   8 O        0.858    -0.340    20.519     6.073
    13   7 N        2.738    -0.059    22.381     7.026
    14   6 C        3.699    -0.072    22.045     6.715
    15   1 H        0.925     0.105     1.743     2.065
    16   1 H        0.924     0.108     1.710     2.045
    17   1 H        0.924     0.138     1.479     1.902
    18   1 H        0.926     0.125     1.574     1.962
    19   1 H        0.925     0.144     1.436     1.874
    20   1 H        0.921     0.061     2.189     2.314
    21   1 H        0.925     0.125     1.576     1.963
    22   1 H        0.924     0.080     1.981     2.201
    23   1 H        0.925     0.081     1.966     2.193
    24   1 H        0.925     0.123     1.589     1.971
    25   1 H        0.860     0.230     0.963     1.537

Wiberg/Mayer (AO) data.
largest (>0.10) Wiberg bond orders for each atom

     #   Z sym  total        # sym  WBO       # sym  WBO       # sym  WBO
 ---------------------------------------------------------------------------
     1   6 C    3.914 --     2 N    0.984    15 H    0.968    17 H    0.957
                            16 H    0.955
     2   7 N    3.715 --     3 C    1.382     6 C    1.205     1 C    0.984
     3   6 C    3.890 --     2 N    1.382     4 N    1.297    18 H    0.952
     4   7 N    3.602 --     3 C    1.297     5 C    1.185    25 H    0.917
     5   6 C    3.936 --     6 C    1.422     4 N    1.185    13 N    1.141
     6   6 C    3.895 --     5 C    1.422     2 N    1.205     7 C    0.959
     7   6 C    3.941 --     8 O    1.626     6 C    0.959    20 H    0.888
                             9 N    0.393
     8   8 O    1.916 --     7 C    1.626     9 N    0.138
     9   7 N    3.421 --    10 C    1.747    11 C    1.010     7 C    0.393
                             8 O    0.138
    10   6 C    3.723 --     9 N    1.747    21 H    0.944    19 H    0.942
    11   6 C    3.919 --    12 O    1.728    13 N    1.096     9 N    1.010
    12   8 O    2.050 --    11 C    1.728    13 N    0.143
    13   7 N    3.519 --     5 C    1.141    11 C    1.096    14 C    0.975
                            12 O    0.143
    14   6 C    3.928 --    13 N    0.975    23 H    0.974    22 H    0.969
                            24 H    0.965
    15   1 H    0.988 --     1 C    0.968
    16   1 H    0.987 --     1 C    0.955
    17   1 H    0.980 --     1 C    0.957
    18   1 H    0.983 --     3 C    0.952
    19   1 H    0.976 --    10 C    0.942
    20   1 H    0.956 --     7 C    0.888
    21   1 H    0.978 --    10 C    0.944
    22   1 H    0.990 --    14 C    0.969
    23   1 H    0.990 --    14 C    0.974
    24   1 H    0.984 --    14 C    0.965
    25   1 H    0.946 --     4 N    0.917
 ---------------------------------------------------------------------------

molecular dipole:
                 x           y           z       tot (Debye)
 q only:        2.234      -1.738       0.185
   full:        2.257      -2.161       0.180       7.955

           -------------------------------------------------
          | TOTAL ENERGY              -42.154073381179 Eh   |
          | GRADIENT NORM               0.004651607236 Eh/α |
          | HOMO-LUMO GAP               2.135686014683 eV   |
           -------------------------------------------------

 * finished run on 2024/06/05 at 19:59:27.495
