   * xtb version 6.6.1 (8d0f1dd) compiled by 'conda@1efc2f54142f' on 2023-08-01
          program call               : xtb struc.xyz --opt loose --input .xc1 --gfn2

   ID    Z sym.   atoms
    1    6 C      1, 3, 5-7, 10, 11, 14
    2    7 N      2, 4, 9, 13
    3    8 O      8, 12
    4    1 H      15-25
constraining bond 5 21 to    5.7133300 Å, actual value:    4.6027056 Å

          :  Hamiltonian                  GFN2-xTB          :
 * total energy  :   -44.4502883 Eh     change       -0.6650680E-10 Eh
 * total energy  :   -48.1976889 Eh     change       -0.3747401E+01 Eh
 * total energy  :   -53.7787463 Eh     change       -0.5581057E+01 Eh
 * total energy  :   -61.3108485 Eh     change       -0.7532102E+01 Eh
 * total energy  :   -70.7749005 Eh     change       -0.9464052E+01 Eh
 * total energy  :   -81.9511964 Eh     change       -0.1117630E+02 Eh
 * total energy  :   -86.1917469 Eh     change       -0.4240551E+01 Eh
 * total energy  :   -87.4641351 Eh     change       -0.1272388E+01 Eh
 * total energy  :   -88.8889562 Eh     change       -0.1424821E+01 Eh
 * total energy  :   -89.5472992 Eh     change       -0.6583430E+00 Eh
 * total energy  :   -90.6499103 Eh     change       -0.9139359E-02 Eh
 * total energy  :   -90.6500298 Eh     change       -0.1195754E-03 Eh
 * total energy  :   -90.6503065 Eh     change       -0.2767073E-03 Eh
 * total energy  :   -90.6504044 Eh     change       -0.9789684E-04 Eh
 * total energy  :   -90.6505253 Eh     change       -0.1208555E-03 Eh
 * total energy  :   -90.6505697 Eh     change       -0.4445210E-04 Eh
 * total energy  :   -90.6506087 Eh     change       -0.3900029E-04 Eh
 * total energy  :   -90.6506338 Eh     change       -0.2509855E-04 Eh
 * total energy  :   -90.6506697 Eh     change       -0.3585368E-04 Eh
   *** GEOMETRY OPTIMIZATION CONVERGED AFTER 53 ITERATIONS ***

 final structure:
================
25
 xtb: 6.6.1 (8d0f1dd)
C            3.05455460102414        1.11243942296942       -0.29361336219759
N            2.09011318783575        0.13299454572592        0.12922836752596
C            2.29851375974984       -1.15767122077628        0.25541977299759
N            1.19191466179979       -1.79692444223740        0.65881868208136
C            0.07270351277447       -0.84613814770996        0.95985900114643
C            0.77109257198513        0.42307199942732        0.43855375418346
C            0.05678261441135        1.54748629877343        0.01055007459272
O            0.45940579677880        2.63708628998628       -0.33902674506478
N           -1.38573823809143        1.28034278909518       -0.02120097572913
C           -2.21699891210142        2.29045253153237       -0.07488938638836
C           -1.89565133444717       -0.05049403441021       -0.35415900346276
O           -2.95986118074508       -0.14636744597336       -0.89407487412871
N           -1.07371082920670       -1.07267057222432       -0.04286638460961
C           -1.52082837533170       -2.43271941920123       -0.25897574088143
H            3.61406380519958        1.48033887992054        0.56859019034618
H            3.74717166709960        0.67301630309312       -1.00809349775942
H            2.53413210251010        1.95766814518347       -0.74369374999464
H            3.23140778882818       -1.64867344997483        0.04967678450312
H           -1.82295943986809        3.28607063740118        0.05001572724824
H           -3.26078235074137        2.09979465423446       -0.26646477119744
H           -0.04644937137794       -0.85748885567003        1.29165257923056
H           -1.62575239102610       -2.95579870498381        0.69411921442875
H           -0.81075000266230       -2.95939995941237       -0.89918126810311
H           -2.49025950261707       -2.40026706059113       -0.75569636647024
H            1.14831737232288       -2.77791064257411        0.87662359561211

          :  Hamiltonian                  GFN2-xTB          :
         :: total energy             -90.650669694252 Eh    ::
         :: gradient norm              0.003665700810 Eh/a0 ::
         :: HOMO-LUMO gap              1.382091512675 eV    ::
         :: SCC energy               -42.666705341494 Eh    ::
         :: -> dispersion             -0.023110157143 Eh    ::
         :: repulsion energy           3.325108851995 Eh    ::

    * Orbital Energies and Occupations

         #    Occupation            Energy/Eh            Energy/eV
      -------------------------------------------------------------
         1        2.0000           -0.9061105             -24.6565
       ...           ...                  ...                  ...
        25        2.0000           -0.6763750             -18.4051
        26        2.0000           -0.6654135             -18.1068
        27        1.9999           -0.6569391             -17.8762
        28        1.9999           -0.6512450             -17.7213
        29        1.9997           -0.6355216             -17.2934
        30        1.9997           -0.6328590             -17.2210
        31        1.9996           -0.6298097             -17.1380
        32        1.9993           -0.6198674             -16.8675
        33        1.9988           -0.6109712             -16.6254
        34        1.9935           -0.5846484             -15.9091
        35        1.9818           -0.5682153             -15.4619
        36        1.9710           -0.5607558             -15.2589
        37        1.6802           -0.5202184             -14.1559 (HOMO)
        38        0.3506           -0.4694275             -12.7738 (LUMO)
        39        0.0253           -0.4249279             -11.5629
        40        0.0007           -0.3681760             -10.0186
        41        0.0001           -0.3342119              -9.0944
        42        0.0000           -0.2517023              -6.8492
        43        0.0000           -0.2298970              -6.2558
        44                         -0.1942223              -5.2851
        45                         -0.1613885              -4.3916
        46                         -0.1522802              -4.1438
        47                         -0.1128500              -3.0708
        48                         -0.0393534              -1.0709
       ...                                ...                  ...
        67                         17.2719296             469.9931
      -------------------------------------------------------------
                  HL-Gap            0.0507909 Eh            1.3821 eV

     #   Z          covCN         q      C6AA      α(0)
     1   6 C        3.694    -0.094    22.488     6.785
     2   7 N        2.782     0.079    19.865     6.620
     3   6 C        2.918     0.077    26.273     8.405
     4   7 N        2.764    -0.125    23.719     7.233
     5   6 C        3.749     0.029    20.142     6.401
     6   6 C        3.062    -0.050    29.172     8.857
     7   6 C        2.765     0.250    22.795     7.819
     8   8 O        0.857    -0.371    21.106     6.160
     9   7 N        2.739    -0.032    21.857     6.944
    10   6 C        2.802     0.018    27.583     8.604
    11   6 C        2.714     0.319    21.585     7.605
    12   8 O        0.859    -0.355    20.795     6.114
    13   7 N        2.731    -0.126    23.725     7.234
    14   6 C        3.696    -0.065    21.919     6.697
    15   1 H        0.924     0.112     1.681     2.027
    16   1 H        0.925     0.101     1.778     2.085
    17   1 H        0.925     0.134     1.505     1.918
    18   1 H        0.926     0.121     1.607     1.982
    19   1 H        0.926     0.146     1.418     1.862
    20   1 H        0.926     0.145     1.428     1.868
    21   1 H        0.952     0.196     1.119     1.653
    22   1 H        0.924     0.077     2.012     2.218
    23   1 H        0.924     0.079     1.986     2.204
    24   1 H        0.925     0.116     1.644     2.005
    25   1 H        0.860     0.217     1.024     1.585

Wiberg/Mayer (AO) data.
largest (>0.10) Wiberg bond orders for each atom

     #   Z sym  total        # sym  WBO       # sym  WBO       # sym  WBO
 ---------------------------------------------------------------------------
     1   6 C    3.915 --     2 N    0.985    16 H    0.970    17 H    0.955
                            15 H    0.952
     2   7 N    3.682 --     3 C    1.413     6 C    1.117     1 C    0.985
                             4 N    0.116
     3   6 C    3.855 --     2 N    1.413     4 N    1.312    18 H    0.947
     4   7 N    3.423 --     3 C    1.312     5 C    0.973    25 H    0.928
                             2 N    0.116
     5   6 C    3.898 --     6 C    0.993     4 N    0.973    21 H    0.930
                            13 N    0.890
     6   6 C    3.671 --     7 C    1.260     2 N    1.117     5 C    0.993
                             8 O    0.114
     7   6 C    3.918 --     8 O    1.643     6 C    1.260     9 N    0.906
     8   8 O    1.953 --     7 C    1.643     6 C    0.114
     9   7 N    3.569 --    10 C    1.525    11 C    0.917     7 C    0.906
    10   6 C    3.523 --     9 N    1.525    19 H    0.953    20 H    0.952
    11   6 C    3.942 --    12 O    1.710    13 N    1.231     9 N    0.917
    12   8 O    2.063 --    11 C    1.710    13 N    0.191
    13   7 N    3.398 --    11 C    1.231    14 C    0.984     5 C    0.890
                            12 O    0.191
    14   6 C    3.930 --    13 N    0.984    23 H    0.970    22 H    0.970
                            24 H    0.963
    15   1 H    0.983 --     1 C    0.952
    16   1 H    0.988 --     1 C    0.970
    17   1 H    0.981 --     1 C    0.955
    18   1 H    0.984 --     3 C    0.947
    19   1 H    0.977 --    10 C    0.953
    20   1 H    0.977 --    10 C    0.952
    21   1 H    0.955 --     5 C    0.930
    22   1 H    0.988 --    14 C    0.970
    23   1 H    0.988 --    14 C    0.970
    24   1 H    0.983 --    14 C    0.963
    25   1 H    0.952 --     4 N    0.928
 ---------------------------------------------------------------------------

molecular dipole:
                 x           y           z       tot (Debye)
 q only:        1.759      -1.314       0.963
   full:        1.861      -1.668       1.097       6.938

           -------------------------------------------------
          | TOTAL ENERGY              -90.650669694252 Eh   |
          | GRADIENT NORM               0.003665700810 Eh/α |
          | HOMO-LUMO GAP               1.382091512675 eV   |
           -------------------------------------------------

 * finished run on 2024/06/05 at 19:58:08.822
