   * xtb version 6.6.1 (8d0f1dd) compiled by 'conda@1efc2f54142f' on 2023-08-01
          program call               : xtb xtbopt.xyz --opt crude --input .xc2 --gfn2

   ID    Z sym.   atoms
    1    6 C      1, 3, 5-7, 10, 11, 14
    2    7 N      2, 4, 9, 13
    3    8 O      8, 12
    4    1 H      15-25
########################################################################
[WARNING] Please study the warnings concerning your input carefully
-1- readin_getIntValue: could not parse ''
########################################################################

          :  Hamiltonian                  GFN2-xTB          :
 * total energy  :   -39.3414208 Eh     change       -0.1492140E-12 Eh
 * total energy  :   -42.1360045 Eh     change       -0.2794584E+01 Eh
 * total energy  :   -42.1535059 Eh     change       -0.1750142E-01 Eh
 * total energy  :   -42.1601558 Eh     change       -0.6649865E-02 Eh
 * total energy  :   -42.1612933 Eh     change       -0.1137458E-02 Eh
 * total energy  :   -42.1623649 Eh     change       -0.1071601E-02 Eh
 * total energy  :   -42.1637951 Eh     change       -0.1430233E-02 Eh
 * total energy  :   -42.1651746 Eh     change       -0.1379475E-02 Eh
 * total energy  :   -42.1660016 Eh     change       -0.8270420E-03 Eh
 * total energy  :   -42.1662541 Eh     change       -0.2525338E-03 Eh
   *** GEOMETRY OPTIMIZATION CONVERGED AFTER 10 ITERATIONS ***

 final structure:
================
25
 xtb: 6.6.1 (8d0f1dd)
C            3.08840174482676        1.14136825613249       -0.26227931032031
N            2.11648605044391        0.14617855239810        0.10154044502813
C            2.32482431779842       -1.14729524241453        0.21750137061405
N            1.19978140642171       -1.80024695952472        0.54624115275005
C            0.11817935571208       -0.86559633082112        0.74889031907017
C            0.78258275800139        0.41522937658154        0.35501347496961
C            0.06578039908820        1.54387022212912       -0.04452848532569
O            0.45867414114546        2.64499215366638       -0.37242691239846
N           -1.37777958691650        1.27092609324252       -0.06388996304862
C           -2.20697909730434        2.28515360671984       -0.10155940336866
C           -1.90105750569215       -0.05918146872689       -0.34543942421271
O           -3.00323492402232       -0.16680045880635       -0.80271782073105
N           -1.05220357013076       -1.08558844780526       -0.09433625705320
C           -1.54435234967710       -2.44196368326563       -0.25339591339374
H            3.60163851666707        1.50786248662833        0.62896300871732
H            3.81985401764124        0.71795376292944       -0.94731762255828
H            2.57822784099128        1.98431292400508       -0.72837428024366
H            3.26906591781873       -1.63281065131252        0.05142742138766
H           -1.80048381110878        3.27880185625889       -0.00196902050474
H           -3.25757676051540        2.09921739995281       -0.25449674439055
H           -0.22906159923654       -0.90143622001467        1.80537666656907
H           -1.62361056449800       -2.93690540066156        0.71544000808716
H           -0.87696954923797       -3.00270003569659       -0.90740909775836
H           -2.53014592763249       -2.39403092869391       -0.71114400117123
H            1.14039029351942       -2.78307232129716        0.75206200719521

          :  Hamiltonian                  GFN2-xTB          :
         :: total energy             -42.166254141621 Eh    ::
         :: gradient norm              0.005671445994 Eh/a0 ::
         :: HOMO-LUMO gap              1.347248978649 eV    ::
         :: SCC energy               -42.677057610677 Eh    ::
         :: -> dispersion             -0.023117335315 Eh    ::
         :: repulsion energy           0.510628432622 Eh    ::

    * Orbital Energies and Occupations

         #    Occupation            Energy/Eh            Energy/eV
      -------------------------------------------------------------
         1        2.0000           -0.8975042             -24.4223
       ...           ...                  ...                  ...
        25        2.0000           -0.6756015             -18.3841
        26        2.0000           -0.6629475             -18.0397
        27        1.9999           -0.6570729             -17.8799
        28        1.9999           -0.6478355             -17.6285
        29        1.9997           -0.6345576             -17.2672
        30        1.9997           -0.6321261             -17.2010
        31        1.9996           -0.6276484             -17.0792
        32        1.9994           -0.6198439             -16.8668
        33        1.9988           -0.6094910             -16.5851
        34        1.9940           -0.5842095             -15.8971
        35        1.9817           -0.5664759             -15.4146
        36        1.9739           -0.5607809             -15.2596
        37        1.6665           -0.5177435             -14.0885 (HOMO)
        38        0.3596           -0.4682330             -12.7413 (LUMO)
        39        0.0265           -0.4240302             -11.5385
        40        0.0007           -0.3659628              -9.9584
        41        0.0001           -0.3281613              -8.9297
        42                         -0.2095592              -5.7024
        43                         -0.1970413              -5.3618
        44                         -0.1664596              -4.5296
        45                         -0.1506804              -4.1002
        46                         -0.1148047              -3.1240
        47                         -0.0996225              -2.7109
        48                         -0.0406736              -1.1068
       ...                                ...                  ...
        67                          0.5463395              14.8667
      -------------------------------------------------------------
                  HL-Gap            0.0495105 Eh            1.3472 eV

     #   Z          covCN         q      C6AA      α(0)
     1   6 C        3.693    -0.094    22.479     6.784
     2   7 N        2.789     0.081    19.827     6.613
     3   6 C        2.958     0.076    26.297     8.411
     4   7 N        2.762    -0.106    23.310     7.171
     5   6 C        3.809     0.098    18.961     6.198
     6   6 C        3.069    -0.045    29.054     8.838
     7   6 C        2.766     0.250    22.807     7.821
     8   8 O        0.857    -0.373    21.147     6.165
     9   7 N        2.740    -0.030    21.822     6.938
    10   6 C        2.803     0.016    27.641     8.613
    11   6 C        2.721     0.317    21.618     7.611
    12   8 O        0.859    -0.353    20.763     6.109
    13   7 N        2.735    -0.101    23.229     7.158
    14   6 C        3.699    -0.068    21.971     6.704
    15   1 H        0.924     0.112     1.683     2.029
    16   1 H        0.925     0.101     1.775     2.083
    17   1 H        0.925     0.134     1.504     1.918
    18   1 H        0.926     0.122     1.599     1.977
    19   1 H        0.926     0.147     1.410     1.857
    20   1 H        0.926     0.145     1.428     1.869
    21   1 H        0.921     0.078     2.003     2.214
    22   1 H        0.924     0.075     2.031     2.229
    23   1 H        0.925     0.081     1.969     2.194
    24   1 H        0.925     0.118     1.625     1.994
    25   1 H        0.860     0.219     1.015     1.578

Wiberg/Mayer (AO) data.
largest (>0.10) Wiberg bond orders for each atom

     #   Z sym  total        # sym  WBO       # sym  WBO       # sym  WBO
 ---------------------------------------------------------------------------
     1   6 C    3.915 --     2 N    0.986    16 H    0.970    17 H    0.955
                            15 H    0.952
     2   7 N    3.682 --     3 C    1.410     6 C    1.119     1 C    0.986
                             4 N    0.115
     3   6 C    3.851 --     2 N    1.410     4 N    1.308    18 H    0.949
     4   7 N    3.430 --     3 C    1.308     5 C    0.995    25 H    0.926
                             2 N    0.115
     5   6 C    3.956 --     6 C    1.000     4 N    0.995    13 N    0.952
                            21 H    0.921
     6   6 C    3.677 --     7 C    1.266     2 N    1.119     5 C    1.000
                             8 O    0.112
     7   6 C    3.918 --     8 O    1.638     6 C    1.266     9 N    0.905
     8   8 O    1.943 --     7 C    1.638     6 C    0.112
     9   7 N    3.574 --    10 C    1.517    11 C    0.932     7 C    0.905
    10   6 C    3.517 --     9 N    1.517    20 H    0.953    19 H    0.952
    11   6 C    3.940 --    12 O    1.712    13 N    1.213     9 N    0.932
    12   8 O    2.059 --    11 C    1.712    13 N    0.187
    13   7 N    3.419 --    11 C    1.213    14 C    0.978     5 C    0.952
                            12 O    0.187
    14   6 C    3.929 --    13 N    0.978    23 H    0.971    22 H    0.970
                            24 H    0.966
    15   1 H    0.983 --     1 C    0.952
    16   1 H    0.988 --     1 C    0.970
    17   1 H    0.981 --     1 C    0.955
    18   1 H    0.984 --     3 C    0.949
    19   1 H    0.977 --    10 C    0.952
    20   1 H    0.977 --    10 C    0.953
    21   1 H    0.964 --     5 C    0.921
    22   1 H    0.989 --    14 C    0.970
    23   1 H    0.988 --    14 C    0.971
    24   1 H    0.984 --    14 C    0.966
    25   1 H    0.952 --     4 N    0.926
 ---------------------------------------------------------------------------

molecular dipole:
                 x           y           z       tot (Debye)
 q only:        1.824      -1.348       0.802
   full:        1.923      -1.721       1.043       7.074

           -------------------------------------------------
          | TOTAL ENERGY              -42.166254141621 Eh   |
          | GRADIENT NORM               0.005671445994 Eh/α |
          | HOMO-LUMO GAP               1.347248978649 eV   |
           -------------------------------------------------

 * finished run on 2024/06/05 at 19:58:09.242
