   * xtb version 6.6.1 (8d0f1dd) compiled by 'conda@1efc2f54142f' on 2023-08-01
          program call               : xtb xtbopt.xyz --opt crude --input .xc2 --gfn2

   ID    Z sym.   atoms
    1    6 C      1, 3, 5-7, 10, 11, 14
    2    7 N      2, 4, 9, 13
    3    8 O      8, 12
    4    1 H      15-25
########################################################################
[WARNING] Please study the warnings concerning your input carefully
-1- readin_getIntValue: could not parse ''
########################################################################

          :  Hamiltonian                  GFN2-xTB          :
 * total energy  :   -41.1745670 Eh     change       -0.1278977E-12 Eh
 * total energy  :   -42.1539594 Eh     change       -0.9793924E+00 Eh
 * total energy  :   -42.1775337 Eh     change       -0.2357432E-01 Eh
 * total energy  :   -42.1830050 Eh     change       -0.5471269E-02 Eh
 * total energy  :   -42.1834933 Eh     change       -0.4883828E-03 Eh
 * total energy  :   -42.1836581 Eh     change       -0.1647745E-03 Eh
 * total energy  :   -42.1837375 Eh     change       -0.7940779E-04 Eh
 * total energy  :   -42.1837859 Eh     change       -0.4842988E-04 Eh
   *** GEOMETRY OPTIMIZATION CONVERGED AFTER 8 ITERATIONS ***

 final structure:
================
25
 xtb: 6.6.1 (8d0f1dd)
C            3.06981670798202        0.10228980160865        0.85244580867862
N            2.31928293151204        0.50119838262377       -0.34395870022396
C            2.74020918429020       -0.92426033444230       -0.16687341815609
N            1.55524602776776       -1.67190354755595        0.00135862572440
C            0.48123469187616       -0.81395277031206       -0.03171177143514
C            0.89487448288772        0.47746665957226       -0.24713350235316
C           -0.01285988929520        1.58566527897482       -0.38565318767261
O            0.30907141175701        2.72658810825947       -0.61554921895030
N           -1.33680898400028        1.16985255557017       -0.21473137260352
C           -2.37616924330293        2.18826016063781       -0.30197881029279
C           -1.79082104660586       -0.10706262797522        0.02883712442493
O           -2.95084060100701       -0.37328873659498        0.16471298091487
N           -0.80987531197915       -1.13272736761953        0.11073687100419
C           -1.24957672397673       -2.49511414897211        0.33835271000288
H            4.08779913673694        0.45859682781571        0.92459686935951
H            2.73618050821563        1.16417498618704       -1.00837417591140
H            2.50582824574720        0.13484205724845        1.77490347256589
H            3.51615493531750       -1.35380024232595       -0.79004891932266
H           -1.88934618490293        3.15492400178501       -0.40325477270789
H           -3.01299093943666        1.99613259927513       -1.16481330514112
H           -2.99121307056238        2.16144658151803        0.59622596052587
H           -0.73258973356250       -2.92076399733616        1.19736869126540
H           -1.07678956325888       -3.10926617300472       -0.54635338248971
H           -2.32026684185637       -2.46209136480989        0.53768723999883
H            1.49488138375636       -2.63896814852826       -0.27562019930453

          :  Hamiltonian                  GFN2-xTB          :
         :: total energy             -42.183785948100 Eh    ::
         :: gradient norm              0.008128991904 Eh/a0 ::
         :: HOMO-LUMO gap              3.877879606394 eV    ::
         :: SCC energy               -42.696544528539 Eh    ::
         :: -> dispersion             -0.022610656223 Eh    ::
         :: repulsion energy           0.512598537354 Eh    ::

    * Orbital Energies and Occupations

         #    Occupation            Energy/Eh            Energy/eV
      -------------------------------------------------------------
         1        2.0000           -0.9269558             -25.2238
       ...           ...                  ...                  ...
        25        2.0000           -0.6709174             -18.2566
        26        2.0000           -0.6698628             -18.2279
        27        2.0000           -0.6553735             -17.8336
        28        2.0000           -0.6455736             -17.5670
        29        2.0000           -0.6398989             -17.4125
        30        1.9998           -0.6184750             -16.8296
        31        1.9998           -0.6175593             -16.8046
        32        1.9990           -0.5889201             -16.0253
        33        1.9988           -0.5860503             -15.9472
        34        1.9965           -0.5688494             -15.4792
        35        1.9901           -0.5521939             -15.0260
        36        1.9888           -0.5503083             -14.9747
        37        1.9866           -0.5473818             -14.8950 (HOMO)
        38        0.0359           -0.4048723             -11.0171 (LUMO)
        39        0.0044           -0.3712287             -10.1016
        40        0.0003           -0.3282269              -8.9315
        41        0.0000           -0.2836118              -7.7175
        42        0.0000           -0.2646099              -7.2004
        43        0.0000           -0.2084677              -5.6727
        44                         -0.1656156              -4.5066
        45                         -0.1383756              -3.7654
        46                         -0.1172871              -3.1915
        47                         -0.0976367              -2.6568
        48                         -0.0713228              -1.9408
       ...                                ...                  ...
        67                          0.5678467              15.4519
      -------------------------------------------------------------
                  HL-Gap            0.1425095 Eh            3.8779 eV

     #   Z          covCN         q      C6AA      α(0)
     1   6 C        3.743    -0.041    21.384     6.597
     2   7 N        3.616     0.053    20.307     6.693
     3   6 C        3.838     0.093    19.013     6.203
     4   7 N        2.728    -0.144    24.116     7.294
     5   6 C        2.946     0.129    25.167     8.228
     6   6 C        2.984    -0.069    29.714     8.942
     7   6 C        2.764     0.268    22.474     7.764
     8   8 O        0.858    -0.388    21.444     6.209
     9   7 N        2.747    -0.090    22.998     7.123
    10   6 C        3.709    -0.060    21.800     6.673
    11   6 C        2.725     0.316    21.622     7.612
    12   8 O        0.859    -0.361    20.920     6.132
    13   7 N        2.741    -0.059    22.376     7.025
    14   6 C        3.697    -0.072    22.060     6.718
    15   1 H        0.926     0.128     1.548     1.946
    16   1 H        0.859     0.238     0.930     1.511
    17   1 H        0.925     0.132     1.521     1.929
    18   1 H        0.925     0.117     1.642     2.004
    19   1 H        0.925     0.111     1.689     2.032
    20   1 H        0.925     0.093     1.847     2.125
    21   1 H        0.925     0.096     1.822     2.111
    22   1 H        0.925     0.083     1.944     2.180
    23   1 H        0.924     0.080     1.975     2.198
    24   1 H        0.925     0.128     1.553     1.949
    25   1 H        0.860     0.218     1.021     1.583

Wiberg/Mayer (AO) data.
largest (>0.10) Wiberg bond orders for each atom

     #   Z sym  total        # sym  WBO       # sym  WBO       # sym  WBO
 ---------------------------------------------------------------------------
     1   6 C    3.872 --    15 H    0.963    17 H    0.961     3 C    0.956
                             2 N    0.887
     2   7 N    3.708 --     6 C    0.976    16 H    0.912     1 C    0.887
                             3 C    0.858
     3   6 C    3.893 --     4 N    1.071     1 C    0.956    18 H    0.954
                             2 N    0.858
     4   7 N    3.385 --     5 C    1.147     3 C    1.071    25 H    0.921
     5   6 C    3.941 --     6 C    1.400    13 N    1.243     4 N    1.147
     6   6 C    3.827 --     5 C    1.400     7 C    1.102     2 N    0.976
     7   6 C    3.956 --     8 O    1.679     6 C    1.102     9 N    1.083
     8   8 O    2.028 --     7 C    1.679     9 N    0.142
     9   7 N    3.555 --    11 C    1.141     7 C    1.083    10 C    0.967
                            12 O    0.145     8 O    0.142
    10   6 C    3.918 --    19 H    0.969    21 H    0.968     9 N    0.967
                            20 H    0.966
    11   6 C    3.957 --    12 O    1.711     9 N    1.141    13 N    1.014
    12   8 O    2.072 --    11 C    1.711     9 N    0.145    13 N    0.118
    13   7 N    3.564 --     5 C    1.243    11 C    1.014    14 C    0.976
                            12 O    0.118
    14   6 C    3.926 --    13 N    0.976    22 H    0.972    23 H    0.969
                            24 H    0.963
    15   1 H    0.983 --     1 C    0.963
    16   1 H    0.942 --     2 N    0.912
    17   1 H    0.983 --     1 C    0.961
    18   1 H    0.986 --     3 C    0.954
    19   1 H    0.987 --    10 C    0.969
    20   1 H    0.987 --    10 C    0.966
    21   1 H    0.987 --    10 C    0.968
    22   1 H    0.991 --    14 C    0.972
    23   1 H    0.991 --    14 C    0.969
    24   1 H    0.983 --    14 C    0.963
    25   1 H    0.951 --     4 N    0.921
 ---------------------------------------------------------------------------

molecular dipole:
                 x           y           z       tot (Debye)
 q only:        3.451      -1.749       0.045
   full:        3.872      -1.918      -0.261      11.003

           -------------------------------------------------
          | TOTAL ENERGY              -42.183785948100 Eh   |
          | GRADIENT NORM               0.008128991904 Eh/α |
          | HOMO-LUMO GAP               3.877879606394 eV   |
           -------------------------------------------------

 * finished run on 2024/06/05 at 20:00:23.175
