   * xtb version 6.6.1 (8d0f1dd) compiled by 'conda@1efc2f54142f' on 2023-08-01
          program call               : xtb xtbopt.xyz --opt crude --input .xc2 --gfn2

   ID    Z sym.   atoms
    1    6 C      1, 3, 5-7, 10, 11, 14
    2    7 N      2, 4, 9, 13
    3    8 O      8, 12
    4    1 H      15-25
########################################################################
[WARNING] Please study the warnings concerning your input carefully
-1- readin_getIntValue: could not parse ''
########################################################################

          :  Hamiltonian                  GFN2-xTB          :
 * total energy  :   -42.1757738 Eh     change       -0.8881784E-12 Eh
   *** GEOMETRY OPTIMIZATION CONVERGED AFTER 1 ITERATIONS ***

 final structure:
================
25
 xtb: 6.6.1 (8d0f1dd)
C            3.23646812915028        1.20517780410999        0.07453969170782
N            2.32970817535434        0.08938780157787        0.05622701417459
C            2.66036445720165       -1.20916086587947        0.07073919242174
N            1.53686444879708       -1.96739644772710        0.04355053519334
C            0.46179465710491       -1.12186466937134        0.01200064900447
C            0.95683273024954        0.17837753296760        0.01861751215120
C            0.10766667001577        1.33440487653670       -0.03463858234933
O            0.44094476496422        2.50108167469823       -0.06169908682502
N           -1.25182019209837        0.94320746598107       -0.05231901494913
C           -2.25076392001556        1.99799557783208       -0.08259411606162
C           -1.69471380564709       -0.33169083539323       -0.03026835056728
O           -3.01056281524556       -0.51183134926776        0.00054861991835
N           -0.87487625708062       -1.42630999186326       -0.03197886478561
C           -1.35343012959946       -2.70094833925237       -0.02628784322639
H            3.79459792862387        1.22571984443826        1.01143109645251
H            3.94155690149785        1.13267010091017       -0.75351698538241
H            2.65776877431025        2.12346770738437       -0.01840714953897
H            3.65764944335057       -1.59611748878925        0.09716573215280
H           -1.71766338717225        2.94654382066082       -0.08797131777924
H           -2.86509119314008        1.90750149440562       -0.97668963043794
H           -2.89165635839658        1.93320002605340        0.79543981589789
H           -0.67059715707751       -3.49954720459599        0.13050952724452
H           -2.33481566120378       -2.92431892544425       -0.38463110032636
H           -3.21988647899008       -1.43579542584995        0.22649457020050
H            1.51409178915206       -2.97551564252893        0.03490970361973

          :  Hamiltonian                  GFN2-xTB          :
         :: total energy             -42.175773801577 Eh    ::
         :: gradient norm              0.005317428881 Eh/a0 ::
         :: HOMO-LUMO gap              1.408090622673 eV    ::
         :: SCC energy               -42.693446774818 Eh    ::
         :: -> dispersion             -0.023012253484 Eh    ::
         :: repulsion energy           0.517568328872 Eh    ::

    * Orbital Energies and Occupations

         #    Occupation            Energy/Eh            Energy/eV
      -------------------------------------------------------------
         1        2.0000           -0.9000726             -24.4922
       ...           ...                  ...                  ...
        25        2.0000           -0.6680682             -18.1791
        26        2.0000           -0.6626429             -18.0314
        27        2.0000           -0.6584414             -17.9171
        28        2.0000           -0.6430032             -17.4970
        29        2.0000           -0.6345241             -17.2663
        30        2.0000           -0.6212296             -16.9045
        31        2.0000           -0.6183209             -16.8254
        32        1.9999           -0.6021958             -16.3866
        33        1.9999           -0.5997570             -16.3202
        34        1.9995           -0.5795354             -15.7700
        35        1.9989           -0.5675099             -15.4427
        36        1.9969           -0.5508743             -14.9901
        37        1.5896           -0.4700594             -12.7910 (HOMO)
        38        0.2571           -0.4183131             -11.3829 (LUMO)
        39        0.1430           -0.4080257             -11.1029
        40        0.0154           -0.3716877             -10.1141
        41        0.0000           -0.2799508              -7.6178
        42        0.0000           -0.1943176              -5.2877
        43        0.0000           -0.1855758              -5.0498
        44                         -0.1411015              -3.8396
        45                         -0.1253480              -3.4109
        46                         -0.0924932              -2.5169
        47                         -0.0522498              -1.4218
        48                         -0.0311362              -0.8473
       ...                                ...                  ...
        67                          0.5390840              14.6692
      -------------------------------------------------------------
                  HL-Gap            0.0517464 Eh            1.4081 eV

     #   Z          covCN         q      C6AA      α(0)
     1   6 C        3.691    -0.092    22.452     6.781
     2   7 N        2.826     0.067    20.075     6.655
     3   6 C        3.036     0.039    27.097     8.538
     4   7 N        2.781    -0.061    22.410     7.031
     5   6 C        3.075     0.081    26.111     8.378
     6   6 C        3.097    -0.018    28.340     8.724
     7   6 C        2.766     0.248    22.842     7.827
     8   8 O        0.857    -0.390    21.477     6.213
     9   7 N        2.746    -0.047    22.148     6.990
    10   6 C        3.707    -0.071    22.005     6.705
    11   6 C        2.774     0.226    23.257     7.898
    12   8 O        1.660    -0.331    19.552     5.969
    13   7 N        2.736     0.021    20.884     6.787
    14   6 C        2.797    -0.147    31.764     9.233
    15   1 H        0.924     0.101     1.773     2.083
    16   1 H        0.925     0.100     1.782     2.088
    17   1 H        0.925     0.133     1.510     1.922
    18   1 H        0.927     0.117     1.637     2.001
    19   1 H        0.925     0.124     1.584     1.968
    20   1 H        0.925     0.098     1.807     2.102
    21   1 H        0.925     0.097     1.815     2.107
    22   1 H        0.927     0.059     2.207     2.323
    23   1 H        0.927     0.066     2.134     2.284
    24   1 H        0.804     0.356     0.575     1.192
    25   1 H        0.860     0.224     0.992     1.560

Wiberg/Mayer (AO) data.
largest (>0.10) Wiberg bond orders for each atom

     #   Z sym  total        # sym  WBO       # sym  WBO       # sym  WBO
 ---------------------------------------------------------------------------
     1   6 C    3.920 --     2 N    0.988    16 H    0.963    17 H    0.962
                            15 H    0.960
     2   7 N    3.602 --     3 C    1.330     6 C    1.154     1 C    0.988
     3   6 C    3.733 --     2 N    1.330     4 N    1.258    18 H    0.956
     4   7 N    3.526 --     3 C    1.258     5 C    1.178    25 H    0.920
     5   6 C    3.857 --     6 C    1.336     4 N    1.178    13 N    1.111
     6   6 C    3.880 --     5 C    1.336     2 N    1.154     7 C    1.106
     7   6 C    3.895 --     8 O    1.638     6 C    1.106     9 N    1.037
     8   8 O    1.942 --     7 C    1.638     9 N    0.135
     9   7 N    3.544 --    11 C    1.244     7 C    1.037    10 C    0.970
                             8 O    0.135
    10   6 C    3.916 --     9 N    0.970    20 H    0.966    21 H    0.965
                            19 H    0.965
    11   6 C    3.775 --     9 N    1.244    13 N    1.156    12 O    1.144
                            14 C    0.112
    12   8 O    2.161 --    11 C    1.144    24 H    0.827
    13   7 N    3.651 --    14 C    1.186    11 C    1.156     5 C    1.111
    14   6 C    3.399 --    13 N    1.186    22 H    0.974    23 H    0.962
                            11 C    0.112
    15   1 H    0.983 --     1 C    0.960
    16   1 H    0.985 --     1 C    0.963
    17   1 H    0.982 --     1 C    0.962
    18   1 H    0.985 --     3 C    0.956
    19   1 H    0.984 --    10 C    0.965
    20   1 H    0.986 --    10 C    0.966
    21   1 H    0.986 --    10 C    0.965
    22   1 H    0.996 --    14 C    0.974
    23   1 H    0.994 --    14 C    0.962
    24   1 H    0.871 --    12 O    0.827
    25   1 H    0.949 --     4 N    0.920
 ---------------------------------------------------------------------------

molecular dipole:
                 x           y           z       tot (Debye)
 q only:        1.033      -1.890       0.179
   full:        1.106      -2.650       0.169       7.311

           -------------------------------------------------
          | TOTAL ENERGY              -42.175773801577 Eh   |
          | GRADIENT NORM               0.005317428881 Eh/α |
          | HOMO-LUMO GAP               1.408090622673 eV   |
           -------------------------------------------------

 * finished run on 2024/06/05 at 19:59:22.060
