   * xtb version 6.6.1 (8d0f1dd) compiled by 'conda@1efc2f54142f' on 2023-08-01
          program call               : xtb xtbopt.xyz --opt crude --input .xc2 --gfn2

   ID    Z sym.   atoms
    1    6 C      1, 3, 5-7, 10, 11, 14
    2    7 N      2, 4, 9, 13
    3    8 O      8, 12
    4    1 H      15-25
########################################################################
[WARNING] Please study the warnings concerning your input carefully
-1- readin_getIntValue: could not parse ''
########################################################################

          :  Hamiltonian                  GFN2-xTB          :
 * total energy  :   -42.2035655 Eh     change       -0.4192202E-12 Eh
 * total energy  :   -42.2162460 Eh     change       -0.1268047E-01 Eh
 * total energy  :   -42.2221494 Eh     change       -0.5903447E-02 Eh
 * total energy  :   -42.2225982 Eh     change       -0.4487266E-03 Eh
   *** GEOMETRY OPTIMIZATION CONVERGED AFTER 4 ITERATIONS ***

 final structure:
================
25
 xtb: 6.6.1 (8d0f1dd)
C            3.13028038223989        1.94590239752944        0.02046472194069
N            2.65030185982841        0.59133464730679        0.11499616049261
C            3.37603868339282       -0.51126189844841        0.25629948565406
N            2.57797016416502       -1.59511573131962        0.29063055188383
C            1.28249630017554       -1.17419557038979        0.16543629414301
C            1.33331527497682        0.21152486195953        0.05446608000887
C            0.11816208249777        0.96433363296910       -0.06923299139481
O            0.02028957551902        2.16591669632984       -0.15247702482634
N           -1.02668736470463        0.11829802469794       -0.08139854898918
C           -2.28307951906952        0.85209564924466       -0.18932193989192
C           -0.96494116167568       -1.25007591288408        0.02073282332139
O           -1.97209028431573       -2.07440013243515        0.01587682258100
N            0.17456675739561       -1.90232450925539        0.14596178345466
C           -3.37358774231608       -1.87883925547590       -0.12941950743616
H            3.75158482654219        2.19160985563623        0.88148719496204
H            3.72053883281722        2.07711375388016       -0.88723618976857
H            2.27185578282501        2.61615019084768       -0.01219882389248
H            4.44645077434156       -0.53330569695656        0.33354863881986
H           -2.02370762454381        1.89674032389795       -0.36338031418333
H           -2.87365903510794        0.49825578496165       -1.02800398957173
H           -2.84239613139287        0.79496918437758        0.74228098489227
H           -3.79569527350786       -2.85913595055527        0.09722396242043
H           -3.63284679976612       -1.61991498874424       -1.15717073582646
H           -3.78272390221459       -1.15265707108392        0.56887837411658
H            2.87799505599929       -2.55477974449231        0.39272780498574

          :  Hamiltonian                  GFN2-xTB          :
         :: total energy             -42.222598157336 Eh    ::
         :: gradient norm              0.006230685691 Eh/a0 ::
         :: HOMO-LUMO gap              3.249281088035 eV    ::
         :: SCC energy               -42.741063363644 Eh    ::
         :: -> dispersion             -0.022165099452 Eh    ::
         :: repulsion energy           0.518447142960 Eh    ::

    * Orbital Energies and Occupations

         #    Occupation            Energy/Eh            Energy/eV
      -------------------------------------------------------------
         1        2.0000           -0.8972806             -24.4162
       ...           ...                  ...                  ...
        25        2.0000           -0.6658064             -18.1175
        26        2.0000           -0.6538270             -17.7915
        27        2.0000           -0.6515476             -17.7295
        28        1.9999           -0.6453858             -17.5618
        29        1.9998           -0.6295136             -17.1299
        30        1.9997           -0.6220044             -16.9256
        31        1.9995           -0.6117599             -16.6468
        32        1.9994           -0.6082792             -16.5521
        33        1.9983           -0.5917357             -16.1019
        34        1.9926           -0.5684372             -15.4680
        35        1.9898           -0.5633539             -15.3296
        36        1.9765           -0.5500446             -14.9675
        37        1.9669           -0.5445706             -14.8185 (HOMO)
        38        0.0611           -0.4251617             -11.5692 (LUMO)
        39        0.0149           -0.4023887             -10.9496
        40        0.0017           -0.3681843             -10.0188
        41        0.0000           -0.2739565              -7.4547
        42                         -0.1912065              -5.2030
        43                         -0.1809514              -4.9239
        44                         -0.1526520              -4.1539
        45                         -0.1198799              -3.2621
        46                         -0.0754742              -2.0538
        47                         -0.0494735              -1.3462
        48                         -0.0260680              -0.7093
       ...                                ...                  ...
        67                          0.5383345              14.6488
      -------------------------------------------------------------
                  HL-Gap            0.1194089 Eh            3.2493 eV

     #   Z          covCN         q      C6AA      α(0)
     1   6 C        3.691    -0.092    22.454     6.781
     2   7 N        2.826     0.081    19.831     6.614
     3   6 C        3.068     0.059    26.605     8.458
     4   7 N        2.797    -0.050    22.203     6.998
     5   6 C        3.095     0.144    24.772     8.157
     6   6 C        3.133    -0.027    28.465     8.734
     7   6 C        2.774     0.272    22.399     7.751
     8   8 O        0.858    -0.378    21.240     6.179
     9   7 N        2.741    -0.092    23.029     7.127
    10   6 C        3.701    -0.065    21.915     6.694
    11   6 C        2.778     0.307    21.792     7.646
    12   8 O        1.717    -0.178    16.984     5.564
    13   7 N        1.844    -0.262    27.665     7.795
    14   6 C        3.627     0.005    20.923     6.589
    15   1 H        0.925     0.104     1.747     2.067
    16   1 H        0.924     0.106     1.734     2.060
    17   1 H        0.925     0.132     1.517     1.926
    18   1 H        0.926     0.125     1.577     1.964
    19   1 H        0.924     0.122     1.598     1.977
    20   1 H        0.925     0.083     1.951     2.184
    21   1 H        0.925     0.080     1.977     2.199
    22   1 H        0.924     0.115     1.658     2.014
    23   1 H        0.924     0.086     1.921     2.167
    24   1 H        0.925     0.085     1.930     2.172
    25   1 H        0.860     0.239     0.929     1.510

Wiberg/Mayer (AO) data.
largest (>0.10) Wiberg bond orders for each atom

     #   Z sym  total        # sym  WBO       # sym  WBO       # sym  WBO
 ---------------------------------------------------------------------------
     1   6 C    3.919 --     2 N    0.984    17 H    0.963    15 H    0.963
                            16 H    0.959
     2   7 N    3.694 --     3 C    1.396     6 C    1.162     1 C    0.984
     3   6 C    3.882 --     2 N    1.396     4 N    1.306    18 H    0.952
     4   7 N    3.607 --     3 C    1.306     5 C    1.176    25 H    0.916
     5   6 C    3.955 --     6 C    1.313    13 N    1.292     4 N    1.176
     6   6 C    3.917 --     5 C    1.313     2 N    1.162     7 C    1.110
     7   6 C    3.947 --     8 O    1.684     6 C    1.110     9 N    1.051
     8   8 O    2.044 --     7 C    1.684     9 N    0.144
     9   7 N    3.565 --    11 C    1.195     7 C    1.051    10 C    0.971
                             8 O    0.144
    10   6 C    3.924 --     9 N    0.971    20 H    0.970    21 H    0.968
                            19 H    0.959
    11   6 C    3.936 --    13 N    1.366    12 O    1.222     9 N    1.195
    12   8 O    2.390 --    11 C    1.222    14 C    0.930
    13   7 N    3.007 --    11 C    1.366     5 C    1.292
    14   6 C    3.883 --    24 H    0.969    22 H    0.968    23 H    0.968
                            12 O    0.930
    15   1 H    0.987 --     1 C    0.963
    16   1 H    0.987 --     1 C    0.959
    17   1 H    0.982 --     1 C    0.963
    18   1 H    0.984 --     3 C    0.952
    19   1 H    0.984 --    10 C    0.959
    20   1 H    0.991 --    10 C    0.970
    21   1 H    0.991 --    10 C    0.968
    22   1 H    0.985 --    14 C    0.968
    23   1 H    0.988 --    14 C    0.968
    24   1 H    0.990 --    14 C    0.969
    25   1 H    0.942 --     4 N    0.916
 ---------------------------------------------------------------------------

molecular dipole:
                 x           y           z       tot (Debye)
 q only:        1.797      -0.970       0.143
   full:        1.977      -0.962       0.157       5.602

           -------------------------------------------------
          | TOTAL ENERGY              -42.222598157336 Eh   |
          | GRADIENT NORM               0.006230685691 Eh/α |
          | HOMO-LUMO GAP               3.249281088035 eV   |
           -------------------------------------------------

 * finished run on 2024/06/05 at 19:58:05.406
