   * xtb version 6.6.1 (8d0f1dd) compiled by 'conda@1efc2f54142f' on 2023-08-01
          program call               : xtb xtbopt.xyz --opt crude --input .xc2 --gfn2

   ID    Z sym.   atoms
    1    6 C      1, 3, 5-7, 10, 11, 14
    2    7 N      2, 4, 9, 13
    3    8 O      8, 12
    4    1 H      15-25
########################################################################
[WARNING] Please study the warnings concerning your input carefully
-1- readin_getIntValue: could not parse ''
########################################################################

          :  Hamiltonian                  GFN2-xTB          :
 * total energy  :   -40.4372330 Eh     change       -0.9947598E-13 Eh
 * total energy  :   -42.1508888 Eh     change       -0.1713656E+01 Eh
 * total energy  :   -42.1684523 Eh     change       -0.1756350E-01 Eh
 * total energy  :   -42.1724448 Eh     change       -0.3992452E-02 Eh
 * total energy  :   -42.1732274 Eh     change       -0.7826425E-03 Eh
 * total energy  :   -42.1738260 Eh     change       -0.5986039E-03 Eh
 * total energy  :   -42.1744806 Eh     change       -0.6545505E-03 Eh
 * total energy  :   -42.1750470 Eh     change       -0.5664408E-03 Eh
 * total energy  :   -42.1753259 Eh     change       -0.2788749E-03 Eh
   *** GEOMETRY OPTIMIZATION CONVERGED AFTER 9 ITERATIONS ***

 final structure:
================
25
 xtb: 6.6.1 (8d0f1dd)
C            3.27188042678097        1.14691093260123       -0.00531763977201
N            2.41630305196144        0.15229212372293        0.00952702599638
C            2.57193024782885       -1.09052471286648        0.51594785456529
N            1.41287639816385       -1.80252737997183        0.38952990415659
C            0.47752527626933       -1.07283047685635       -0.23026570149127
C            1.07205377439533        0.24626254947846       -0.54622757622619
C            0.17475184246921        1.34536869720383        0.10758083966285
O            0.63650328007105        2.32372684637839        0.62155464429303
N           -1.15274585593699        1.06013330530854       -0.02624937826690
C           -2.11392292660069        2.12686553595698        0.25156579543544
C           -1.72345001493634       -0.17416869423969       -0.34819004568320
O           -2.89418280831739       -0.31112312921920       -0.56101207601791
N           -0.85002154737044       -1.27748162844574       -0.31126516687661
C           -1.42406049812129       -2.60956074586447       -0.23263876957093
H            4.23637331106234        1.01639867707886        0.44919043120072
H            1.09257385786014        0.51105777184043       -1.61205642726966
H            2.98957586018391        2.09038344428098       -0.42732943751953
H            3.46901425797947       -1.46779034323372        0.95676245257817
H           -1.57841200385539        3.07085539081805        0.29904345786626
H           -2.85529858343106        2.14607873143646       -0.54571344328243
H           -2.62013856122583        1.94308831751361        1.19837734020223
H           -1.38301900354169       -2.99137552511754        0.78898466456858
H           -0.89741338922044       -3.28322908394359       -0.90639888872289
H           -2.46732887916362       -2.53475547509054       -0.53670507242625
H            1.29906400079459       -2.74581658717076        0.73247683049951

          :  Hamiltonian                  GFN2-xTB          :
         :: total energy             -42.175325890131 Eh    ::
         :: gradient norm              0.008135409127 Eh/a0 ::
         :: HOMO-LUMO gap              1.594076627637 eV    ::
         :: SCC energy               -42.691818978850 Eh    ::
         :: -> dispersion             -0.023049868390 Eh    ::
         :: repulsion energy           0.516328854966 Eh    ::

    * Orbital Energies and Occupations

         #    Occupation            Energy/Eh            Energy/eV
      -------------------------------------------------------------
         1        2.0000           -0.9067060             -24.6727
       ...           ...                  ...                  ...
        25        2.0000           -0.6771932             -18.4274
        26        2.0000           -0.6728861             -18.3102
        27        2.0000           -0.6644412             -18.0804
        28        2.0000           -0.6605565             -17.9747
        29        1.9999           -0.6369109             -17.3312
        30        1.9999           -0.6329053             -17.2222
        31        1.9998           -0.6283227             -17.0975
        32        1.9993           -0.6076695             -16.5355
        33        1.9991           -0.6040417             -16.4368
        34        1.9974           -0.5870586             -15.9747
        35        1.9953           -0.5775962             -15.7172
        36        1.9921           -0.5694466             -15.4954
        37        1.7255           -0.5110166             -13.9055 (HOMO)
        38        0.2691           -0.4524354             -12.3114 (LUMO)
        39        0.0180           -0.4074344             -11.0869
        40        0.0045           -0.3852670             -10.4836
        41        0.0003           -0.3421188              -9.3095
        42                         -0.2122192              -5.7748
        43                         -0.1912563              -5.2043
        44                         -0.1580775              -4.3015
        45                         -0.1487593              -4.0479
        46                         -0.1066404              -2.9018
        47                         -0.0780854              -2.1248
        48                         -0.0602812              -1.6403
       ...                                ...                  ...
        67                          0.5340329              14.5318
      -------------------------------------------------------------
                  HL-Gap            0.0585812 Eh            1.5941 eV

     #   Z          covCN         q      C6AA      α(0)
     1   6 C        2.789    -0.071    29.759     8.936
     2   7 N        2.780     0.107    19.400     6.542
     3   6 C        2.951    -0.002    28.077     8.691
     4   7 N        2.743    -0.047    22.156     6.991
     5   6 C        2.974     0.090    26.001     8.364
     6   6 C        3.901    -0.009    20.676     6.464
     7   6 C        2.762     0.271    22.418     7.754
     8   8 O        0.857    -0.327    20.272     6.037
     9   7 N        2.736    -0.088    22.964     7.117
    10   6 C        3.708    -0.062    21.839     6.680
    11   6 C        2.723     0.314    21.665     7.620
    12   8 O        0.859    -0.341    20.528     6.075
    13   7 N        2.735    -0.059    22.382     7.026
    14   6 C        3.697    -0.073    22.063     6.718
    15   1 H        0.926     0.109     1.707     2.043
    16   1 H        0.923     0.121     1.602     1.979
    17   1 H        0.926     0.119     1.619     1.989
    18   1 H        0.927     0.115     1.655     2.012
    19   1 H        0.925     0.106     1.735     2.060
    20   1 H        0.925     0.107     1.720     2.051
    21   1 H        0.925     0.095     1.834     2.118
    22   1 H        0.924     0.084     1.943     2.180
    23   1 H        0.925     0.086     1.914     2.163
    24   1 H        0.925     0.127     1.557     1.951
    25   1 H        0.860     0.228     0.975     1.547

Wiberg/Mayer (AO) data.
largest (>0.10) Wiberg bond orders for each atom

     #   Z sym  total        # sym  WBO       # sym  WBO       # sym  WBO
 ---------------------------------------------------------------------------
     1   6 C    3.660 --     2 N    1.427    17 H    0.964    15 H    0.964
                             3 C    0.167
     2   7 N    3.715 --     1 C    1.427     3 C    1.236     6 C    0.977
     3   6 C    3.702 --     2 N    1.236     4 N    1.187    18 H    0.956
                             1 C    0.167     5 C    0.100
     4   7 N    3.559 --     5 C    1.282     3 C    1.187    25 H    0.918
     5   6 C    3.764 --     4 N    1.282    13 N    1.218     6 C    1.017
                             3 C    0.100
     6   6 C    3.964 --     5 C    1.017     2 N    0.977    16 H    0.913
                             7 C    0.867
     7   6 C    3.920 --     8 O    1.765     9 N    1.185     6 C    0.867
     8   8 O    2.108 --     7 C    1.765     9 N    0.158
     9   7 N    3.552 --     7 C    1.185    11 C    1.071    10 C    0.955
                             8 O    0.158    12 O    0.113
    10   6 C    3.913 --    19 H    0.973    21 H    0.969    20 H    0.967
                             9 N    0.955
    11   6 C    3.919 --    12 O    1.720     9 N    1.071    13 N    1.040
    12   8 O    2.041 --    11 C    1.720     9 N    0.113    13 N    0.113
    13   7 N    3.514 --     5 C    1.218    11 C    1.040    14 C    0.968
                            12 O    0.113
    14   6 C    3.921 --    23 H    0.974    13 N    0.968    22 H    0.968
                            24 H    0.964
    15   1 H    0.987 --     1 C    0.964
    16   1 H    0.965 --     6 C    0.913
    17   1 H    0.986 --     1 C    0.964
    18   1 H    0.986 --     3 C    0.956
    19   1 H    0.988 --    10 C    0.973
    20   1 H    0.986 --    10 C    0.967
    21   1 H    0.988 --    10 C    0.969
    22   1 H    0.988 --    14 C    0.968
    23   1 H    0.989 --    14 C    0.974
    24   1 H    0.983 --    14 C    0.964
    25   1 H    0.948 --     4 N    0.918
 ---------------------------------------------------------------------------

molecular dipole:
                 x           y           z       tot (Debye)
 q only:        2.030      -1.643      -0.037
   full:        2.293      -1.972      -0.042       7.686

           -------------------------------------------------
          | TOTAL ENERGY              -42.175325890131 Eh   |
          | GRADIENT NORM               0.008135409127 Eh/α |
          | HOMO-LUMO GAP               1.594076627637 eV   |
           -------------------------------------------------

 * finished run on 2024/06/05 at 19:58:32.678
