   * xtb version 6.6.1 (8d0f1dd) compiled by 'conda@1efc2f54142f' on 2023-08-01
          program call               : xtb struc.xyz --opt loose --input .xc1 --gfn2

   ID    Z sym.   atoms
    1    6 C      1, 3, 5-7, 10, 11, 14
    2    7 N      2, 4, 9, 13
    3    8 O      8, 12
    4    1 H      15-25
constraining bond 4 7 to    5.9200000 Å, actual value:    3.5994291 Å

          :  Hamiltonian                  GFN2-xTB          :
 * total energy  :   -23.0175015 Eh     change       -0.6650680E-10 Eh
 * total energy  :   -31.5650869 Eh     change       -0.8547585E+01 Eh
 * total energy  :   -36.9029630 Eh     change       -0.5337876E+01 Eh
 * total energy  :   -40.3960821 Eh     change       -0.3493119E+01 Eh
 * total energy  :   -41.6561100 Eh     change       -0.1260028E+01 Eh
 * total energy  :   -41.7646066 Eh     change       -0.1084965E+00 Eh
 * total energy  :   -41.7804138 Eh     change       -0.1580720E-01 Eh
 * total energy  :   -41.8433484 Eh     change       -0.6293460E-01 Eh
 * total energy  :   -41.8627231 Eh     change       -0.1937470E-01 Eh
 * total energy  :   -41.8760327 Eh     change       -0.1330964E-01 Eh
 * total energy  :   -42.1036567 Eh     change        0.4503275E-04 Eh
 * total energy  :   -42.1046769 Eh     change       -0.1020254E-02 Eh
 * total energy  :   -42.1053564 Eh     change       -0.6794859E-03 Eh
 * total energy  :   -42.1064063 Eh     change       -0.1049904E-02 Eh
 * total energy  :   -42.1069157 Eh     change       -0.5093188E-03 Eh
 * total energy  :   -42.1072219 Eh     change       -0.3062925E-03 Eh
 * total energy  :   -42.1073738 Eh     change       -0.1518274E-03 Eh
 * total energy  :   -42.1074664 Eh     change       -0.9262920E-04 Eh
 * total energy  :   -42.1075159 Eh     change       -0.4950513E-04 Eh
   *** GEOMETRY OPTIMIZATION CONVERGED AFTER 48 ITERATIONS ***

 final structure:
================
25
 xtb: 6.6.1 (8d0f1dd)
C            3.05789117908051        0.62869736480735        0.06652252735145
N            2.42307047330870       -0.69634314961246       -0.01415244551500
C            3.38047816885821       -1.77017466371824       -0.03348120574750
N            3.36385883269049       -3.01877345109343       -0.06156861292178
C           -0.06847567691224       -0.08934093239769       -0.02561224947645
C            1.11194366634511       -0.71265216605603       -0.03221725795306
C           -0.51828822262028        1.44218519142107       -0.04751655068283
O            0.23574125078185        2.37005246789200       -0.07251164851279
N           -1.86220409238183        1.38780821748674       -0.02109399545687
C           -2.72416059123180        2.54899527154844       -0.02178748163315
C           -2.36382123771505        0.08471348842636        0.00989882103733
O           -3.51378813602190       -0.23675277518039        0.03395925549709
N           -1.26802323280668       -0.76434403791304        0.00933145848919
C           -1.41649284304237       -2.19283891672502        0.03231235392503
H            3.61336608132760        0.71889531040513        1.00149336509750
H            3.73813309511088        0.76024174341169       -0.77653236498097
H            2.30121650050230        1.41354219938220        0.02928346166019
H            4.37464997735631       -1.32892307539243       -0.00683984807450
H           -2.10609612736272        3.44439349845985       -0.02678012680574
H           -3.36506567972476        2.53069552432732       -0.90443864856221
H           -3.35756505760087        2.53429147533701        0.86636656609782
H           -0.94945394932016       -2.61195459206061        0.92534337226301
H           -0.95779163958244       -2.63625536088395       -0.85355141213736
H           -2.48285554190727       -2.41699998438118        0.04105071681324
H            2.51416431697058       -3.57092010584567       -0.08630643181573

          :  Hamiltonian                  GFN2-xTB          :
         :: total energy             -42.107515909549 Eh    ::
         :: gradient norm              0.001656331266 Eh/a0 ::
         :: HOMO-LUMO gap              0.527928025204 eV    ::
         :: SCC energy               -42.638495257474 Eh    ::
         :: -> dispersion             -0.020387908791 Eh    ::
         :: repulsion energy           0.530787359836 Eh    ::

    * Orbital Energies and Occupations

         #    Occupation            Energy/Eh            Energy/eV
      -------------------------------------------------------------
         1        2.0000           -0.8986215             -24.4527
       ...           ...                  ...                  ...
        25        1.9995           -0.6568125             -17.8728
        26        1.9994           -0.6534196             -17.7805
        27        1.9992           -0.6496793             -17.6787
        28        1.9985           -0.6402876             -17.4231
        29        1.9985           -0.6399705             -17.4145
        30        1.9979           -0.6348356             -17.2748
        31        1.9964           -0.6262267             -17.0405
        32        1.9907           -0.6111631             -16.6306
        33        1.9868           -0.6055229             -16.4771
        34        1.9631           -0.5890420             -16.0286
        35        1.9437           -0.5822138             -15.8428
        36        1.8643           -0.5676171             -15.4456
        37        1.4174           -0.5402042             -14.6997 (HOMO)
        38        0.8335           -0.5208032             -14.1718 (LUMO)
        39        0.0109           -0.4436433             -12.0721
        40        0.0005           -0.3932207             -10.7001
        41        0.0000           -0.3472958              -9.4504
        42        0.0000           -0.3221721              -8.7667
        43                         -0.2175293              -5.9193
        44                         -0.1861391              -5.0651
        45                         -0.1764604              -4.8017
        46                         -0.0920940              -2.5060
        47                         -0.0901690              -2.4536
        48                         -0.0597606              -1.6262
       ...                                ...                  ...
        67                          0.6309262              17.1684
      -------------------------------------------------------------
                  HL-Gap            0.0194010 Eh            0.5279 eV

     #   Z          covCN         q      C6AA      α(0)
     1   6 C        3.717    -0.085    22.245     6.737
     2   7 N        2.725     0.047    20.426     6.712
     3   6 C        2.759     0.121    25.319     8.240
     4   7 N        1.771    -0.196    26.050     7.558
     5   6 C        2.931     0.019    27.578     8.612
     6   6 C        1.929     0.026    30.417     8.907
     7   6 C        2.813     0.281    22.242     7.727
     8   8 O        0.856    -0.304    19.846     5.973
     9   7 N        2.775    -0.055    22.299     7.014
    10   6 C        3.692    -0.060    21.843     6.688
    11   6 C        2.799     0.322    21.538     7.603
    12   8 O        0.857    -0.320    20.143     6.017
    13   7 N        2.781    -0.023    21.697     6.918
    14   6 C        3.692    -0.070    22.022     6.715
    15   1 H        0.924     0.108     1.715     2.048
    16   1 H        0.924     0.110     1.697     2.037
    17   1 H        0.924     0.117     1.641     2.003
    18   1 H        0.925     0.120     1.610     1.984
    19   1 H        0.925     0.110     1.694     2.035
    20   1 H        0.924     0.110     1.698     2.038
    21   1 H        0.924     0.110     1.698     2.038
    22   1 H        0.924     0.096     1.822     2.111
    23   1 H        0.924     0.096     1.825     2.113
    24   1 H        0.925     0.122     1.599     1.977
    25   1 H        0.860     0.197     1.121     1.658

Wiberg/Mayer (AO) data.
largest (>0.10) Wiberg bond orders for each atom

     #   Z sym  total        # sym  WBO       # sym  WBO       # sym  WBO
 ---------------------------------------------------------------------------
     1   6 C    3.849 --    17 H    0.960    15 H    0.955    16 H    0.953
                             2 N    0.932
     2   7 N    3.493 --     6 C    1.373     3 C    1.022     1 C    0.932
     3   6 C    3.917 --     4 N    1.920     2 N    1.022    18 H    0.923
     4   7 N    2.992 --     3 C    1.920    25 H    0.923
     5   6 C    3.760 --     6 C    1.593    13 N    1.144     7 C    0.812
     6   6 C    3.213 --     5 C    1.593     2 N    1.373
     7   6 C    3.860 --     8 O    1.745     9 N    1.210     5 C    0.812
     8   8 O    2.077 --     7 C    1.745     9 N    0.140
     9   7 N    3.537 --     7 C    1.210    11 C    1.049    10 C    0.969
                             8 O    0.140    12 O    0.105
    10   6 C    3.889 --    19 H    0.970     9 N    0.969    21 H    0.955
                            20 H    0.954
    11   6 C    3.941 --    12 O    1.721    13 N    1.084     9 N    1.049
    12   8 O    2.015 --    11 C    1.721    13 N    0.107     9 N    0.105
    13   7 N    3.417 --     5 C    1.144    11 C    1.084    14 C    0.991
                            12 O    0.107
    14   6 C    3.910 --    13 N    0.991    24 H    0.965    23 H    0.956
                            22 H    0.956
    15   1 H    0.971 --     1 C    0.955
    16   1 H    0.971 --     1 C    0.953
    17   1 H    0.983 --     1 C    0.960
    18   1 H    0.969 --     3 C    0.923
    19   1 H    0.983 --    10 C    0.970
    20   1 H    0.973 --    10 C    0.954
    21   1 H    0.973 --    10 C    0.955
    22   1 H    0.972 --    14 C    0.956
    23   1 H    0.972 --    14 C    0.956
    24   1 H    0.983 --    14 C    0.965
    25   1 H    0.950 --     4 N    0.923
 ---------------------------------------------------------------------------

molecular dipole:
                 x           y           z       tot (Debye)
 q only:        1.524      -0.749       0.028
   full:        1.314      -0.626       0.029       3.700

           -------------------------------------------------
          | TOTAL ENERGY              -42.107515909549 Eh   |
          | GRADIENT NORM               0.001656331266 Eh/α |
          | HOMO-LUMO GAP               0.527928025204 eV   |
           -------------------------------------------------

 * finished run on 2024/06/05 at 19:59:10.157
