   * xtb version 6.6.1 (8d0f1dd) compiled by 'conda@1efc2f54142f' on 2023-08-01
          program call               : xtb xtbopt.xyz --opt crude --input .xc2 --gfn2

   ID    Z sym.   atoms
    1    6 C      1, 3, 5-7, 10, 11, 14
    2    7 N      2, 4, 9, 13
    3    8 O      8, 12
    4    1 H      15-25
########################################################################
[WARNING] Please study the warnings concerning your input carefully
-1- readin_getIntValue: could not parse ''
########################################################################

          :  Hamiltonian                  GFN2-xTB          :
 * total energy  :   -42.1076593 Eh     change       -0.1790568E-11 Eh
 * total energy  :   -42.1128330 Eh     change       -0.5173685E-02 Eh
 * total energy  :   -42.1170993 Eh     change       -0.4266337E-02 Eh
 * total energy  :   -42.1182113 Eh     change       -0.1111985E-02 Eh
 * total energy  :   -42.1186312 Eh     change       -0.4198872E-03 Eh
   *** GEOMETRY OPTIMIZATION CONVERGED AFTER 5 ITERATIONS ***

 final structure:
================
25
 xtb: 6.6.1 (8d0f1dd)
C            3.04483392384412        0.75528959709327        0.09012449883745
N            2.43786513884945       -0.57244766892555       -0.00453224812243
C            3.31998148217143       -1.65609118555366       -0.05125255054374
N            3.06868781132930       -2.87457343579362       -0.09786685196810
C           -0.06482922805652       -0.19230042018654       -0.01924925918237
C            1.14251118521151       -0.74480836798987       -0.01777645240932
C           -0.41626054846432        1.29066887271161       -0.05909839491034
O            0.34955957026791        2.21535419441435       -0.09087984762878
N           -1.77365019332542        1.31616694495687       -0.03021443908095
C           -2.59525423845159        2.50384884909571       -0.03374513957002
C           -2.33163666346161        0.03777988047827        0.01036772892502
O           -3.49349873575522       -0.23737985114049        0.03634573744114
N           -1.26776498217524       -0.85366481301540        0.01675284263853
C           -1.44628454656858       -2.27690906522630        0.04527454993416
H            3.60966760135566        0.83492053416586        1.01977967543480
H            3.71727362393584        0.90071906485930       -0.75629384721804
H            2.27809596483931        1.52899725075867        0.06856951866258
H            4.36336717160470       -1.35136021145336       -0.03526353999107
H           -1.95122542114617        3.38080293322956       -0.04064038345991
H           -3.23741629462335        2.50130773056458       -0.91614775289007
H           -3.22903350615894        2.50804693287009        0.85475859530323
H           -0.99071822290931       -2.70302406519008        0.94112751514090
H           -0.99718805243315       -2.73434687384234       -0.83853409938426
H           -2.51750286411409       -2.47718190487703        0.05316125932216
H            2.14085153833680       -3.28157638035921       -0.11359549732461

          :  Hamiltonian                  GFN2-xTB          :
         :: total energy             -42.118631166023 Eh    ::
         :: gradient norm              0.008535203701 Eh/a0 ::
         :: HOMO-LUMO gap              0.464963095412 eV    ::
         :: SCC energy               -42.661808410423 Eh    ::
         :: -> dispersion             -0.020805902512 Eh    ::
         :: repulsion energy           0.543111071424 Eh    ::

    * Orbital Energies and Occupations

         #    Occupation            Energy/Eh            Energy/eV
      -------------------------------------------------------------
         1        2.0000           -0.8997185             -24.4826
       ...           ...                  ...                  ...
        25        1.9994           -0.6574403             -17.8899
        26        1.9992           -0.6537919             -17.7906
        27        1.9991           -0.6506743             -17.7058
        28        1.9985           -0.6434655             -17.5096
        29        1.9983           -0.6413363             -17.4516
        30        1.9976           -0.6357298             -17.2991
        31        1.9957           -0.6263846             -17.0448
        32        1.9880           -0.6100072             -16.5991
        33        1.9840           -0.6053797             -16.4732
        34        1.9563           -0.5892726             -16.0349
        35        1.9294           -0.5814658             -15.8225
        36        1.8153           -0.5652659             -15.3817
        37        1.4199           -0.5432549             -14.7827 (HOMO)
        38        0.9083           -0.5261678             -14.3178 (LUMO)
        39        0.0109           -0.4466310             -12.1534
        40        0.0003           -0.3890248             -10.5859
        41        0.0000           -0.3500572              -9.5255
        42        0.0000           -0.3151773              -8.5764
        43                         -0.1971542              -5.3648
        44                         -0.1711036              -4.6560
        45                         -0.1496714              -4.0728
        46                         -0.0807172              -2.1964
        47                         -0.0668999              -1.8204
        48                         -0.0505257              -1.3749
       ...                                ...                  ...
        67                          0.6385186              17.3750
      -------------------------------------------------------------
                  HL-Gap            0.0170871 Eh            0.4650 eV

     #   Z          covCN         q      C6AA      α(0)
     1   6 C        3.703    -0.091    22.406     6.768
     2   7 N        2.730     0.060    20.189     6.673
     3   6 C        2.783     0.126    25.225     8.227
     4   7 N        1.773    -0.203    26.205     7.580
     5   6 C        2.970     0.027    27.387     8.584
     6   6 C        1.937     0.014    30.721     8.951
     7   6 C        2.829     0.279    22.295     7.737
     8   8 O        0.857    -0.320    20.139     6.017
     9   7 N        2.790    -0.061    22.412     7.031
    10   6 C        3.691    -0.059    21.836     6.687
    11   6 C        2.814     0.321    21.549     7.606
    12   8 O        0.857    -0.318    20.108     6.012
    13   7 N        2.785    -0.023    21.690     6.917
    14   6 C        3.691    -0.069    22.021     6.715
    15   1 H        0.924     0.108     1.710     2.045
    16   1 H        0.924     0.111     1.690     2.033
    17   1 H        0.925     0.127     1.559     1.952
    18   1 H        0.925     0.122     1.599     1.977
    19   1 H        0.925     0.111     1.685     2.030
    20   1 H        0.924     0.111     1.688     2.032
    21   1 H        0.924     0.111     1.689     2.033
    22   1 H        0.924     0.098     1.801     2.099
    23   1 H        0.924     0.098     1.808     2.103
    24   1 H        0.925     0.122     1.594     1.975
    25   1 H        0.860     0.197     1.121     1.659

Wiberg/Mayer (AO) data.
largest (>0.10) Wiberg bond orders for each atom

     #   Z sym  total        # sym  WBO       # sym  WBO       # sym  WBO
 ---------------------------------------------------------------------------
     1   6 C    3.839 --    15 H    0.953    16 H    0.951    17 H    0.950
                             2 N    0.936
     2   7 N    3.515 --     6 C    1.365     3 C    1.061     1 C    0.936
     3   6 C    3.918 --     4 N    1.881     2 N    1.061    18 H    0.924
     4   7 N    2.936 --     3 C    1.881    25 H    0.922
     5   6 C    3.772 --     6 C    1.559    13 N    1.145     7 C    0.877
     6   6 C    3.169 --     5 C    1.559     2 N    1.365
     7   6 C    3.862 --     8 O    1.710     9 N    1.180     5 C    0.877
     8   8 O    2.040 --     7 C    1.710     9 N    0.134
     9   7 N    3.520 --     7 C    1.180    11 C    1.057    10 C    0.974
                             8 O    0.134    12 O    0.106
    10   6 C    3.885 --     9 N    0.974    19 H    0.969    21 H    0.952
                            20 H    0.951
    11   6 C    3.941 --    12 O    1.720    13 N    1.079     9 N    1.057
    12   8 O    2.009 --    11 C    1.720     9 N    0.106    13 N    0.106
    13   7 N    3.416 --     5 C    1.145    11 C    1.079    14 C    0.993
                            12 O    0.106
    14   6 C    3.908 --    13 N    0.993    24 H    0.965    23 H    0.954
                            22 H    0.954
    15   1 H    0.970 --     1 C    0.953
    16   1 H    0.969 --     1 C    0.951
    17   1 H    0.979 --     1 C    0.950
    18   1 H    0.968 --     3 C    0.924
    19   1 H    0.982 --    10 C    0.969
    20   1 H    0.969 --    10 C    0.951
    21   1 H    0.970 --    10 C    0.952
    22   1 H    0.970 --    14 C    0.954
    23   1 H    0.970 --    14 C    0.954
    24   1 H    0.982 --    14 C    0.965
    25   1 H    0.950 --     4 N    0.922
 ---------------------------------------------------------------------------

molecular dipole:
                 x           y           z       tot (Debye)
 q only:        1.535      -0.731       0.044
   full:        1.381      -0.558       0.054       3.787

           -------------------------------------------------
          | TOTAL ENERGY              -42.118631166023 Eh   |
          | GRADIENT NORM               0.008535203701 Eh/α |
          | HOMO-LUMO GAP               0.464963095412 eV   |
           -------------------------------------------------

 * finished run on 2024/06/05 at 19:59:10.418
