   * xtb version 6.6.1 (8d0f1dd) compiled by 'conda@1efc2f54142f' on 2023-08-01
          program call               : xtb struc.xyz --opt loose --input .xc1 --gfn2

   ID    Z sym.   atoms
    1    7 N      1, 17
    2    6 C      2-6, 8, 9, 11-16, 18-23, 25, 26, 28-33
    3    8 O      7, 10, 24, 27
    4    1 H      34-72
constraining bond 4 44 to    3.7133300 Å, actual value:    3.4498419 Å

          :  Hamiltonian                  GFN2-xTB          :
 * total energy  :   -99.4165272 Eh     change       -0.4035485E-08 Eh
 * total energy  :   -99.4654497 Eh     change       -0.4892251E-01 Eh
 * total energy  :   -99.5310588 Eh     change       -0.6560918E-01 Eh
 * total energy  :   -99.7134880 Eh     change       -0.1824291E+00 Eh
 * total energy  :   -99.9690683 Eh     change       -0.2555803E+00 Eh
 * total energy  :  -100.1753866 Eh     change       -0.2063183E+00 Eh
 * total energy  :   -99.8935246 Eh     change        0.2818621E+00 Eh
 * total energy  :  -100.3404853 Eh     change       -0.4469608E+00 Eh
 * total energy  :  -100.3939045 Eh     change       -0.5341923E-01 Eh
 * total energy  :  -100.4382006 Eh     change       -0.4429609E-01 Eh
 * total energy  :  -100.7768463 Eh     change       -0.1737473E-03 Eh
 * total energy  :  -100.7769862 Eh     change       -0.1398976E-03 Eh
 * total energy  :  -100.7770773 Eh     change       -0.9109092E-04 Eh
 * total energy  :  -100.7771349 Eh     change       -0.5757754E-04 Eh
 * total energy  :  -100.7772535 Eh     change       -0.1186370E-03 Eh
 * total energy  :  -100.7773193 Eh     change       -0.6580624E-04 Eh
 * total energy  :  -100.7773930 Eh     change       -0.7371386E-04 Eh
 * total energy  :  -100.7774317 Eh     change       -0.3863855E-04 Eh
 * total energy  :  -100.7774567 Eh     change       -0.2500984E-04 Eh
   *** GEOMETRY OPTIMIZATION CONVERGED AFTER 92 ITERATIONS ***

 final structure:
================
72
 xtb: 6.6.1 (8d0f1dd)
N           -1.34037337262744        2.36147407693432        2.23841479579635
C           -1.19769483249670        1.56376970053139        1.28688650890194
C           -2.20265666508742        1.40626611545543        0.17251956803256
C           -2.52353824337875       -0.16572500970384        0.04905002070538
C           -3.81086219345765       -0.40479132977866       -0.68150572218735
C           -4.82498507876854       -1.18193386557432       -0.21875274247796
O           -5.98571208201283       -1.42801326656049       -0.86044631131254
C           -6.22853080843995       -0.81304250654141       -2.10462897294086
C           -4.71938450511426       -1.83637163814539        1.05975817933346
O           -5.75584647396699       -2.59216443461096        1.40611844015946
C           -5.76244425840449       -3.26101021070484        2.64921000347481
C           -3.56265976535783       -1.61767099174099        1.82949428018665
C           -2.55470816499027       -0.82145547163387        1.39207880237511
C           -1.43757976927616        1.88328616308811       -1.06470312857130
C           -1.57056797117829        1.33275270319263       -2.45575197390800
C           -0.27053688789659        1.16707607699546       -1.73112896180434
N            0.19719182693360       -0.11339402667873       -1.28896879280670
C            1.51780991173156       -0.07391915973134       -0.69515238411130
C            2.68817437318857       -0.05978047883440       -1.70568153720107
C            3.98878248266067        0.17441667632274       -0.99978302609058
C            4.51435138028835        1.45318046885873       -0.88203017476670
C            5.71840948050691        1.67169034893918       -0.23266424917056
C            6.42130129295291        0.61334873136607        0.32705490668317
O            7.60137936257774        0.70378206082455        0.96482543263864
C            8.23652088035780        1.95672862149488        1.06642694413914
C            5.88012404539808       -0.70083313715146        0.23250235727375
O            6.61914067812061       -1.66570333764757        0.81126342900000
C            6.18412625383446       -3.00286694011131        0.74867641029136
C            4.67761464297370       -0.89384800468852       -0.42932566150050
C           -0.00485969269187       -1.22570432385583       -2.19716794193323
C           -3.49201885161543        2.24968066578521        0.36706553169972
C           -4.25021623295045        1.85809186395216        1.63343930902283
C           -3.23630298574988        3.75730736363732        0.40026182467453
H           -3.91294746435691        0.06525689157635       -1.64463435916935
H           -6.22124919628174        0.27773944089126       -2.02006786553891
H           -7.22027388187171       -1.14467727269349       -2.40460273137320
H           -5.49949658342247       -1.12947824455373       -2.85717876295648
H           -5.72422666429224       -2.55286399688320        3.48124497713359
H           -6.70304127112001       -3.80740629309436        2.68166604525072
H           -4.93009646273683       -3.96577108300993        2.72702886108245
H           -3.48128138193518       -2.08128430581407        2.80007935188605
H           -1.68855147553689       -0.69186469728226        2.02054662898254
H           -1.28660600457811        2.95457371624804       -1.01614097840939
H           -1.91202808253445       -0.44066293885714       -0.36106655669662
H           -2.16857725846326        0.45618545876327       -2.62721509764003
H           -1.60788549566397        2.03418726422818       -3.27598404072683
H           -0.30632033970025        0.93921687360347        1.13667337360705
H            0.52956690117934        1.83620793186890       -2.04702843541054
H            1.62257589629669       -0.94938615723465       -0.04697229094929
H            1.58660509254939        0.82233883547563       -0.07373062020957
H            2.51804423765027        0.73423553552922       -2.43439368398684
H            2.71841499253804       -1.01309190007601       -2.23373052730792
H            3.99177271006818        2.29255095573725       -1.31497439250542
H            6.10715300775328        2.67482845407297       -0.17187089449079
H            7.63020998064837        2.66993136766144        1.63208980143391
H            8.46151207378268        2.37118632702741        0.07928795466183
H            9.16583708400694        1.77026133324963        1.60070188654332
H            6.95080914352379       -3.58384143361170        1.25745898135193
H            5.22768215674080       -3.13727047574835        1.26372572052525
H            6.09495412783283       -3.34809091204816       -0.28567140948098
H            4.26735936568063       -1.88710311247679       -0.52170269184541
H            0.43606667173676       -1.05222946938717       -3.18521479420976
H           -1.06871000491388       -1.41671842168952       -2.32927410065029
H            0.44416573906636       -2.11601437884495       -1.76078829804546
H           -4.13531489340722        2.04430198970708       -0.49509295621399
H           -3.62163436694537        2.01265041226611        2.50517651122821
H           -4.57654394651340        0.82392523288173        1.60302616646229
H           -5.13382475607764        2.48378335001368        1.73203169795796
H           -2.49542010163470        3.99801706207212        1.15503229421199
H           -2.91483086748172        4.14203824875702       -0.56269793073615
H           -4.16166794340905        4.26526746633764        0.65980304034681
H           -0.58913291718812        2.41858696413359        2.91836980483108

          :  Hamiltonian                  GFN2-xTB          :
         :: total energy            -100.777456682827 Eh    ::
         :: gradient norm              0.003426950122 Eh/a0 ::
         :: HOMO-LUMO gap              1.174316886406 eV    ::
         :: SCC energy              -100.739982846906 Eh    ::
         :: -> dispersion             -0.076635666346 Eh    ::
         :: repulsion energy           1.491084659693 Eh    ::

    * Orbital Energies and Occupations

         #    Occupation            Energy/Eh            Energy/eV
      -------------------------------------------------------------
         1        2.0000           -0.8311769             -22.6175
       ...           ...                  ...                  ...
        78        1.9978           -0.5322509             -14.4833
        79        1.9975           -0.5306165             -14.4388
        80        1.9972           -0.5285617             -14.3829
        81        1.9967           -0.5263423             -14.3225
        82        1.9954           -0.5206822             -14.1685
        83        1.9950           -0.5194621             -14.1353
        84        1.9937           -0.5157409             -14.0340
        85        1.9918           -0.5117561             -13.9256
        86        1.9682           -0.4900228             -13.3342
        87        1.9631           -0.4876275             -13.2690
        88        1.9117           -0.4733927             -12.8817
        89        1.8603           -0.4656916             -12.6721
        90        1.7326           -0.4542846             -12.3617 (HOMO)
        91        0.5960           -0.4111292             -11.1874 (LUMO)
        92        0.0107           -0.3420032              -9.3064
        93        0.0030           -0.3219357              -8.7603
        94        0.0018           -0.3132229              -8.5232
        95        0.0015           -0.3109070              -8.4602
        96        0.0000           -0.2390233              -6.5042
        97        0.0000           -0.1883896              -5.1263
        98        0.0000           -0.1736650              -4.7257
        99                         -0.1051019              -2.8600
       100                         -0.0817644              -2.2249
       101                         -0.0804593              -2.1894
       ...                                ...                  ...
       171                          1.1513569              31.3300
      -------------------------------------------------------------
                  HL-Gap            0.0431554 Eh            1.1743 eV

     #   Z          covCN         q      C6AA      α(0)
     1   7 N        1.774    -0.271    27.847     7.814
     2   6 C        2.835     0.097    25.839     8.330
     3   6 C        3.894     0.015    20.276     6.401
     4   6 C        3.857    -0.052    21.476     6.591
     5   6 C        2.904    -0.080    29.990     8.979
     6   6 C        2.848     0.135    25.056     8.204
     7   8 O        1.706    -0.233    17.864     5.707
     8   6 C        3.644     0.025    20.491     6.506
     9   6 C        2.863     0.143    24.891     8.178
    10   8 O        1.706    -0.188    17.151     5.591
    11   6 C        3.646     0.018    20.614     6.525
    12   6 C        2.898    -0.062    29.552     8.913
    13   6 C        2.906    -0.033    28.814     8.802
    14   6 C        3.876    -0.037    21.183     6.544
    15   6 C        3.806    -0.076    21.940     6.668
    16   6 C        3.808     0.033    20.007     6.367
    17   7 N        2.724    -0.137    23.962     7.270
    18   6 C        3.758     0.003    20.575     6.467
    19   6 C        3.806    -0.071    21.849     6.654
    20   6 C        2.968     0.007    27.861     8.658
    21   6 C        2.922    -0.045    29.109     8.848
    22   6 C        2.913    -0.066    29.639     8.927
    23   6 C        2.865     0.135    25.052     8.204
    24   8 O        1.706    -0.216    17.595     5.663
    25   6 C        3.646     0.024    20.505     6.508
    26   6 C        2.862     0.135    25.048     8.204
    27   8 O        1.706    -0.220    17.647     5.672
    28   6 C        3.645     0.026    20.473     6.503
    29   6 C        2.919    -0.077    29.924     8.970
    30   6 C        3.700    -0.046    21.560     6.640
    31   6 C        3.850    -0.010    20.713     6.473
    32   6 C        3.757    -0.121    22.868     6.818
    33   6 C        3.756    -0.121    22.877     6.820
    34   1 H        0.926     0.060     2.203     2.321
    35   1 H        0.924     0.053     2.279     2.361
    36   1 H        0.925     0.085     1.930     2.173
    37   1 H        0.924     0.050     2.325     2.384
    38   1 H        0.924     0.066     2.127     2.281
    39   1 H        0.925     0.091     1.866     2.136
    40   1 H        0.924     0.064     2.149     2.293
    41   1 H        0.926     0.065     2.142     2.289
    42   1 H        0.926     0.056     2.252     2.347
    43   1 H        0.925     0.058     2.224     2.332
    44   1 H        0.931     0.146     1.417     1.862
    45   1 H        0.926     0.054     2.269     2.355
    46   1 H        0.926     0.053     2.279     2.361
    47   1 H        0.923     0.020     2.738     2.587
    48   1 H        0.925     0.033     2.550     2.497
    49   1 H        0.924     0.046     2.366     2.405
    50   1 H        0.924     0.046     2.376     2.410
    51   1 H        0.924     0.048     2.347     2.396
    52   1 H        0.924     0.053     2.286     2.364
    53   1 H        0.926     0.050     2.326     2.385
    54   1 H        0.926     0.060     2.198     2.318
    55   1 H        0.924     0.057     2.238     2.340
    56   1 H        0.924     0.058     2.217     2.329
    57   1 H        0.925     0.084     1.938     2.177
    58   1 H        0.925     0.083     1.947     2.182
    59   1 H        0.924     0.052     2.299     2.371
    60   1 H        0.924     0.055     2.253     2.347
    61   1 H        0.926     0.051     2.302     2.373
    62   1 H        0.924     0.046     2.367     2.406
    63   1 H        0.925     0.051     2.311     2.377
    64   1 H        0.925     0.055     2.254     2.348
    65   1 H        0.924     0.041     2.430     2.438
    66   1 H        0.925     0.066     2.132     2.283
    67   1 H        0.925     0.032     2.558     2.501
    68   1 H        0.925     0.053     2.277     2.360
    69   1 H        0.925     0.068     2.109     2.271
    70   1 H        0.925     0.039     2.465     2.455
    71   1 H        0.925     0.057     2.237     2.339
    72   1 H        0.860     0.161     1.331     1.807

Wiberg/Mayer (AO) data.
largest (>0.10) Wiberg bond orders for each atom

     #   Z sym  total        # sym  WBO       # sym  WBO       # sym  WBO
 ---------------------------------------------------------------------------
     1   7 N    3.007 --     2 C    1.949    72 H    0.940
     2   6 C    3.940 --     1 N    1.949     3 C    0.987    47 H    0.929
     3   6 C    3.913 --     2 C    0.987    14 C    0.969    31 C    0.962
                             4 C    0.861
     4   6 C    3.971 --    13 C    1.048     5 C    1.041    44 H    0.907
                             3 C    0.861
     5   6 C    3.800 --     6 C    1.562     4 C    1.041    34 H    0.954
                             7 O    0.104
     6   6 C    3.931 --     5 C    1.562     9 C    1.137     7 O    1.095
     7   8 O    2.260 --     6 C    1.095     8 C    0.976     5 C    0.104
     8   6 C    3.930 --     7 O    0.976    36 H    0.976    37 H    0.974
                            35 H    0.974
     9   6 C    3.695 --    12 C    1.265    10 O    1.170     6 C    1.137
    10   8 O    2.282 --     9 C    1.170    11 C    0.967
    11   6 C    3.920 --    39 H    0.976    40 H    0.971    38 H    0.970
                            10 O    0.967
    12   6 C    3.977 --    13 C    1.615     9 C    1.265    41 H    0.958
    13   6 C    3.751 --    12 C    1.615     4 C    1.048    42 H    0.962
    14   6 C    3.915 --     3 C    0.969    15 C    0.963    43 H    0.959
                            16 C    0.927
    15   6 C    3.936 --    46 H    0.976    16 C    0.967    45 H    0.966
                            14 C    0.963
    16   6 C    3.917 --    17 N    1.012    15 C    0.967    48 H    0.955
                            14 C    0.927
    17   7 N    3.124 --    16 C    1.012    18 C    1.007    30 C    1.005
    18   6 C    3.967 --    17 N    1.007    50 H    0.969    49 H    0.968
                            19 C    0.960
    19   6 C    3.973 --    20 C    1.017    51 H    0.969    52 H    0.969
                            18 C    0.960
    20   6 C    3.928 --    21 C    1.393    29 C    1.379    19 C    1.017
    21   6 C    3.929 --    22 C    1.423    20 C    1.393    53 H    0.967
    22   6 C    3.950 --    21 C    1.423    23 C    1.375    54 H    0.963
    23   6 C    3.874 --    22 C    1.375    26 C    1.209    24 O    1.115
    24   8 O    2.247 --    23 C    1.115    25 C    0.975
    25   6 C    3.925 --    57 H    0.976    24 O    0.975    56 H    0.971
                            55 H    0.971
    26   6 C    3.882 --    29 C    1.392    23 C    1.209    27 O    1.109
    27   8 O    2.249 --    26 C    1.109    28 C    0.977
    28   6 C    3.929 --    27 O    0.977    58 H    0.976    59 H    0.972
                            60 H    0.972
    29   6 C    3.951 --    26 C    1.392    20 C    1.379    61 H    0.962
    30   6 C    3.969 --    17 N    1.005    64 H    0.980    63 H    0.974
                            62 H    0.968
    31   6 C    3.972 --    32 C    1.008    33 C    1.004     3 C    0.962
                            65 H    0.956
    32   6 C    3.979 --    31 C    1.008    68 H    0.980    67 H    0.979
                            66 H    0.974
    33   6 C    3.975 --    31 C    1.004    70 H    0.980    71 H    0.979
                            69 H    0.973
    34   1 H    0.995 --     5 C    0.954
    35   1 H    0.995 --     8 C    0.974
    36   1 H    0.992 --     8 C    0.976
    37   1 H    0.995 --     8 C    0.974
    38   1 H    0.989 --    11 C    0.970
    39   1 H    0.991 --    11 C    0.976
    40   1 H    0.989 --    11 C    0.971
    41   1 H    0.994 --    12 C    0.958
    42   1 H    0.996 --    13 C    0.962
    43   1 H    0.993 --    14 C    0.959
    44   1 H    0.957 --     4 C    0.907
    45   1 H    0.997 --    15 C    0.966
    46   1 H    0.994 --    15 C    0.976
    47   1 H    0.980 --     2 C    0.929
    48   1 H    0.986 --    16 C    0.955
    49   1 H    0.992 --    18 C    0.968
    50   1 H    0.997 --    18 C    0.969
    51   1 H    0.995 --    19 C    0.969
    52   1 H    0.995 --    19 C    0.969
    53   1 H    0.997 --    21 C    0.967
    54   1 H    0.994 --    22 C    0.963
    55   1 H    0.989 --    25 C    0.971
    56   1 H    0.989 --    25 C    0.971
    57   1 H    0.992 --    25 C    0.976
    58   1 H    0.992 --    28 C    0.976
    59   1 H    0.991 --    28 C    0.972
    60   1 H    0.991 --    28 C    0.972
    61   1 H    0.996 --    29 C    0.962
    62   1 H    0.982 --    30 C    0.968
    63   1 H    0.993 --    30 C    0.974
    64   1 H    0.996 --    30 C    0.980
    65   1 H    0.991 --    31 C    0.956
    66   1 H    0.991 --    32 C    0.974
    67   1 H    0.997 --    32 C    0.979
    68   1 H    0.993 --    32 C    0.980
    69   1 H    0.990 --    33 C    0.973
    70   1 H    0.996 --    33 C    0.980
    71   1 H    0.993 --    33 C    0.979
    72   1 H    0.966 --     1 N    0.940
 ---------------------------------------------------------------------------

molecular dipole:
                 x           y           z       tot (Debye)
 q only:       -0.465      -0.535       0.085
   full:        0.090      -0.665      -0.217       1.793

           -------------------------------------------------
          | TOTAL ENERGY             -100.777456682827 Eh   |
          | GRADIENT NORM               0.003426950122 Eh/α |
          | HOMO-LUMO GAP               1.174316886406 eV   |
           -------------------------------------------------

 * finished run on 2024/04/06 at 11:15:53.837
