   * xtb version 6.6.1 (8d0f1dd) compiled by 'conda@1efc2f54142f' on 2023-08-01
          program call               : xtb xtbopt.xyz --opt crude --input .xc2 --gfn2

   ID    Z sym.   atoms
    1    7 N      1, 17
    2    6 C      2-6, 8, 9, 11-16, 18-23, 25, 26, 28-33
    3    8 O      7, 10, 24, 27
    4    1 H      34-72
########################################################################
[WARNING] Please study the warnings concerning your input carefully
-1- readin_getIntValue: could not parse ''
########################################################################

          :  Hamiltonian                  GFN2-xTB          :
 * total energy  :   -99.2473446 Eh     change       -0.2387424E-11 Eh
 * total energy  :   -99.3576332 Eh     change       -0.1102886E+00 Eh
 * total energy  :   -99.3594847 Eh     change       -0.1851420E-02 Eh
 * total energy  :   -99.3605721 Eh     change       -0.1087434E-02 Eh
 * total energy  :   -99.3608302 Eh     change       -0.2581115E-03 Eh
   *** GEOMETRY OPTIMIZATION CONVERGED AFTER 5 ITERATIONS ***

 final structure:
================
72
 xtb: 6.6.1 (8d0f1dd)
N           -1.33624790707403        2.37781593145493        2.24499107432159
C           -1.19422607393176        1.57921075338987        1.29301302188614
C           -2.20227882097479        1.41042055606136        0.18136311237800
C           -2.56217867234260       -0.13077106413932        0.10503575532443
C           -3.80710527978181       -0.40101402511188       -0.66448860016170
C           -4.81948089653923       -1.19200825965135       -0.21434966035118
O           -5.97072918321327       -1.45297073727320       -0.86825207381575
C           -6.21934908289054       -0.82520626209605       -2.10502833009767
C           -4.71987309280378       -1.84570937355001        1.06464302665335
O           -5.75822440353785       -2.60360986427850        1.40504695354554
C           -5.77123016823679       -3.26921890247027        2.64989750149178
C           -3.56952715403881       -1.62652818888583        1.84316770460818
C           -2.57180381235367       -0.80349322419576        1.42509826874084
C           -1.43908343781672        1.88049828709846       -1.06109708934682
C           -1.58271341191733        1.33450635102434       -2.45279355554649
C           -0.28042656136651        1.15966168618606       -1.73486448511611
N            0.18106874581009       -0.12954538518963       -1.30032714454455
C            1.50039826704503       -0.08858737351085       -0.69597430930865
C            2.67612571778446       -0.06232843332891       -1.70010655467657
C            3.97652685544601        0.17396492603882       -0.99210479872986
C            4.50491521496298        1.45268538023598       -0.87862999454833
C            5.71051807151587        1.67156151344929       -0.23189927030584
C            6.41449697571209        0.61342276723288        0.32760156242027
O            7.59365543119544        0.70426595391691        0.96725721893808
C            8.22960442887990        1.95768718330375        1.07050805947592
C            5.87400406263311       -0.70094008578308        0.23188579329993
O            6.61736858708330       -1.66600493931458        0.80525334508704
C            6.18317525024071       -3.00380467122205        0.74278171496452
C            4.66843917527560       -0.89419247333409       -0.42538369517513
C            0.01048340687756       -1.22719110148073       -2.23849371297258
C           -3.48927903878189        2.26522436809146        0.37209741452111
C           -4.25003259238743        1.88042519591000        1.63940936301906
C           -3.23143778912484        3.77323235316208        0.39698791111985
H           -3.90559597628327        0.07412347265041       -1.62529933810973
H           -6.21447939877923        0.26473020398975       -2.00889268602922
H           -7.21181774963142       -1.15543238299700       -2.40490915164318
H           -5.49297620292933       -1.13163756988719       -2.86395085731597
H           -5.73160626013749       -2.55943711002988        3.48089343088561
H           -6.71449708384715       -3.81087783282252        2.68172082188278
H           -4.94236784023417       -3.97779218789768        2.73141356927289
H           -3.48598191139997       -2.10776201765617        2.80494109408035
H           -1.71321602253419       -0.66367150333296        2.06184624580337
H           -1.27977227305001        2.95037563816217       -1.01191382266709
H           -1.69788771832772       -0.54008301102705       -0.44624494412828
H           -2.18535579183118        0.45975549109708       -2.62028486264295
H           -1.62033466647749        2.03649064205544       -3.27244333194907
H           -0.30477995569270        0.95208775508971        1.14613699903714
H            0.52422877816604        1.82098107190280       -2.05303583776570
H            1.60442186088669       -0.96797592756150       -0.05286322390926
H            1.56179784546921        0.80370579376472       -0.06811203717263
H            2.50552758886150        0.73432492053109       -2.42649678907458
H            2.71599696505410       -1.01284982962705       -2.23303018380118
H            3.98251878405587        2.29181515900233       -1.31244011158003
H            6.10069565362909        2.67454970494390       -0.17362612906687
H            7.62403271937452        2.66898458796049        1.64023891987313
H            8.45270615534381        2.37492095548587        0.08403353270132
H            9.16057826310703        1.76979065775547        1.60205528254253
H            6.94875494117298       -3.58345780867825        1.25496516245367
H            5.22477406347431       -3.13814348167478        1.25430112705716
H            6.09840645936321       -3.35022890948868       -0.29169115905370
H            4.25934119901023       -1.88812604716894       -0.51769461770482
H            0.48296708282004       -1.03557149198713       -3.20783920916183
H           -1.04810410150317       -1.41876129738335       -2.41076958452045
H            0.44657683621176       -2.12368322077996       -1.80114287864988
H           -4.13213689292425        2.05596872747960       -0.49028320634715
H           -3.62474770771229        2.04465323330161        2.51129976177092
H           -4.57112243552854        0.84464515692196        1.61786837158781
H           -5.13608931433022        2.50326443332537        1.73213901342833
H           -2.49293220654477        4.01886432879915        1.15352592161627
H           -2.90587232934081        4.15110201216338       -0.56832068899842
H           -4.15706622395373        4.28422002017456        0.64891629607520
H           -0.58362234732459        2.43881834420179        2.92400841667119

          :  Hamiltonian                  GFN2-xTB          :
         :: total energy             -99.360830207594 Eh    ::
         :: gradient norm              0.004142987529 Eh/a0 ::
         :: HOMO-LUMO gap              1.218344427623 eV    ::
         :: SCC energy              -100.713030806575 Eh    ::
         :: -> dispersion             -0.076470147264 Eh    ::
         :: repulsion energy           1.350642395201 Eh    ::

    * Orbital Energies and Occupations

         #    Occupation            Energy/Eh            Energy/eV
      -------------------------------------------------------------
         1        2.0000           -0.8307172             -22.6050
       ...           ...                  ...                  ...
        78        1.9978           -0.5323303             -14.4854
        79        1.9975           -0.5301394             -14.4258
        80        1.9971           -0.5279584             -14.3665
        81        1.9967           -0.5260070             -14.3134
        82        1.9954           -0.5205462             -14.1648
        83        1.9950           -0.5191903             -14.1279
        84        1.9936           -0.5152795             -14.0215
        85        1.9920           -0.5119455             -13.9307
        86        1.9686           -0.4900272             -13.3343
        87        1.9635           -0.4875966             -13.2682
        88        1.9123           -0.4732795             -12.8786
        89        1.8718           -0.4669434             -12.7062
        90        1.7429           -0.4547913             -12.3755 (HOMO)
        91        0.5725           -0.4100180             -11.1572 (LUMO)
        92        0.0107           -0.3418205              -9.3014
        93        0.0032           -0.3223572              -8.7718
        94        0.0018           -0.3132398              -8.5237
        95        0.0015           -0.3109453              -8.4613
        96        0.0000           -0.2394176              -6.5149
        97        0.0000           -0.1884867              -5.1290
        98        0.0000           -0.1740113              -4.7351
        99                         -0.1087607              -2.9595
       100                         -0.0805737              -2.1925
       101                         -0.0737624              -2.0072
       ...                                ...                  ...
       171                          0.5736992              15.6111
      -------------------------------------------------------------
                  HL-Gap            0.0447733 Eh            1.2183 eV

     #   Z          covCN         q      C6AA      α(0)
     1   7 N        1.774    -0.270    27.834     7.813
     2   6 C        2.836     0.098    25.824     8.328
     3   6 C        3.898     0.015    20.269     6.400
     4   6 C        3.859    -0.028    21.036     6.523
     5   6 C        2.904    -0.075    29.881     8.963
     6   6 C        2.848     0.135    25.056     8.204
     7   8 O        1.706    -0.233    17.858     5.706
     8   6 C        3.644     0.025    20.490     6.507
     9   6 C        2.863     0.143    24.888     8.177
    10   8 O        1.706    -0.189    17.168     5.594
    11   6 C        3.645     0.018    20.610     6.525
    12   6 C        2.899    -0.063    29.561     8.915
    13   6 C        2.906    -0.028    28.712     8.786
    14   6 C        3.875    -0.037    21.180     6.544
    15   6 C        3.806    -0.075    21.937     6.668
    16   6 C        3.807     0.034    20.005     6.367
    17   7 N        2.724    -0.139    24.007     7.277
    18   6 C        3.758     0.004    20.569     6.466
    19   6 C        3.806    -0.071    21.846     6.654
    20   6 C        2.967     0.007    27.870     8.659
    21   6 C        2.922    -0.045    29.110     8.848
    22   6 C        2.913    -0.066    29.639     8.927
    23   6 C        2.864     0.135    25.052     8.204
    24   8 O        1.706    -0.217    17.600     5.664
    25   6 C        3.645     0.024    20.508     6.509
    26   6 C        2.862     0.135    25.051     8.204
    27   8 O        1.706    -0.220    17.650     5.672
    28   6 C        3.645     0.026    20.474     6.504
    29   6 C        2.919    -0.077    29.922     8.970
    30   6 C        3.699    -0.044    21.530     6.636
    31   6 C        3.850    -0.009    20.710     6.473
    32   6 C        3.757    -0.120    22.846     6.815
    33   6 C        3.756    -0.121    22.868     6.818
    34   1 H        0.926     0.061     2.192     2.315
    35   1 H        0.924     0.053     2.281     2.362
    36   1 H        0.925     0.085     1.929     2.172
    37   1 H        0.924     0.050     2.325     2.384
    38   1 H        0.924     0.066     2.133     2.284
    39   1 H        0.925     0.091     1.866     2.136
    40   1 H        0.924     0.064     2.152     2.294
    41   1 H        0.926     0.065     2.137     2.286
    42   1 H        0.926     0.056     2.248     2.345
    43   1 H        0.925     0.058     2.226     2.333
    44   1 H        0.923     0.117     1.641     2.003
    45   1 H        0.926     0.054     2.275     2.359
    46   1 H        0.926     0.054     2.274     2.358
    47   1 H        0.923     0.019     2.752     2.594
    48   1 H        0.925     0.032     2.560     2.502
    49   1 H        0.924     0.046     2.373     2.409
    50   1 H        0.924     0.045     2.378     2.411
    51   1 H        0.924     0.048     2.349     2.397
    52   1 H        0.924     0.053     2.286     2.364
    53   1 H        0.926     0.049     2.327     2.385
    54   1 H        0.926     0.060     2.198     2.319
    55   1 H        0.924     0.057     2.237     2.339
    56   1 H        0.924     0.058     2.217     2.328
    57   1 H        0.925     0.084     1.938     2.177
    58   1 H        0.925     0.083     1.947     2.182
    59   1 H        0.924     0.052     2.300     2.372
    60   1 H        0.924     0.055     2.253     2.347
    61   1 H        0.926     0.051     2.305     2.374
    62   1 H        0.924     0.046     2.375     2.410
    63   1 H        0.925     0.050     2.314     2.379
    64   1 H        0.925     0.055     2.258     2.350
    65   1 H        0.924     0.041     2.441     2.443
    66   1 H        0.925     0.066     2.136     2.285
    67   1 H        0.925     0.032     2.561     2.503
    68   1 H        0.925     0.053     2.282     2.362
    69   1 H        0.925     0.067     2.114     2.274
    70   1 H        0.925     0.038     2.469     2.457
    71   1 H        0.925     0.057     2.240     2.340
    72   1 H        0.860     0.161     1.330     1.807

Wiberg/Mayer (AO) data.
largest (>0.10) Wiberg bond orders for each atom

     #   Z sym  total        # sym  WBO       # sym  WBO       # sym  WBO
 ---------------------------------------------------------------------------
     1   7 N    3.009 --     2 C    1.952    72 H    0.940
     2   6 C    3.940 --     1 N    1.952     3 C    0.985    47 H    0.929
     3   6 C    3.927 --     2 C    0.985    14 C    0.968    31 C    0.957
                             4 C    0.889
     4   6 C    3.975 --    13 C    1.060     5 C    1.051     3 C    0.889
                            44 H    0.860
     5   6 C    3.805 --     6 C    1.555     4 C    1.051    34 H    0.953
                             7 O    0.104
     6   6 C    3.931 --     5 C    1.555     9 C    1.141     7 O    1.096
     7   8 O    2.261 --     6 C    1.096     8 C    0.976     5 C    0.104
     8   6 C    3.930 --    36 H    0.976     7 O    0.976    37 H    0.974
                            35 H    0.974
     9   6 C    3.703 --    12 C    1.269    10 O    1.168     6 C    1.141
    10   8 O    2.283 --     9 C    1.168    11 C    0.967
    11   6 C    3.920 --    39 H    0.976    40 H    0.971    38 H    0.971
                            10 O    0.967
    12   6 C    3.976 --    13 C    1.605     9 C    1.269    41 H    0.959
    13   6 C    3.759 --    12 C    1.605     4 C    1.060    42 H    0.962
    14   6 C    3.919 --     3 C    0.968    15 C    0.963    43 H    0.960
                            16 C    0.930
    15   6 C    3.937 --    46 H    0.976    16 C    0.968    45 H    0.966
                            14 C    0.963
    16   6 C    3.917 --    17 N    1.008    15 C    0.968    48 H    0.955
                            14 C    0.930
    17   7 N    3.143 --    16 C    1.008    18 C    1.004    30 C    1.002
    18   6 C    3.967 --    17 N    1.004    50 H    0.969    49 H    0.969
                            19 C    0.963
    19   6 C    3.974 --    20 C    1.016    51 H    0.969    52 H    0.969
                            18 C    0.963
    20   6 C    3.929 --    21 C    1.393    29 C    1.380    19 C    1.016
    21   6 C    3.930 --    22 C    1.423    20 C    1.393    53 H    0.967
    22   6 C    3.950 --    21 C    1.423    23 C    1.375    54 H    0.963
    23   6 C    3.874 --    22 C    1.375    26 C    1.210    24 O    1.115
    24   8 O    2.248 --    23 C    1.115    25 C    0.975
    25   6 C    3.925 --    57 H    0.976    24 O    0.975    56 H    0.971
                            55 H    0.971
    26   6 C    3.883 --    29 C    1.391    23 C    1.210    27 O    1.109
    27   8 O    2.249 --    26 C    1.109    28 C    0.977
    28   6 C    3.929 --    27 O    0.977    58 H    0.976    59 H    0.972
                            60 H    0.972
    29   6 C    3.951 --    26 C    1.391    20 C    1.380    61 H    0.962
    30   6 C    3.969 --    17 N    1.002    64 H    0.980    63 H    0.974
                            62 H    0.969
    31   6 C    3.971 --    32 C    1.008    33 C    1.006     3 C    0.957
                            65 H    0.956
    32   6 C    3.979 --    31 C    1.008    68 H    0.980    67 H    0.979
                            66 H    0.975
    33   6 C    3.975 --    31 C    1.006    70 H    0.980    71 H    0.979
                            69 H    0.973
    34   1 H    0.995 --     5 C    0.953
    35   1 H    0.995 --     8 C    0.974
    36   1 H    0.992 --     8 C    0.976
    37   1 H    0.995 --     8 C    0.974
    38   1 H    0.989 --    11 C    0.971
    39   1 H    0.991 --    11 C    0.976
    40   1 H    0.989 --    11 C    0.971
    41   1 H    0.994 --    12 C    0.959
    42   1 H    0.996 --    13 C    0.962
    43   1 H    0.994 --    14 C    0.960
    44   1 H    0.943 --     4 C    0.860
    45   1 H    0.997 --    15 C    0.966
    46   1 H    0.994 --    15 C    0.976
    47   1 H    0.980 --     2 C    0.929
    48   1 H    0.987 --    16 C    0.955
    49   1 H    0.993 --    18 C    0.969
    50   1 H    0.997 --    18 C    0.969
    51   1 H    0.996 --    19 C    0.969
    52   1 H    0.995 --    19 C    0.969
    53   1 H    0.997 --    21 C    0.967
    54   1 H    0.994 --    22 C    0.963
    55   1 H    0.989 --    25 C    0.971
    56   1 H    0.989 --    25 C    0.971
    57   1 H    0.992 --    25 C    0.976
    58   1 H    0.992 --    28 C    0.976
    59   1 H    0.991 --    28 C    0.972
    60   1 H    0.991 --    28 C    0.972
    61   1 H    0.996 --    29 C    0.962
    62   1 H    0.984 --    30 C    0.969
    63   1 H    0.994 --    30 C    0.974
    64   1 H    0.996 --    30 C    0.980
    65   1 H    0.991 --    31 C    0.956
    66   1 H    0.991 --    32 C    0.975
    67   1 H    0.997 --    32 C    0.979
    68   1 H    0.993 --    32 C    0.980
    69   1 H    0.990 --    33 C    0.973
    70   1 H    0.996 --    33 C    0.980
    71   1 H    0.993 --    33 C    0.979
    72   1 H    0.966 --     1 N    0.940
 ---------------------------------------------------------------------------

molecular dipole:
                 x           y           z       tot (Debye)
 q only:       -0.494      -0.538       0.092
   full:        0.075      -0.668      -0.216       1.795

           -------------------------------------------------
          | TOTAL ENERGY              -99.360830207594 Eh   |
          | GRADIENT NORM               0.004142987529 Eh/α |
          | HOMO-LUMO GAP               1.218344427623 eV   |
           -------------------------------------------------

 * finished run on 2024/04/06 at 11:15:54.972
