   * xtb version 6.6.1 (8d0f1dd) compiled by 'conda@1efc2f54142f' on 2023-08-01
          program call               : xtb struc.xyz --opt loose --input .xc1 --gfn2

   ID    Z sym.   atoms
    1    6 C      1, 3, 5-7, 10, 11, 14
    2    7 N      2, 4, 9, 13
    3    8 O      8, 12
    4    1 H      15-25
constraining bond 12 13 to    4.6800000 Å, actual value:    2.2702978 Å

          :  Hamiltonian                  GFN2-xTB          :
 * total energy  :   -31.8772974 Eh     change       -0.6633627E-10 Eh
 * total energy  :   -35.7524494 Eh     change       -0.3875152E+01 Eh
 * total energy  :   -38.7440973 Eh     change       -0.2991648E+01 Eh
 * total energy  :   -40.6063989 Eh     change       -0.1862302E+01 Eh
 * total energy  :   -41.4511110 Eh     change       -0.8447120E+00 Eh
 * total energy  :   -41.6297740 Eh     change       -0.1786630E+00 Eh
 * total energy  :   -41.6641630 Eh     change       -0.3438901E-01 Eh
 * total energy  :   -41.6960097 Eh     change       -0.3184668E-01 Eh
 * total energy  :   -41.7207944 Eh     change       -0.2478473E-01 Eh
 * total energy  :   -41.7420366 Eh     change       -0.2124217E-01 Eh
 * total energy  :   -42.1333467 Eh     change       -0.6173113E-04 Eh
 * total energy  :   -42.1334264 Eh     change       -0.7969233E-04 Eh
 * total energy  :   -42.1335013 Eh     change       -0.7494767E-04 Eh
 * total energy  :   -42.1335492 Eh     change       -0.4785200E-04 Eh
 * total energy  :   -42.1336046 Eh     change       -0.5544140E-04 Eh
 * total energy  :   -42.1336645 Eh     change       -0.5982276E-04 Eh
 * total energy  :   -42.1337172 Eh     change       -0.5272768E-04 Eh
 * total energy  :   -42.1337683 Eh     change       -0.5108271E-04 Eh
 * total energy  :   -42.1338124 Eh     change       -0.4408800E-04 Eh
   *** GEOMETRY OPTIMIZATION CONVERGED AFTER 93 ITERATIONS ***

 final structure:
================
25
 xtb: 6.6.1 (8d0f1dd)
C            2.86915961503618        1.30003200281460        0.77879686592631
N            2.17590574047216        0.18121073488336        0.20254378920565
C            2.73652527678095       -0.81777218705480       -0.43223113225976
N            1.82985589237466       -1.70631404153665       -0.81751533369218
C            0.54387536784244       -1.34014698092460       -0.36796915615382
C            0.77531652762645       -0.02372184665583        0.24142540128667
C           -0.00648663387639        1.02844325485637        0.65440504238072
O            0.19259439791509        2.08610892296792        1.16560068678602
N           -1.59990935380226        0.80533315052684        0.24901384069680
C           -1.87259030816462        1.14081048562090       -1.13852562437641
C           -2.37837901437444        0.72333607663699        1.19974607486571
O           -2.98104614054730        0.60324900128470        2.16014943590819
N           -0.37074693735286       -2.19314164071806       -0.53440374405266
C           -1.70278922118847       -2.20724339436647       -0.03368763575000
H            2.67434267176018        1.34935162109032        1.85081974392910
H            3.93803292223475        1.18550134216549        0.61059832561348
H            2.53041499086179        2.23564769566706        0.33480210721277
H            3.79303133222058       -0.90430103057611       -0.61137920392671
H           -1.22640658685812        0.53089161152322       -1.76967285667112
H           -2.91830328274126        0.94504405522595       -1.37854832902647
H           -1.65278273545971        2.19787990311619       -1.30543957521483
H           -2.01617923905281       -3.25141607262140       -0.02716772010763
H           -2.38312250200643       -1.66454509681366       -0.69343920588667
H           -1.78225063544706       -1.80148517928065        0.97962084002683
H            1.99236936982351       -2.58451384621880       -1.28637101882757

          :  Hamiltonian                  GFN2-xTB          :
         :: total energy             -42.133812352142 Eh    ::
         :: gradient norm              0.003677272321 Eh/a0 ::
         :: HOMO-LUMO gap              1.719422874375 eV    ::
         :: SCC energy               -42.715140374790 Eh    ::
         :: -> dispersion             -0.022835002355 Eh    ::
         :: repulsion energy           0.581059344327 Eh    ::

    * Orbital Energies and Occupations

         #    Occupation            Energy/Eh            Energy/eV
      -------------------------------------------------------------
         1        2.0000           -0.9472918             -25.7771
       ...           ...                  ...                  ...
        25        2.0000           -0.6743033             -18.3487
        26        2.0000           -0.6703578             -18.2414
        27        2.0000           -0.6534428             -17.7811
        28        2.0000           -0.6494102             -17.6714
        29        2.0000           -0.6393228             -17.3969
        30        2.0000           -0.6328223             -17.2200
        31        2.0000           -0.6137245             -16.7003
        32        2.0000           -0.6054106             -16.4741
        33        2.0000           -0.6019312             -16.3794
        34        2.0000           -0.5926182             -16.1260
        35        2.0000           -0.5891758             -16.0323
        36        1.9857           -0.5148059             -14.0086
        37        1.9691           -0.5086547             -13.8412 (HOMO)
        38        0.0427           -0.4454671             -12.1218 (LUMO)
        39        0.0025           -0.4228891             -11.5074
        40        0.0000           -0.3823754             -10.4050
        41        0.0000           -0.3721523             -10.1268
        42                         -0.3087800              -8.4023
        43                         -0.2714775              -7.3873
        44                         -0.1710633              -4.6549
        45                         -0.1329002              -3.6164
        46                         -0.1154218              -3.1408
        47                         -0.0769329              -2.0935
        48                         -0.0462971              -1.2598
       ...                                ...                  ...
        67                          1.0533050              28.6619
      -------------------------------------------------------------
                  HL-Gap            0.0631876 Eh            1.7194 eV

     #   Z          covCN         q      C6AA      α(0)
     1   6 C        3.693    -0.083    22.278     6.753
     2   7 N        2.816     0.058    20.236     6.681
     3   6 C        2.961     0.086    26.087     8.378
     4   7 N        2.798    -0.080    22.794     7.091
     5   6 C        2.919     0.140    24.945     8.190
     6   6 C        3.035    -0.056    29.360     8.888
     7   6 C        2.710     0.257    22.671     7.794
     8   8 O        0.857    -0.317    20.088     6.009
     9   7 N        2.676    -0.058    22.364     7.024
    10   6 C        3.693    -0.056    21.761     6.675
    11   6 C        1.785     0.348    23.520     7.839
    12   8 O        0.856    -0.097    16.475     5.442
    13   7 N        1.836    -0.244    27.223     7.732
    14   6 C        3.692    -0.031    21.314     6.606
    15   1 H        0.924     0.109     1.706     2.043
    16   1 H        0.925     0.095     1.833     2.117
    17   1 H        0.925     0.110     1.701     2.039
    18   1 H        0.926     0.114     1.661     2.015
    19   1 H        0.925     0.103     1.758     2.074
    20   1 H        0.924     0.100     1.786     2.090
    21   1 H        0.924     0.110     1.700     2.039
    22   1 H        0.925     0.087     1.909     2.161
    23   1 H        0.924     0.052     2.294     2.368
    24   1 H        0.924     0.025     2.658     2.550
    25   1 H        0.860     0.230     0.965     1.539

Wiberg/Mayer (AO) data.
largest (>0.10) Wiberg bond orders for each atom

     #   Z sym  total        # sym  WBO       # sym  WBO       # sym  WBO
 ---------------------------------------------------------------------------
     1   6 C    3.933 --     2 N    0.993    16 H    0.974    15 H    0.960
                            17 H    0.959
     2   7 N    3.688 --     3 C    1.445     6 C    1.042     1 C    0.993
                             4 N    0.131
     3   6 C    3.950 --     2 N    1.445     4 N    1.349    18 H    0.948
     4   7 N    3.588 --     3 C    1.349     5 C    1.047    25 H    0.919
                             2 N    0.131
     5   6 C    3.951 --    13 N    1.696     6 C    1.078     4 N    1.047
     6   6 C    3.873 --     7 C    1.360     5 C    1.078     2 N    1.042
                             8 O    0.148
     7   6 C    3.912 --     8 O    1.782     6 C    1.360     9 N    0.575
     8   8 O    2.237 --     7 C    1.782     6 C    0.148
     9   7 N    3.550 --    11 C    1.658    10 C    0.941     7 C    0.575
                            12 O    0.267
    10   6 C    3.910 --    20 H    0.973    19 H    0.970    21 H    0.963
                             9 N    0.941
    11   6 C    3.900 --    12 O    2.111     9 N    1.658
    12   8 O    2.494 --    11 C    2.111     9 N    0.267
    13   7 N    3.084 --     5 C    1.696    14 C    1.038
    14   6 C    3.973 --    13 N    1.038    22 H    0.969    24 H    0.968
                            23 H    0.956
    15   1 H    0.988 --     1 C    0.960
    16   1 H    0.990 --     1 C    0.974
    17   1 H    0.987 --     1 C    0.959
    18   1 H    0.985 --     3 C    0.948
    19   1 H    0.989 --    10 C    0.970
    20   1 H    0.989 --    10 C    0.973
    21   1 H    0.988 --    10 C    0.963
    22   1 H    0.988 --    14 C    0.969
    23   1 H    0.995 --    14 C    0.956
    24   1 H    0.997 --    14 C    0.968
    25   1 H    0.946 --     4 N    0.919
 ---------------------------------------------------------------------------

molecular dipole:
                 x           y           z       tot (Debye)
 q only:        1.205      -0.275      -0.850
   full:        1.209      -0.183      -0.820       3.741

           -------------------------------------------------
          | TOTAL ENERGY              -42.133812352142 Eh   |
          | GRADIENT NORM               0.003677272321 Eh/α |
          | HOMO-LUMO GAP               1.719422874375 eV   |
           -------------------------------------------------

 * finished run on 2024/06/05 at 19:58:08.663
