   * xtb version 6.6.1 (8d0f1dd) compiled by 'conda@1efc2f54142f' on 2023-08-01
          program call               : xtb xtbopt.xyz --opt crude --input .xc2 --gfn2

   ID    Z sym.   atoms
    1    6 C      1, 3, 5-7, 10, 11, 14
    2    7 N      2, 4, 9, 13
    3    8 O      8, 12
    4    1 H      15-25

          :  Hamiltonian                  GFN2-xTB          :
 * total energy  :   -42.0828664 Eh     change       -0.3900880E-11 Eh
   *** GEOMETRY OPTIMIZATION CONVERGED AFTER 1 ITERATIONS ***

 final structure:
================
25
 xtb: 6.6.1 (8d0f1dd)
C            3.10525981572688        0.98963321569433        0.25295134395298
N            2.21765680523264       -0.00035569649734        0.18606165276042
C            2.46311065525266       -1.33078118860995        0.18787972636215
N            1.29448576666608       -2.01407503771431        0.11523321285726
C            0.27265490181352       -1.10952385263631        0.06766350550388
C            0.83670473932663        0.15090896174726        0.10721713896828
C            0.03092536186309        1.35493269947232        0.06905779845549
O            0.45374839440936        2.48434966627234        0.08683027204732
N           -1.32708894112185        1.04281844534668        0.00485127140885
C           -2.26957803051542        2.15452803018359       -0.03761988355359
C           -1.91614389844541       -0.20583222442142       -0.03447080941370
O           -3.10131400881475       -0.36229691313218       -0.09530301753263
N           -1.04703520687783       -1.32625654806308        0.00107577880312
C           -1.61918818305380       -2.65711499827897       -0.04269373540845
H            4.14822166453529        0.75266633550469        0.33725237276821
H            5.08216367933439        2.36940819348678       -1.44586007826955
H            2.73778294471690        2.00092621793228        0.23483170415065
H            3.43275048633369       -1.78222759401705        0.23920539203349
H           -1.70102975330717        3.08047304139813       -0.03864879665525
H           -2.88164261092352        2.08221709381855       -0.93549512892982
H           -2.92548820615664        2.11392620362985        0.83093859402401
H           -1.36128462139044       -3.21499331243384        0.85772426590294
H           -1.27757919764064       -3.19213191790405       -0.92891479186746
H           -2.70141512401287       -2.54223374418868       -0.09124015612434
H            1.21375408114931       -3.02072653498937        0.10264398565580

          :  Hamiltonian                  GFN2-xTB          :
         :: total energy             -42.082866353716 Eh    ::
         :: gradient norm              0.003389337039 Eh/a0 ::
         :: HOMO-LUMO gap              0.281327954638 eV    ::
         :: SCC energy               -42.607472469771 Eh    ::
         :: -> dispersion             -0.022768918329 Eh    ::
         :: repulsion energy           0.524513075882 Eh    ::

    * Orbital Energies and Occupations

         #    Occupation            Energy/Eh            Energy/eV
      -------------------------------------------------------------
         1        2.0000           -0.9134831             -24.8571
       ...           ...                  ...                  ...
        25        2.0000           -0.6652849             -18.1033
        26        2.0000           -0.6617285             -18.0065
        27        2.0000           -0.6531021             -17.7718
        28        2.0000           -0.6419704             -17.4689
        29        2.0000           -0.6277511             -17.0820
        30        2.0000           -0.6231257             -16.9561
        31        2.0000           -0.6160770             -16.7643
        32        1.9999           -0.5933071             -16.1447
        33        1.9989           -0.5744404             -15.6313
        34        1.9910           -0.5580128             -15.1843
        35        1.9905           -0.5576053             -15.1732
        36        1.9871           -0.5552064             -15.1079
        37        1.3316           -0.5207672             -14.1708 (HOMO)
        38        0.7011           -0.5104286             -13.8895 (LUMO)
        39        0.0000           -0.4104910             -11.1700
        40        0.0000           -0.4013074             -10.9201
        41                         -0.3648524              -9.9281
        42                         -0.2822999              -7.6818
        43                         -0.2041206              -5.5544
        44                         -0.1881871              -5.1208
        45                         -0.1427827              -3.8853
        46                         -0.1116007              -3.0368
        47                         -0.0856340              -2.3302
        48                         -0.0496306              -1.3505
       ...                                ...                  ...
        67                          0.5653322              15.3835
      -------------------------------------------------------------
                  HL-Gap            0.0103386 Eh            0.2813 eV

     #   Z          covCN         q      C6AA      α(0)
     1   6 C        2.789    -0.063    29.556     8.905
     2   7 N        2.813     0.130    19.019     6.477
     3   6 C        3.037     0.033    27.222     8.558
     4   7 N        2.782    -0.055    22.308     7.015
     5   6 C        3.024     0.120    25.331     8.256
     6   6 C        3.109    -0.042    28.882     8.805
     7   6 C        2.764     0.275    22.345     7.741
     8   8 O        0.858    -0.371    21.103     6.159
     9   7 N        2.746    -0.087    22.926     7.111
    10   6 C        3.711    -0.062    21.827     6.676
    11   6 C        2.728     0.318    21.591     7.607
    12   8 O        0.859    -0.357    20.839     6.120
    13   7 N        2.738    -0.058    22.355     7.022
    14   6 C        3.696    -0.072    22.063     6.719
    15   1 H        0.926     0.111     1.684     2.029
    16   1 H        0.000     0.078     4.990     4.084
    17   1 H        0.926     0.146     1.419     1.863
    18   1 H        0.926     0.123     1.586     1.970
    19   1 H        0.925     0.112     1.682     2.028
    20   1 H        0.925     0.098     1.807     2.102
    21   1 H        0.925     0.097     1.812     2.105
    22   1 H        0.925     0.082     1.956     2.187
    23   1 H        0.925     0.082     1.956     2.187
    24   1 H        0.925     0.129     1.544     1.943
    25   1 H        0.860     0.230     0.965     1.538

Wiberg/Mayer (AO) data.
largest (>0.10) Wiberg bond orders for each atom

     #   Z sym  total        # sym  WBO       # sym  WBO       # sym  WBO
 ---------------------------------------------------------------------------
     1   6 C    3.427 --     2 N    1.325    15 H    0.964    17 H    0.955
     2   7 N    3.767 --     1 C    1.325     3 C    1.249     6 C    1.092
     3   6 C    3.676 --     4 N    1.267     2 N    1.249    18 H    0.954
     4   7 N    3.525 --     3 C    1.267     5 C    1.175    25 H    0.918
     5   6 C    3.947 --     6 C    1.364    13 N    1.230     4 N    1.175
     6   6 C    3.879 --     5 C    1.364     2 N    1.092     7 C    1.073
     7   6 C    3.965 --     8 O    1.698     9 N    1.100     6 C    1.073
     8   8 O    2.056 --     7 C    1.698     9 N    0.150
     9   7 N    3.558 --    11 C    1.130     7 C    1.100    10 C    0.968
                             8 O    0.150    12 O    0.141
    10   6 C    3.916 --    19 H    0.970     9 N    0.968    20 H    0.965
                            21 H    0.965
    11   6 C    3.960 --    12 O    1.718     9 N    1.130    13 N    1.021
    12   8 O    2.076 --    11 C    1.718     9 N    0.141    13 N    0.121
    13   7 N    3.550 --     5 C    1.230    11 C    1.021    14 C    0.975
                            12 O    0.121
    14   6 C    3.924 --    13 N    0.975    22 H    0.971    23 H    0.970
                            24 H    0.963
    15   1 H    0.987 --     1 C    0.964
    16   1 H    0.087
    17   1 H    0.979 --     1 C    0.955
    18   1 H    0.984 --     3 C    0.954
    19   1 H    0.987 --    10 C    0.970
    20   1 H    0.986 --    10 C    0.965
    21   1 H    0.986 --    10 C    0.965
    22   1 H    0.989 --    14 C    0.971
    23   1 H    0.989 --    14 C    0.970
    24   1 H    0.983 --    14 C    0.963
    25   1 H    0.946 --     4 N    0.918
 ---------------------------------------------------------------------------

molecular dipole:
                 x           y           z       tot (Debye)
 q only:        2.855      -1.947       0.012
   full:        3.167      -2.443       0.022      10.167

           -------------------------------------------------
          | TOTAL ENERGY              -42.082866353716 Eh   |
          | GRADIENT NORM               0.003389337039 Eh/α |
          | HOMO-LUMO GAP               0.281327954638 eV   |
           -------------------------------------------------

 * finished run on 2024/06/05 at 19:57:54.593
