   * xtb version 6.6.1 (8d0f1dd) compiled by 'conda@1efc2f54142f' on 2023-08-01
          program call               : xtb xtbopt.xyz --opt crude --input .xc2 --gfn2

   ID    Z sym.   atoms
    1    6 C      1, 3, 5-7, 10, 11, 14
    2    7 N      2, 4, 9, 13
    3    8 O      8, 12
    4    1 H      15-25

          :  Hamiltonian                  GFN2-xTB          :
 * total energy  :   -42.1318281 Eh     change       -0.1298162E-10 Eh
   *** GEOMETRY OPTIMIZATION CONVERGED AFTER 1 ITERATIONS ***

 final structure:
================
25
 xtb: 6.6.1 (8d0f1dd)
C            3.24422866582320        1.23943391678543        0.01905438870065
N            2.27499719261223        0.18110118106132        0.00022674105645
C            2.51358810128867       -1.15262217373896       -0.00611838498218
N            1.41398347108672       -1.87282676717850       -0.00686827623801
C            0.39927510520772       -0.98344101159779       -0.00002063035226
C            0.92012341767646        0.32089641257540        0.00520547912076
C            0.06625784836615        1.48411075498323       -0.00197599453034
O            0.43725832397049        2.63595190142429       -0.01196710311466
N           -1.28266138110411        1.12825508091233        0.00030167321097
C           -2.26281781122772        2.20002428022764       -0.00268837438607
C           -1.81856509233456       -0.15385309890166        0.00287454542038
O           -3.00823641785591       -0.33567686243524        0.00581936207210
N           -0.92383529122492       -1.22917377511577        0.00062635305361
C           -1.43112131124822       -2.57960255799195       -0.00221878810198
H            3.75266057215835        1.26951820101914        0.98510245231154
H            3.99048718098801        1.07971516575856       -0.75959176127532
H            2.73905354597176        2.19040258857738       -0.14339439962738
H            3.50091134549453       -1.57114383277379       -0.01102642221405
H           -1.73314776108844        3.15045086272934        0.00471854760609
H           -2.89456651678605        2.12458482012461       -0.88956970614522
H           -2.90740337002930        2.11663159999688        0.87407303020290
H           -1.06812130065315       -3.11067204071028        0.87922931811874
H           -1.08351047894548       -3.10177280389506       -0.89521457228269
H           -2.51931949330926       -2.54037806132049        0.00692639893272
H            0.84091296926300       -4.67167523891543       -0.02233225865663

          :  Hamiltonian                  GFN2-xTB          :
         :: total energy             -42.131828109168 Eh    ::
         :: gradient norm              0.002707285942 Eh/a0 ::
         :: HOMO-LUMO gap              0.713172285748 eV    ::
         :: SCC energy               -42.643093337597 Eh    ::
         :: -> dispersion             -0.022585446836 Eh    ::
         :: repulsion energy           0.511170375057 Eh    ::

    * Orbital Energies and Occupations

         #    Occupation            Energy/Eh            Energy/eV
      -------------------------------------------------------------
         1        2.0000           -0.8939614             -24.3259
       ...           ...                  ...                  ...
        25        1.9995           -0.6677122             -18.1694
        26        1.9992           -0.6589038             -17.9297
        27        1.9983           -0.6472659             -17.6130
        28        1.9975           -0.6414371             -17.4544
        29        1.9953           -0.6316641             -17.1885
        30        1.9889           -0.6178855             -16.8135
        31        1.9878           -0.6163431             -16.7715
        32        1.9771           -0.6063686             -16.5001
        33        1.9647           -0.5993757             -16.3098
        34        1.9167           -0.5853997             -15.9295
        35        1.8824           -0.5796576             -15.7733
        36        1.8776           -0.5789793             -15.7548
        37        1.5786           -0.5566640             -15.1476 (HOMO)
        38        0.8343           -0.5304554             -14.4344 (LUMO)
        39        0.0029           -0.4324010             -11.7662
        40        0.0002           -0.3909872             -10.6393
        41        0.0001           -0.3750538             -10.2057
        42        0.0000           -0.2964059              -8.0656
        43                         -0.2077335              -5.6527
        44                         -0.1595749              -4.3423
        45                         -0.1393569              -3.7921
        46                         -0.0801381              -2.1807
        47                         -0.0606147              -1.6494
        48                         -0.0400256              -1.0892
       ...                                ...                  ...
        67                          0.5334101              14.5148
      -------------------------------------------------------------
                  HL-Gap            0.0262086 Eh            0.7132 eV

     #   Z          covCN         q      C6AA      α(0)
     1   6 C        3.689    -0.082    22.273     6.754
     2   7 N        2.829     0.053    20.322     6.695
     3   6 C        3.185     0.099    25.389     8.222
     4   7 N        1.897    -0.206    26.301     7.603
     5   6 C        3.167     0.133    24.772     8.133
     6   6 C        3.118    -0.007    28.016     8.669
     7   6 C        2.763     0.274    22.369     7.746
     8   8 O        0.858    -0.329    20.318     6.043
     9   7 N        2.746    -0.068    22.563     7.055
    10   6 C        3.708    -0.062    21.845     6.680
    11   6 C        2.729     0.317    21.615     7.611
    12   8 O        0.860    -0.331    20.350     6.048
    13   7 N        2.739    -0.020    21.631     6.908
    14   6 C        3.700    -0.073    22.069     6.718
    15   1 H        0.924     0.111     1.690     2.033
    16   1 H        0.924     0.108     1.712     2.046
    17   1 H        0.925     0.126     1.563     1.955
    18   1 H        0.926     0.112     1.677     2.025
    19   1 H        0.925     0.123     1.589     1.971
    20   1 H        0.924     0.116     1.647     2.007
    21   1 H        0.924     0.116     1.645     2.006
    22   1 H        0.924     0.110     1.698     2.038
    23   1 H        0.924     0.110     1.697     2.037
    24   1 H        0.925     0.130     1.538     1.939
    25   1 H        0.000     0.142     3.611     3.475

Wiberg/Mayer (AO) data.
largest (>0.10) Wiberg bond orders for each atom

     #   Z sym  total        # sym  WBO       # sym  WBO       # sym  WBO
 ---------------------------------------------------------------------------
     1   6 C    3.902 --     2 N    0.995    17 H    0.959    16 H    0.956
                            15 H    0.947
     2   7 N    3.637 --     3 C    1.269     6 C    1.217     1 C    0.995
     3   6 C    3.865 --     4 N    1.485     2 N    1.269    18 H    0.954
     4   7 N    2.973 --     3 C    1.485     5 C    1.269
     5   6 C    3.898 --     4 N    1.269     6 C    1.254    13 N    1.207
     6   6 C    3.796 --     5 C    1.254     2 N    1.217     7 C    1.075
     7   6 C    3.946 --     8 O    1.674     9 N    1.100     6 C    1.075
     8   8 O    1.961 --     7 C    1.674     9 N    0.127
     9   7 N    3.500 --    11 C    1.107     7 C    1.100    10 C    0.979
                             8 O    0.127    12 O    0.117
    10   6 C    3.867 --     9 N    0.979    19 H    0.959    21 H    0.943
                            20 H    0.943
    11   6 C    3.951 --    12 O    1.684     9 N    1.107    13 N    1.069
    12   8 O    1.973 --    11 C    1.684     9 N    0.117    13 N    0.102
    13   7 N    3.483 --     5 C    1.207    11 C    1.069    14 C    0.983
                            12 O    0.102
    14   6 C    3.886 --    13 N    0.983    24 H    0.960    22 H    0.947
                            23 H    0.947
    15   1 H    0.973 --     1 C    0.947
    16   1 H    0.978 --     1 C    0.956
    17   1 H    0.978 --     1 C    0.959
    18   1 H    0.985 --     3 C    0.954
    19   1 H    0.978 --    10 C    0.959
    20   1 H    0.960 --    10 C    0.943
    21   1 H    0.960 --    10 C    0.943
    22   1 H    0.966 --    14 C    0.947
    23   1 H    0.966 --    14 C    0.947
    24   1 H    0.979 --    14 C    0.960
    25   1 H    0.028
 ---------------------------------------------------------------------------

molecular dipole:
                 x           y           z       tot (Debye)
 q only:        1.433      -1.496       0.008
   full:        1.703      -1.377       0.015       5.566

           -------------------------------------------------
          | TOTAL ENERGY              -42.131828109168 Eh   |
          | GRADIENT NORM               0.002707285942 Eh/α |
          | HOMO-LUMO GAP               0.713172285748 eV   |
           -------------------------------------------------

 * finished run on 2024/06/05 at 19:59:08.285
