   * xtb version 6.6.1 (8d0f1dd) compiled by 'conda@1efc2f54142f' on 2023-08-01
          program call               : xtb struc.xyz --opt loose --input .xc1 --gfn2

   ID    Z sym.   atoms
    1    6 C      1, 3, 5-7, 10, 11, 14
    2    7 N      2, 4, 9, 13
    3    8 O      8, 12
    4    1 H      15-25
constraining bond 4 14 to    5.9200000 Å, actual value:    2.9945428 Å

          :  Hamiltonian                  GFN2-xTB          :
 * total energy  :   -26.9641642 Eh     change       -0.6633627E-10 Eh
 * total energy  :   -32.0896042 Eh     change       -0.5125440E+01 Eh
 * total energy  :   -35.6712373 Eh     change       -0.3581633E+01 Eh
 * total energy  :   -38.3882373 Eh     change       -0.2717000E+01 Eh
 * total energy  :   -40.3800679 Eh     change       -0.1991831E+01 Eh
 * total energy  :   -41.3197620 Eh     change       -0.9396941E+00 Eh
 * total energy  :   -41.5135923 Eh     change       -0.1938303E+00 Eh
 * total energy  :   -41.5447400 Eh     change       -0.3114776E-01 Eh
 * total energy  :   -41.5793173 Eh     change       -0.3457731E-01 Eh
 * total energy  :   -41.6022008 Eh     change       -0.2288347E-01 Eh
 * total energy  :   -42.1052267 Eh     change       -0.1556288E-02 Eh
 * total energy  :   -42.1045545 Eh     change        0.6721594E-03 Eh
 * total energy  :   -42.1094328 Eh     change       -0.4878316E-02 Eh
 * total energy  :   -42.1095780 Eh     change       -0.1451220E-03 Eh
 * total energy  :   -42.1107553 Eh     change       -0.1177365E-02 Eh
 * total energy  :   -42.1108196 Eh     change       -0.6425786E-04 Eh
 * total energy  :   -42.1110269 Eh     change       -0.2072971E-03 Eh
 * total energy  :   -42.1111031 Eh     change       -0.7626077E-04 Eh
 * total energy  :   -42.1111395 Eh     change       -0.3631034E-04 Eh
   *** GEOMETRY OPTIMIZATION CONVERGED AFTER 46 ITERATIONS ***

 final structure:
================
25
 xtb: 6.6.1 (8d0f1dd)
C            3.35119564389382        1.51334818459588        0.02586122511740
N            2.65246001898190        0.24922143000532       -0.00529479544184
C            3.26869017995689       -0.94604568030265       -0.03574579705072
N            2.68175005440283       -2.06919073859508       -0.04398772738630
C            0.80918687942286       -1.17424540165104        0.00976633233002
C            1.28655784228210        0.07870769987852        0.02204685600799
C            0.24879288625101        1.12986904835143        0.00691140123412
O            0.48493701766376        2.30910827318489       -0.00336603702345
N           -1.05083448298307        0.62123239032431        0.00309581435425
C           -2.13999873769243        1.58682810081075       -0.01061788855618
C           -1.36241170585902       -0.71070415067503        0.00094826179312
O           -2.64350876675262       -0.94323701246265        0.00079308706747
N           -0.41707547466631       -1.62707444543113        0.00466184329631
C           -3.23077120628512       -2.25026006361545       -0.01129596178295
H            3.83785468196091        1.65415884974659        0.99212364186376
H            4.10294214295204        1.54293996805097       -0.76161719283717
H            2.63640581359190        2.31878273487436       -0.12754900115861
H            4.34925360744826       -0.97197524175441       -0.09809895425962
H           -1.70485060557279        2.58438159306374       -0.00740107571622
H           -2.74711052363639        1.44874390761569       -0.90400292713611
H           -2.76674869587890        1.45094855255895        0.86939879094781
H           -2.89268797332071       -2.82734721981192        0.84991938284982
H           -2.97158920629589       -2.78015268336882       -0.92823620874608
H           -4.30121270624155       -2.07312205048032        0.03970332555214
H            1.67920483047689       -2.29667750331230        0.14315522258093

          :  Hamiltonian                  GFN2-xTB          :
         :: total energy             -42.111139452572 Eh    ::
         :: gradient norm              0.003555146240 Eh/a0 ::
         :: HOMO-LUMO gap              2.217952727368 eV    ::
         :: SCC energy               -42.634909653680 Eh    ::
         :: -> dispersion             -0.021599359473 Eh    ::
         :: repulsion energy           0.523694506382 Eh    ::

    * Orbital Energies and Occupations

         #    Occupation            Energy/Eh            Energy/eV
      -------------------------------------------------------------
         1        2.0000           -0.9141282             -24.8747
       ...           ...                  ...                  ...
        25        2.0000           -0.6717141             -18.2783
        26        2.0000           -0.6634823             -18.0543
        27        2.0000           -0.6463306             -17.5876
        28        2.0000           -0.6335046             -17.2385
        29        2.0000           -0.6255237             -17.0214
        30        2.0000           -0.6240664             -16.9817
        31        2.0000           -0.6187601             -16.8373
        32        2.0000           -0.6093887             -16.5823
        33        2.0000           -0.6007777             -16.3480
        34        1.9999           -0.5852016             -15.9241
        35        1.9998           -0.5828767             -15.8609
        36        1.9998           -0.5795366             -15.7700
        37        1.9886           -0.5488126             -14.9340 (HOMO)
        38        0.0118           -0.4673043             -12.7160 (LUMO)
        39        0.0001           -0.4320210             -11.7559
        40        0.0000           -0.4090051             -11.1296
        41        0.0000           -0.3853450             -10.4858
        42                         -0.2943984              -8.0110
        43                         -0.1998588              -5.4384
        44                         -0.1659782              -4.5165
        45                         -0.1403377              -3.8188
        46                         -0.0730105              -1.9867
        47                         -0.0529678              -1.4413
        48                         -0.0157940              -0.4298
       ...                                ...                  ...
        67                          0.5467612              14.8781
      -------------------------------------------------------------
                  HL-Gap            0.0815083 Eh            2.2180 eV

     #   Z          covCN         q      C6AA      α(0)
     1   6 C        3.692    -0.085    22.317     6.760
     2   7 N        2.753     0.020    20.900     6.790
     3   6 C        2.866     0.122    25.323     8.249
     4   7 N        1.995    -0.221    26.616     7.651
     5   6 C        2.742     0.092    25.936     8.338
     6   6 C        2.991     0.012    27.749     8.641
     7   6 C        2.787     0.280    22.267     7.729
     8   8 O        0.858    -0.347    20.654     6.093
     9   7 N        2.744    -0.062    22.438     7.035
    10   6 C        3.704    -0.070    22.007     6.707
    11   6 C        2.827     0.306    21.817     7.654
    12   8 O        1.707    -0.181    17.038     5.573
    13   7 N        1.833    -0.235    27.004     7.701
    14   6 C        3.634     0.003    20.914     6.582
    15   1 H        0.924     0.094     1.842     2.122
    16   1 H        0.925     0.094     1.840     2.121
    17   1 H        0.925     0.126     1.564     1.956
    18   1 H        0.925     0.147     1.415     1.860
    19   1 H        0.925     0.123     1.591     1.972
    20   1 H        0.925     0.100     1.783     2.088
    21   1 H        0.925     0.101     1.780     2.087
    22   1 H        0.924     0.094     1.841     2.122
    23   1 H        0.924     0.095     1.830     2.115
    24   1 H        0.925     0.117     1.641     2.004
    25   1 H        1.323     0.278     0.773     1.372

Wiberg/Mayer (AO) data.
largest (>0.10) Wiberg bond orders for each atom

     #   Z sym  total        # sym  WBO       # sym  WBO       # sym  WBO
 ---------------------------------------------------------------------------
     1   6 C    3.923 --     2 N    0.979    16 H    0.970    15 H    0.966
                            17 H    0.960
     2   7 N    3.625 --     3 C    1.262     6 C    1.118     1 C    0.979
                             4 N    0.146
     3   6 C    3.955 --     4 N    1.685     2 N    1.262    18 H    0.906
     4   7 N    3.132 --     3 C    1.685    25 H    0.659     5 C    0.425
                             2 N    0.146
     5   6 C    3.902 --     6 C    1.536    13 N    1.397     4 N    0.425
                            25 H    0.236
     6   6 C    3.962 --     5 C    1.536     2 N    1.118     7 C    1.004
     7   6 C    3.962 --     8 O    1.706     9 N    1.107     6 C    1.004
     8   8 O    2.123 --     7 C    1.706     9 N    0.152
     9   7 N    3.607 --    11 C    1.190     7 C    1.107    10 C    0.965
                             8 O    0.152
    10   6 C    3.912 --    19 H    0.966    20 H    0.965    21 H    0.965
                             9 N    0.965
    11   6 C    3.948 --    13 N    1.337    12 O    1.221     9 N    1.190
    12   8 O    2.377 --    11 C    1.221    14 C    0.921
    13   7 N    3.144 --     5 C    1.397    11 C    1.337
    14   6 C    3.872 --    22 H    0.972    24 H    0.972    23 H    0.971
                            12 O    0.921
    15   1 H    0.989 --     1 C    0.966
    16   1 H    0.990 --     1 C    0.970
    17   1 H    0.984 --     1 C    0.960
    18   1 H    0.975 --     3 C    0.906
    19   1 H    0.985 --    10 C    0.966
    20   1 H    0.989 --    10 C    0.965
    21   1 H    0.989 --    10 C    0.965
    22   1 H    0.990 --    14 C    0.972
    23   1 H    0.990 --    14 C    0.971
    24   1 H    0.986 --    14 C    0.972
    25   1 H    0.923 --     4 N    0.659     5 C    0.236
 ---------------------------------------------------------------------------

molecular dipole:
                 x           y           z       tot (Debye)
 q only:        0.554      -1.032       0.056
   full:        0.654      -0.994       0.108       3.037

           -------------------------------------------------
          | TOTAL ENERGY              -42.111139452572 Eh   |
          | GRADIENT NORM               0.003555146240 Eh/α |
          | HOMO-LUMO GAP               2.217952727368 eV   |
           -------------------------------------------------

 * finished run on 2024/06/05 at 19:57:57.173
