   * xtb version 6.6.1 (8d0f1dd) compiled by 'conda@1efc2f54142f' on 2023-08-01
          program call               : xtb xtbopt.xyz --opt crude --input .xc2 --gfn2

   ID    Z sym.   atoms
    1    6 C      1, 3, 5-7, 10, 11, 14
    2    7 N      2, 4, 9, 13
    3    8 O      8, 12
    4    1 H      15-25
########################################################################
[WARNING] Please study the warnings concerning your input carefully
-1- readin_getIntValue: could not parse ''
########################################################################

          :  Hamiltonian                  GFN2-xTB          :
 * total energy  :   -42.1111775 Eh     change        0.2131628E-13 Eh
 * total energy  :   -42.1125188 Eh     change       -0.1341338E-02 Eh
 * total energy  :   -42.1157714 Eh     change       -0.3252556E-02 Eh
 * total energy  :   -42.1221308 Eh     change       -0.6359397E-02 Eh
 * total energy  :   -42.1322938 Eh     change       -0.1016297E-01 Eh
 * total energy  :   -42.1460020 Eh     change       -0.1370826E-01 Eh
 * total energy  :   -42.0993607 Eh     change        0.4664130E-01 Eh
 * total energy  :   -42.1714239 Eh     change       -0.7206318E-01 Eh
 * total energy  :   -42.1892731 Eh     change       -0.1784918E-01 Eh
 * total energy  :   -42.2056852 Eh     change       -0.1641214E-01 Eh
 * total energy  :   -42.2136404 Eh     change       -0.7955231E-02 Eh
 * total energy  :   -42.2256804 Eh     change       -0.1204000E-01 Eh
 * total energy  :   -42.2331560 Eh     change       -0.7475527E-02 Eh
 * total energy  :   -42.2372589 Eh     change       -0.4102911E-02 Eh
 * total energy  :   -42.2402110 Eh     change       -0.2952127E-02 Eh
 * total energy  :   -42.2414552 Eh     change       -0.1244200E-02 Eh
 * total energy  :   -42.2419762 Eh     change       -0.5209732E-03 Eh
 * total energy  :   -42.2421356 Eh     change       -0.1594009E-03 Eh
   *** GEOMETRY OPTIMIZATION CONVERGED AFTER 18 ITERATIONS ***

 final structure:
================
25
 xtb: 6.6.1 (8d0f1dd)
C            3.38270130366675        1.46161738321468       -0.00731865892530
N            2.57987482471316        0.26636873763056        0.01084359527813
C            3.01381733670947       -0.98483093557531        0.03668997582860
N            1.97690349692012       -1.83702451846140        0.03727109707053
C            0.82551697823545       -1.10380946674030        0.01902048257730
C            1.20907021233151        0.23401183015532        0.00320298501035
C            0.21480708766726        1.28414417628020       -0.02063138124413
O            0.41494848511106        2.47233825024920       -0.04391007576218
N           -1.08048866824304        0.73412010461535       -0.00845465834930
C           -2.20276370469750        1.65800439512556        0.01492196556798
C           -1.34589015809846       -0.60353907800972       -0.00702722248834
O           -2.61547757142109       -0.90631897363228       -0.02120597865660
N           -0.43112441216946       -1.54605907884021        0.01212084671897
C           -2.97116880579327       -2.28609893145257       -0.02928521308821
H            3.97036805668885        1.53969239847515        0.90803879752536
H            4.06221838665142        1.44715720307313       -0.85954289469529
H            2.72136337583651        2.32347690982468       -0.08387806995304
H            4.04673213278321       -1.27813981698415        0.05120680874217
H           -1.80217598467554        2.66942306895587        0.02967405408185
H           -2.82405576647373        1.51731099526946       -0.86829776993089
H           -2.80662501500630        1.48189841370294        0.90329959945493
H           -2.55019850590525       -2.79699050020834        0.83771219637900
H           -2.60651229645052       -2.77195941790714       -0.93610226263876
H           -4.05901754435810       -2.30694910842583        0.00330894284265
H            2.03760827007791       -2.84960549873433        0.04951445655410

          :  Hamiltonian                  GFN2-xTB          :
         :: total energy             -42.242135569773 Eh    ::
         :: gradient norm              0.006873373913 Eh/a0 ::
         :: HOMO-LUMO gap              3.273657074737 eV    ::
         :: SCC energy               -42.763408271082 Eh    ::
         :: -> dispersion             -0.022033333135 Eh    ::
         :: repulsion energy           0.521215126802 Eh    ::

    * Orbital Energies and Occupations

         #    Occupation            Energy/Eh            Energy/eV
      -------------------------------------------------------------
         1        2.0000           -0.9029012             -24.5692
       ...           ...                  ...                  ...
        25        2.0000           -0.6648748             -18.0922
        26        2.0000           -0.6528027             -17.7637
        27        2.0000           -0.6465647             -17.5939
        28        2.0000           -0.6372559             -17.3406
        29        2.0000           -0.6316548             -17.1882
        30        2.0000           -0.6132198             -16.6866
        31        2.0000           -0.6083762             -16.5548
        32        2.0000           -0.6001650             -16.3313
        33        2.0000           -0.5973012             -16.2534
        34        1.9999           -0.5668283             -15.4242
        35        1.9999           -0.5634626             -15.3326
        36        1.9997           -0.5559594             -15.1284
        37        1.9992           -0.5477334             -14.9046 (HOMO)
        38        0.0012           -0.4274287             -11.6309 (LUMO)
        39        0.0000           -0.4015444             -10.9266
        40        0.0000           -0.3686237             -10.0308
        41                         -0.2742192              -7.4619
        42                         -0.1884532              -5.1281
        43                         -0.1743278              -4.7437
        44                         -0.1355677              -3.6890
        45                         -0.1102305              -2.9995
        46                         -0.0660178              -1.7964
        47                         -0.0356490              -0.9701
        48                         -0.0207039              -0.5634
       ...                                ...                  ...
        67                          0.5471369              14.8884
      -------------------------------------------------------------
                  HL-Gap            0.1203047 Eh            3.2737 eV

     #   Z          covCN         q      C6AA      α(0)
     1   6 C        3.691    -0.093    22.479     6.784
     2   7 N        2.835     0.086    19.745     6.600
     3   6 C        3.073     0.062    26.534     8.446
     4   7 N        2.799    -0.050    22.196     6.997
     5   6 C        3.128     0.144    24.698     8.137
     6   6 C        3.132    -0.030    28.530     8.744
     7   6 C        2.768     0.275    22.346     7.742
     8   8 O        0.858    -0.374    21.160     6.167
     9   7 N        2.748    -0.071    22.620     7.064
    10   6 C        3.703    -0.067    21.945     6.698
    11   6 C        2.842     0.304    21.842     7.659
    12   8 O        1.708    -0.188    17.142     5.590
    13   7 N        1.832    -0.300    28.627     7.929
    14   6 C        3.657     0.005    20.788     6.544
    15   1 H        0.924     0.107     1.723     2.053
    16   1 H        0.925     0.106     1.735     2.060
    17   1 H        0.925     0.135     1.500     1.915
    18   1 H        0.926     0.126     1.569     1.959
    19   1 H        0.925     0.117     1.634     1.999
    20   1 H        0.925     0.093     1.847     2.125
    21   1 H        0.925     0.092     1.857     2.131
    22   1 H        0.924     0.087     1.905     2.158
    23   1 H        0.924     0.087     1.907     2.160
    24   1 H        0.925     0.108     1.716     2.049
    25   1 H        0.860     0.238     0.931     1.512

Wiberg/Mayer (AO) data.
largest (>0.10) Wiberg bond orders for each atom

     #   Z sym  total        # sym  WBO       # sym  WBO       # sym  WBO
 ---------------------------------------------------------------------------
     1   6 C    3.918 --     2 N    0.983    17 H    0.963    16 H    0.962
                            15 H    0.959
     2   7 N    3.727 --     3 C    1.416     6 C    1.170     1 C    0.983
     3   6 C    3.936 --     2 N    1.416     4 N    1.316    18 H    0.951
     4   7 N    3.627 --     3 C    1.316     5 C    1.180    25 H    0.915
     5   6 C    3.964 --     6 C    1.334    13 N    1.269     4 N    1.180
     6   6 C    3.942 --     5 C    1.334     2 N    1.170     7 C    1.086
     7   6 C    3.963 --     8 O    1.701     6 C    1.086     9 N    1.075
     8   8 O    2.073 --     7 C    1.701     9 N    0.152
     9   7 N    3.600 --    11 C    1.202     7 C    1.075    10 C    0.972
                             8 O    0.152
    10   6 C    3.924 --     9 N    0.972    19 H    0.968    21 H    0.967
                            20 H    0.967
    11   6 C    3.951 --    13 N    1.385    12 O    1.210     9 N    1.202
    12   8 O    2.372 --    11 C    1.210    14 C    0.933
    13   7 N    3.015 --    11 C    1.385     5 C    1.269
    14   6 C    3.886 --    24 H    0.975    22 H    0.973    23 H    0.972
                            12 O    0.933
    15   1 H    0.988 --     1 C    0.959
    16   1 H    0.988 --     1 C    0.962
    17   1 H    0.982 --     1 C    0.963
    18   1 H    0.983 --     3 C    0.951
    19   1 H    0.986 --    10 C    0.968
    20   1 H    0.990 --    10 C    0.967
    21   1 H    0.990 --    10 C    0.967
    22   1 H    0.992 --    14 C    0.973
    23   1 H    0.992 --    14 C    0.972
    24   1 H    0.988 --    14 C    0.975
    25   1 H    0.943 --     4 N    0.915
 ---------------------------------------------------------------------------

molecular dipole:
                 x           y           z       tot (Debye)
 q only:        1.880      -1.689       0.046
   full:        2.183      -1.916       0.054       7.384

           -------------------------------------------------
          | TOTAL ENERGY              -42.242135569773 Eh   |
          | GRADIENT NORM               0.006873373913 Eh/α |
          | HOMO-LUMO GAP               3.273657074737 eV   |
           -------------------------------------------------

 * finished run on 2024/06/05 at 19:57:58.384
