   * xtb version 6.6.1 (8d0f1dd) compiled by 'conda@1efc2f54142f' on 2023-08-01
          program call               : xtb struc.xyz --opt loose --input .xc1 --gfn2

   ID    Z sym.   atoms
    1    6 C      1, 3, 5-7, 10, 11, 14
    2    7 N      2, 4, 9, 13
    3    8 O      8, 12
    4    1 H      15-25
constraining bond 13 24 to    4.0600000 Å, actual value:    2.0566599 Å

          :  Hamiltonian                  GFN2-xTB          :
 * total energy  :   -27.9158508 Eh     change       -0.6650680E-10 Eh
 * total energy  :   -34.9875555 Eh     change       -0.7071705E+01 Eh
 * total energy  :   -39.0794525 Eh     change       -0.4091897E+01 Eh
 * total energy  :   -41.1522805 Eh     change       -0.2072828E+01 Eh
 * total energy  :   -41.6807442 Eh     change       -0.5284637E+00 Eh
 * total energy  :   -41.7267467 Eh     change       -0.4600247E-01 Eh
 * total energy  :   -41.7217426 Eh     change        0.5004043E-02 Eh
 * total energy  :   -41.7616268 Eh     change       -0.3988420E-01 Eh
 * total energy  :   -41.8293613 Eh     change       -0.6773446E-01 Eh
 * total energy  :   -41.8743408 Eh     change       -0.4497947E-01 Eh
 * total energy  :   -42.1032723 Eh     change       -0.5039329E-03 Eh
 * total energy  :   -42.1035702 Eh     change       -0.2979087E-03 Eh
 * total energy  :   -42.1034057 Eh     change        0.1645013E-03 Eh
 * total energy  :   -42.1037294 Eh     change       -0.3236949E-03 Eh
 * total energy  :   -42.1037936 Eh     change       -0.6422544E-04 Eh
 * total energy  :   -42.1038793 Eh     change       -0.8569257E-04 Eh
 * total energy  :   -42.1039137 Eh     change       -0.3434365E-04 Eh
 * total energy  :   -42.1039375 Eh     change       -0.2381715E-04 Eh
 * total energy  :   -42.1039577 Eh     change       -0.2025534E-04 Eh
   *** GEOMETRY OPTIMIZATION CONVERGED AFTER 53 ITERATIONS ***

 final structure:
================
25
 xtb: 6.6.1 (8d0f1dd)
C            3.28892251798450        1.26065205913431        0.08329707616030
N            2.37819017718695        0.14750350348866        0.03665858907980
C            2.70092981122191       -1.14123084700403        0.03201469917370
N            1.58467167572478       -1.89828191034772       -0.00115373636712
C            0.50310462421043       -1.05212532591116       -0.01781258926245
C            1.00767170151619        0.24298706969745        0.00550996746967
C            0.15123337505364        1.40802652256210       -0.01159156887929
O            0.51849994367238        2.56079812178506       -0.00035314490117
N           -1.19908289255549        1.04032117312865       -0.04594757672116
C           -2.18113360033045        2.12025290466023       -0.08076522697710
C           -1.74256607720532       -0.21394139634385       -0.04851120409116
O           -2.91827565146004       -0.43500481358278       -0.05831192103983
N           -0.81832569227211       -1.34269755243949       -0.04224702209609
C           -1.34168297613017       -2.57861904832520       -0.05954108779954
H            3.86929098871052        1.23494839611248        1.00590665458989
H            3.97435493142420        1.22534779233477       -0.76312240800476
H            2.71284599865065        2.18464621001638        0.04620586379086
H            3.70076102795108       -1.52869744416682        0.05013013053451
H           -1.64280313821944        3.06449519167735       -0.07373556895241
H           -2.78685318405400        2.03686658644170       -0.98187907587191
H           -2.83666590601723        2.05161882586676        0.78614063919952
H           -0.70181980074642       -3.43710043724428       -0.07381499648346
H           -2.41920653866210       -2.67757233516974       -0.04815671795272
H           -4.20965075206204       -3.54731851993006        0.30326552264413
H            1.56802095050725       -2.90763618484045       -0.01101367934196

          :  Hamiltonian                  GFN2-xTB          :
         :: total energy             -42.103957738299 Eh    ::
         :: gradient norm              0.001406828803 Eh/a0 ::
         :: HOMO-LUMO gap              0.067640383916 eV    ::
         :: SCC energy               -42.626262666252 Eh    ::
         :: -> dispersion             -0.022783549522 Eh    ::
         :: repulsion energy           0.522229775769 Eh    ::

    * Orbital Energies and Occupations

         #    Occupation            Energy/Eh            Energy/eV
      -------------------------------------------------------------
         1        2.0000           -0.9170159             -24.9533
       ...           ...                  ...                  ...
        25        2.0000           -0.6689635             -18.2034
        26        2.0000           -0.6684024             -18.1882
        27        2.0000           -0.6597370             -17.9524
        28        1.9999           -0.6356252             -17.2962
        29        1.9998           -0.6328091             -17.2196
        30        1.9998           -0.6283515             -17.0983
        31        1.9997           -0.6197892             -16.8653
        32        1.9987           -0.5989862             -16.2992
        33        1.9976           -0.5893403             -16.0368
        34        1.9969           -0.5851708             -15.9233
        35        1.9882           -0.5640360             -15.3482
        36        1.9874           -0.5629881             -15.3197
        37        0.9986           -0.4827534             -13.1364 (HOMO)
        38        0.9203           -0.4802677             -13.0687 (LUMO)
        39        0.1008           -0.4363153             -11.8727
        40        0.0103           -0.3994891             -10.8707
        41        0.0020           -0.3733076             -10.1582
        42        0.0000           -0.2884549              -7.8493
        43                         -0.2130855              -5.7984
        44                         -0.2010485              -5.4708
        45                         -0.1508654              -4.1053
        46                         -0.1345698              -3.6618
        47                         -0.0673650              -1.8331
        48                         -0.0400773              -1.0906
       ...                                ...                  ...
        67                          0.5568049              15.1514
      -------------------------------------------------------------
                  HL-Gap            0.0024857 Eh            0.0676 eV

     #   Z          covCN         q      C6AA      α(0)
     1   6 C        3.691    -0.097    22.539     6.793
     2   7 N        2.831     0.084    19.776     6.605
     3   6 C        3.051     0.054    26.746     8.482
     4   7 N        2.789    -0.057    22.342     7.020
     5   6 C        3.039     0.093    25.909     8.349
     6   6 C        3.113    -0.016    28.260     8.708
     7   6 C        2.763     0.267    22.499     7.768
     8   8 O        0.858    -0.366    21.015     6.146
     9   7 N        2.744    -0.079    22.775     7.088
    10   6 C        3.714    -0.064    21.864     6.681
    11   6 C        2.734     0.311    21.719     7.630
    12   8 O        0.859    -0.339    20.497     6.070
    13   7 N        2.735     0.009    21.103     6.823
    14   6 C        2.797    -0.058    29.436     8.888
    15   1 H        0.924     0.109     1.708     2.044
    16   1 H        0.925     0.108     1.713     2.047
    17   1 H        0.925     0.139     1.466     1.893
    18   1 H        0.926     0.127     1.554     1.950
    19   1 H        0.925     0.116     1.645     2.005
    20   1 H        0.925     0.098     1.804     2.100
    21   1 H        0.925     0.099     1.795     2.095
    22   1 H        0.926     0.086     1.921     2.167
    23   1 H        0.925     0.133     1.509     1.921
    24   1 H        0.000     0.014     7.031     4.849
    25   1 H        0.860     0.229     0.969     1.542

Wiberg/Mayer (AO) data.
largest (>0.10) Wiberg bond orders for each atom

     #   Z sym  total        # sym  WBO       # sym  WBO       # sym  WBO
 ---------------------------------------------------------------------------
     1   6 C    3.912 --     2 N    0.984    16 H    0.960    17 H    0.959
                            15 H    0.958
     2   7 N    3.671 --     3 C    1.385     6 C    1.165     1 C    0.984
     3   6 C    3.840 --     2 N    1.385     4 N    1.288    18 H    0.952
     4   7 N    3.553 --     3 C    1.288     5 C    1.165    25 H    0.918
     5   6 C    3.884 --     6 C    1.338     4 N    1.165    13 N    1.165
     6   6 C    3.857 --     5 C    1.338     2 N    1.165     7 C    1.075
     7   6 C    3.916 --     8 O    1.674     9 N    1.080     6 C    1.075
     8   8 O    1.987 --     7 C    1.674     9 N    0.138
     9   7 N    3.569 --    11 C    1.170     7 C    1.080    10 C    0.963
                            12 O    0.152     8 O    0.138
    10   6 C    3.911 --    19 H    0.968    20 H    0.966    21 H    0.966
                             9 N    0.963
    11   6 C    3.924 --    12 O    1.726     9 N    1.170    13 N    0.933
    12   8 O    2.054 --    11 C    1.726     9 N    0.152
    13   7 N    3.622 --    14 C    1.300     5 C    1.165    11 C    0.933
    14   6 C    3.315 --    13 N    1.300    22 H    0.969    23 H    0.934
    15   1 H    0.985 --     1 C    0.958
    16   1 H    0.985 --     1 C    0.960
    17   1 H    0.980 --     1 C    0.959
    18   1 H    0.983 --     3 C    0.952
    19   1 H    0.985 --    10 C    0.968
    20   1 H    0.987 --    10 C    0.966
    21   1 H    0.986 --    10 C    0.966
    22   1 H    0.991 --    14 C    0.969
    23   1 H    0.981 --    14 C    0.934
    24   1 H    0.028
    25   1 H    0.947 --     4 N    0.918
 ---------------------------------------------------------------------------

molecular dipole:
                 x           y           z       tot (Debye)
 q only:        2.727      -1.811       0.020
   full:        3.022      -2.387       0.022       9.790

           -------------------------------------------------
          | TOTAL ENERGY              -42.103957738299 Eh   |
          | GRADIENT NORM               0.001406828803 Eh/α |
          | HOMO-LUMO GAP               0.067640383916 eV   |
           -------------------------------------------------

 * finished run on 2024/06/05 at 19:59:21.119
