   * xtb version 6.6.1 (8d0f1dd) compiled by 'conda@1efc2f54142f' on 2023-08-01
          program call               : xtb struc.xyz --opt loose --input .xc1 --gfn2

   ID    Z sym.   atoms
    1    6 C      1, 3, 5-7, 10, 11, 14
    2    7 N      2, 4, 9, 13
    3    8 O      8, 12
    4    1 H      15-25
constraining bond 5 13 to    3.9200000 Å, actual value:    1.3391347 Å

          :  Hamiltonian                  GFN2-xTB          :
 * total energy  :   -30.3520937 Eh     change       -0.6633627E-10 Eh
 * total energy  :   -34.5370308 Eh     change       -0.4184937E+01 Eh
 * total energy  :   -37.8709659 Eh     change       -0.3333935E+01 Eh
 * total energy  :   -40.0235275 Eh     change       -0.2152562E+01 Eh
 * total energy  :   -41.1254531 Eh     change       -0.1101926E+01 Eh
 * total energy  :   -41.3480540 Eh     change       -0.2226009E+00 Eh
 * total energy  :   -41.4090627 Eh     change       -0.6100870E-01 Eh
 * total energy  :   -41.4645475 Eh     change       -0.5548481E-01 Eh
 * total energy  :   -41.5339763 Eh     change       -0.6942884E-01 Eh
 * total energy  :   -41.5740503 Eh     change       -0.4007394E-01 Eh
 * total energy  :   -41.9078321 Eh     change       -0.2569581E-03 Eh
 * total energy  :   -41.9080486 Eh     change       -0.2165214E-03 Eh
 * total energy  :   -41.9081967 Eh     change       -0.1480664E-03 Eh
 * total energy  :   -41.9083843 Eh     change       -0.1876435E-03 Eh
 * total energy  :   -41.9085098 Eh     change       -0.1254070E-03 Eh
 * total energy  :   -41.9086396 Eh     change       -0.1298711E-03 Eh
 * total energy  :   -41.9086897 Eh     change       -0.5007440E-04 Eh
 * total energy  :   -41.9087418 Eh     change       -0.5209735E-04 Eh
 * total energy  :   -41.9087631 Eh     change       -0.2126237E-04 Eh
   *** GEOMETRY OPTIMIZATION CONVERGED AFTER 56 ITERATIONS ***

 final structure:
================
25
 xtb: 6.6.1 (8d0f1dd)
C            3.24252505544578        1.08642337848086       -0.54517401706467
N            2.28933498022715        0.14633494458179       -0.06196932416955
C            2.44915821762994       -0.95498528405686        0.84589666691053
N            1.47410336295273       -2.02176149829037        0.46696094527060
C            0.99611056944146       -0.86681905137358        1.13820656023408
C            0.94256311045885        0.20391129040030        0.10346670846791
C            0.03361390505254        1.08574203311240       -0.49009168788223
O            0.18726037170033        1.91512034495990       -1.34274519107940
N           -1.38725001949039        0.91351485376503        0.05423695430380
C           -1.92827274217210        2.03332680539353        0.80404350991399
C           -2.09731943871246       -0.06903333300923       -0.30686907342566
O           -3.30882301462243       -0.52919670637052       -0.19407140568135
N           -2.22928695061854       -1.15874602920012       -1.06804457443561
C           -1.78907800740279       -2.47528508993969       -0.72845934997609
H            3.69312120617531        1.65339159886778        0.27601625666226
H            4.03805387329992        0.55102456012362       -1.06655681709103
H            2.74749871134962        1.77673853963341       -1.22709825318089
H            3.35305103382319       -1.14885997835167        1.38799703288406
H           -1.71040822286137        2.94920876625256        0.25097174257689
H           -3.00584211917401        1.92227856116146        0.92657478574862
H           -1.44319959784685        2.07755444496899        1.78113927614005
H           -1.77501285991786       -2.66552856953680        0.34699620719850
H           -0.77718451633273       -2.56771727483799       -1.12709242078003
H           -2.44270236768172       -3.18694754881700       -1.23054256709944
H            1.60841697337507       -2.85145121631515        1.03737965345559

          :  Hamiltonian                  GFN2-xTB          :
         :: total energy             -41.908763058236 Eh    ::
         :: gradient norm              0.003044735941 Eh/a0 ::
         :: HOMO-LUMO gap              0.973213967462 eV    ::
         :: SCC energy               -42.394559323718 Eh    ::
         :: -> dispersion             -0.020866344245 Eh    ::
         :: repulsion energy           0.485557236738 Eh    ::

    * Orbital Energies and Occupations

         #    Occupation            Energy/Eh            Energy/eV
      -------------------------------------------------------------
         1        2.0000           -0.9656261             -26.2760
       ...           ...                  ...                  ...
        25        2.0000           -0.6590339             -17.9332
        26        2.0000           -0.6542477             -17.8030
        27        2.0000           -0.6498642             -17.6837
        28        2.0000           -0.6391683             -17.3927
        29        2.0000           -0.6364074             -17.3175
        30        2.0000           -0.6335460             -17.2397
        31        2.0000           -0.6231235             -16.9561
        32        2.0000           -0.6194510             -16.8561
        33        2.0000           -0.5909286             -16.0800
        34        2.0000           -0.5907987             -16.0765
        35        2.0000           -0.5862699             -15.9532
        36        1.9922           -0.5426395             -14.7660
        37        1.8144           -0.5168550             -14.0643 (HOMO)
        38        0.1928           -0.4810900             -13.0911 (LUMO)
        39        0.0007           -0.4354215             -11.8484
        40        0.0000           -0.4002304             -10.8908
        41                         -0.3601743              -9.8008
        42                         -0.2624792              -7.1424
        43                         -0.2407383              -6.5508
        44                         -0.2151224              -5.8538
        45                         -0.1585952              -4.3156
        46                         -0.1059592              -2.8833
        47                         -0.0802060              -2.1825
        48                         -0.0719743              -1.9585
       ...                                ...                  ...
        67                          0.6053950              16.4736
      -------------------------------------------------------------
                  HL-Gap            0.0357650 Eh            0.9732 eV

     #   Z          covCN         q      C6AA      α(0)
     1   6 C        3.684    -0.076    22.176     6.743
     2   7 N        3.019     0.022    20.851     6.782
     3   6 C        4.124     0.088    19.044     6.198
     4   7 N        2.696    -0.212    25.606     7.515
     5   6 C        3.152    -0.052    28.992     8.806
     6   6 C        3.301     0.015    25.901     8.147
     7   6 C        2.750     0.259    22.643     7.792
     8   8 O        0.857    -0.307    19.912     5.983
     9   7 N        2.722    -0.029    21.801     6.935
    10   6 C        3.703    -0.068    21.964     6.701
    11   6 C        2.714     0.330    21.390     7.571
    12   8 O        1.723    -0.168    16.840     5.541
    13   7 N        2.686     0.005    21.174     6.834
    14   6 C        3.689    -0.068    22.004     6.714
    15   1 H        0.924     0.098     1.801     2.099
    16   1 H        0.924     0.106     1.735     2.060
    17   1 H        0.925     0.112     1.683     2.029
    18   1 H        0.926     0.075     2.031     2.229
    19   1 H        0.924     0.125     1.573     1.961
    20   1 H        0.925     0.109     1.704     2.041
    21   1 H        0.924     0.110     1.699     2.038
    22   1 H        0.924     0.087     1.910     2.161
    23   1 H        0.924     0.125     1.576     1.963
    24   1 H        0.925     0.125     1.577     1.964
    25   1 H        0.860     0.190     1.157     1.685

Wiberg/Mayer (AO) data.
largest (>0.10) Wiberg bond orders for each atom

     #   Z sym  total        # sym  WBO       # sym  WBO       # sym  WBO
 ---------------------------------------------------------------------------
     1   6 C    3.940 --     2 N    1.014    17 H    0.966    16 H    0.952
                            15 H    0.943
     2   7 N    3.549 --     6 C    1.267     1 C    1.014     3 C    1.006
                             5 C    0.171
     3   6 C    3.868 --     2 N    1.006    18 H    0.962     5 C    0.898
                             4 N    0.891
     4   7 N    2.978 --     5 C    1.040    25 H    0.931     3 C    0.891
     5   6 C    3.393 --     6 C    1.113     4 N    1.040     3 C    0.898
                             2 N    0.171
     6   6 C    3.859 --     2 N    1.267     7 C    1.226     5 C    1.113
     7   6 C    3.892 --     8 O    1.752     6 C    1.226     9 N    0.787
     8   8 O    2.111 --     7 C    1.752
     9   7 N    3.631 --    11 C    1.565    10 C    0.953     7 C    0.787
                            12 O    0.112
    10   6 C    3.908 --    20 H    0.972    21 H    0.961    19 H    0.957
                             9 N    0.953
    11   6 C    3.929 --     9 N    1.565    13 N    1.129    12 O    1.121
    12   8 O    2.196 --    11 C    1.121    13 N    0.846     9 N    0.112
    13   7 N    3.128 --    11 C    1.129    14 C    1.002    12 O    0.846
    14   6 C    3.927 --    13 N    1.002    22 H    0.968    24 H    0.965
                            23 H    0.933
    15   1 H    0.979 --     1 C    0.943
    16   1 H    0.983 --     1 C    0.952
    17   1 H    0.987 --     1 C    0.966
    18   1 H    0.992 --     3 C    0.962
    19   1 H    0.984 --    10 C    0.957
    20   1 H    0.987 --    10 C    0.972
    21   1 H    0.988 --    10 C    0.961
    22   1 H    0.992 --    14 C    0.968
    23   1 H    0.984 --    14 C    0.933
    24   1 H    0.983 --    14 C    0.965
    25   1 H    0.957 --     4 N    0.931
 ---------------------------------------------------------------------------

molecular dipole:
                 x           y           z       tot (Debye)
 q only:        0.311      -0.535       0.579
   full:        0.599      -0.702       1.031       3.516

           -------------------------------------------------
          | TOTAL ENERGY              -41.908763058236 Eh   |
          | GRADIENT NORM               0.003044735941 Eh/α |
          | HOMO-LUMO GAP               0.973213967462 eV   |
           -------------------------------------------------

 * finished run on 2024/06/05 at 19:57:59.356
