   * xtb version 6.6.1 (8d0f1dd) compiled by 'conda@1efc2f54142f' on 2023-08-01
          program call               : xtb struc.xyz --opt loose --input .xc1 --gfn2

   ID    Z sym.   atoms
    1    6 C      1, 3, 5-7, 10, 11, 14
    2    7 N      2, 4, 9, 13
    3    8 O      8, 12
    4    1 H      15-25
constraining bond 2 6 to    3.9200000 Å, actual value:    1.3708515 Å

          :  Hamiltonian                  GFN2-xTB          :
 * total energy  :     4.1628189 Eh     change       -0.6650680E-10 Eh
 * total energy  :   -17.1984676 Eh     change       -0.2136129E+02 Eh
 * total energy  :   -30.5436394 Eh     change       -0.1334517E+02 Eh
 * total energy  :   -38.2224692 Eh     change       -0.7678830E+01 Eh
 * total energy  :   -41.1784612 Eh     change       -0.2955992E+01 Eh
 * total energy  :   -41.5924676 Eh     change       -0.4140064E+00 Eh
 * total energy  :   -41.6400868 Eh     change       -0.4761915E-01 Eh
 * total energy  :   -41.7170695 Eh     change       -0.7698267E-01 Eh
 * total energy  :   -41.7679000 Eh     change       -0.5083055E-01 Eh
 * total energy  :   -41.8139101 Eh     change       -0.4601012E-01 Eh
 * total energy  :   -42.1345588 Eh     change       -0.1594489E-01 Eh
 * total energy  :   -42.1399889 Eh     change       -0.5430142E-02 Eh
 * total energy  :   -42.1422065 Eh     change       -0.2217600E-02 Eh
 * total energy  :   -42.1447368 Eh     change       -0.2530355E-02 Eh
 * total energy  :   -42.1456120 Eh     change       -0.8751078E-03 Eh
 * total energy  :   -42.1460987 Eh     change       -0.4866964E-03 Eh
 * total energy  :   -42.1462389 Eh     change       -0.1402080E-03 Eh
 * total energy  :   -42.1463079 Eh     change       -0.6899448E-04 Eh
 * total energy  :   -42.1463472 Eh     change       -0.3931058E-04 Eh
   *** GEOMETRY OPTIMIZATION CONVERGED AFTER 31 ITERATIONS ***

 final structure:
================
25
 xtb: 6.6.1 (8d0f1dd)
C            3.37951794684306        0.89407427557576        0.03592542009919
N            3.56377189405290       -0.49278915231278        0.01901380485972
C            2.69322448182209       -1.38786321813954       -0.00049426135234
N            1.27756763573374       -1.40507954604286       -0.01780202698688
C            0.16632836382748       -0.62305151902252       -0.01123910467236
C           -0.14273646985293        0.77702310204807       -0.01510456752966
C            0.63699043002719        1.88573785320766       -0.02425074006934
O            0.84177120281748        3.03225084573326       -0.03413221835849
N           -1.54329716747104        0.88872008838050       -0.00522492461554
C           -2.33519027358791        2.09182807668445       -0.00356136808332
C           -2.10795311908249       -0.35420350041023        0.00086776682085
O           -3.26705022465186       -0.64768736727484        0.00970400586148
N           -1.02955220873738       -1.26525449244564       -0.00422402689292
C           -1.27525205847180       -2.68417845277833       -0.00006279315385
H            3.80818197019493        1.30322290417912        0.95406448352440
H            3.91384428750168        1.33747762450541       -0.80750661790732
H            2.29744362787614        1.19593153911260       -0.02240106786790
H            3.06477870281087       -2.40519974608261       -0.00865737849915
H           -1.69725317896808        2.97085010675011        0.00423986854558
H           -2.97235511897596        2.11143316912497       -0.88972100546100
H           -2.98072751841825        2.10157268444264        0.87652758841023
H           -0.86809193966107       -3.15809473239071        0.89537406262781
H           -0.88183734460152       -3.16040894534391       -0.90040762047938
H           -2.35826926742862       -2.81151467310845        0.00783931798165
H            0.97657686050248       -2.37655838279157       -0.02759497890169

          :  Hamiltonian                  GFN2-xTB          :
         :: total energy             -42.146347166449 Eh    ::
         :: gradient norm              0.003781583323 Eh/a0 ::
         :: HOMO-LUMO gap              2.103489736213 eV    ::
         :: SCC energy               -42.690657048902 Eh    ::
         :: -> dispersion             -0.021783757983 Eh    ::
         :: repulsion energy           0.544166525495 Eh    ::

    * Orbital Energies and Occupations

         #    Occupation            Energy/Eh            Energy/eV
      -------------------------------------------------------------
         1        2.0000           -0.9317156             -25.3533
       ...           ...                  ...                  ...
        25        2.0000           -0.6796594             -18.4945
        26        2.0000           -0.6734661             -18.3259
        27        1.9999           -0.6652861             -18.1034
        28        1.9999           -0.6554299             -17.8352
        29        1.9995           -0.6377614             -17.3544
        30        1.9994           -0.6335925             -17.2409
        31        1.9993           -0.6307126             -17.1626
        32        1.9991           -0.6268433             -17.0573
        33        1.9959           -0.6027320             -16.4012
        34        1.9861           -0.5834166             -15.8756
        35        1.9831           -0.5803532             -15.7922
        36        1.9149           -0.5541755             -15.0799
        37        1.8359           -0.5431026             -14.7786 (HOMO)
        38        0.1564           -0.4658007             -12.6751 (LUMO)
        39        0.1295           -0.4625853             -12.5876
        40        0.0012           -0.3868049             -10.5255
        41        0.0001           -0.3464447              -9.4272
        42        0.0000           -0.3204411              -8.7196
        43                         -0.2175082              -5.9187
        44                         -0.1934128              -5.2630
        45                         -0.1229517              -3.3457
        46                         -0.1200215              -3.2660
        47                         -0.0770688              -2.0971
        48                         -0.0524980              -1.4285
       ...                                ...                  ...
        67                          0.7890648              21.4715
      -------------------------------------------------------------
                  HL-Gap            0.0773018 Eh            2.1035 eV

     #   Z          covCN         q      C6AA      α(0)
     1   6 C        3.697    -0.035    21.377     6.613
     2   7 N        1.820    -0.129    24.571     7.345
     3   6 C        2.766     0.106    25.632     8.291
     4   7 N        2.689    -0.127    23.753     7.238
     5   6 C        2.896     0.131    25.137     8.220
     6   6 C        3.005     0.002    27.957     8.673
     7   6 C        1.847     0.241    25.561     8.167
     8   8 O        0.856    -0.137    17.070     5.539
     9   7 N        2.800    -0.046    22.126     6.986
    10   6 C        3.691    -0.065    21.942     6.703
    11   6 C        2.825     0.314    21.669     7.628
    12   8 O        0.857    -0.351    20.731     6.104
    13   7 N        2.830    -0.055    22.309     7.015
    14   6 C        3.690    -0.075    22.127     6.732
    15   1 H        0.924     0.111     1.689     2.032
    16   1 H        0.924     0.113     1.675     2.024
    17   1 H        0.921     0.056     2.253     2.347
    18   1 H        0.925     0.104     1.751     2.069
    19   1 H        0.925     0.091     1.874     2.141
    20   1 H        0.924     0.107     1.723     2.053
    21   1 H        0.924     0.107     1.719     2.050
    22   1 H        0.924     0.088     1.896     2.153
    23   1 H        0.924     0.088     1.897     2.154
    24   1 H        0.924     0.131     1.531     1.935
    25   1 H        0.860     0.231     0.959     1.534

Wiberg/Mayer (AO) data.
largest (>0.10) Wiberg bond orders for each atom

     #   Z sym  total        # sym  WBO       # sym  WBO       # sym  WBO
 ---------------------------------------------------------------------------
     1   6 C    3.933 --     2 N    1.083    16 H    0.940    15 H    0.940
                            17 H    0.838
     2   7 N    3.155 --     3 C    1.823     1 C    1.083     4 N    0.101
     3   6 C    3.932 --     2 N    1.823     4 N    1.059    18 H    0.939
     4   7 N    3.486 --     5 C    1.233     3 C    1.059    25 H    0.902
                             2 N    0.101
     5   6 C    3.884 --    13 N    1.251     4 N    1.233     6 C    1.194
     6   6 C    3.877 --     7 C    1.362     5 C    1.194     9 N    1.047
                             8 O    0.116
     7   6 C    3.703 --     8 O    2.018     6 C    1.362    17 H    0.120
     8   8 O    2.335 --     7 C    2.018     6 C    0.116
     9   7 N    3.466 --    11 C    1.145     6 C    1.047    10 C    0.988
                            12 O    0.150
    10   6 C    3.917 --     9 N    0.988    19 H    0.975    21 H    0.958
                            20 H    0.958
    11   6 C    3.948 --    12 O    1.689     9 N    1.145    13 N    1.019
    12   8 O    2.018 --    11 C    1.689     9 N    0.150    13 N    0.111
    13   7 N    3.567 --     5 C    1.251    11 C    1.019    14 C    0.988
                            12 O    0.111
    14   6 C    3.928 --    13 N    0.988    22 H    0.962    23 H    0.962
                            24 H    0.959
    15   1 H    0.980 --     1 C    0.940
    16   1 H    0.979 --     1 C    0.940
    17   1 H    0.982 --     1 C    0.838     7 C    0.120
    18   1 H    0.984 --     3 C    0.939
    19   1 H    0.990 --    10 C    0.975
    20   1 H    0.976 --    10 C    0.958
    21   1 H    0.976 --    10 C    0.958
    22   1 H    0.987 --    14 C    0.962
    23   1 H    0.987 --    14 C    0.962
    24   1 H    0.982 --    14 C    0.959
    25   1 H    0.945 --     4 N    0.902
 ---------------------------------------------------------------------------

molecular dipole:
                 x           y           z       tot (Debye)
 q only:        1.409      -0.777      -0.000
   full:        1.314      -0.846      -0.005       3.972

           -------------------------------------------------
          | TOTAL ENERGY              -42.146347166449 Eh   |
          | GRADIENT NORM               0.003781583323 Eh/α |
          | HOMO-LUMO GAP               2.103489736213 eV   |
           -------------------------------------------------

 * finished run on 2024/06/05 at 20:00:06.056
