   * xtb version 6.6.1 (8d0f1dd) compiled by 'conda@1efc2f54142f' on 2023-08-01
          program call               : xtb xtbopt.xyz --opt crude --input .xc2 --gfn2

   ID    Z sym.   atoms
    1    6 C      1, 3, 5-7, 10, 11, 14
    2    7 N      2, 4, 9, 13
    3    8 O      8, 12
    4    1 H      15-25
########################################################################
[WARNING] Please study the warnings concerning your input carefully
-1- readin_getIntValue: could not parse ''
########################################################################

          :  Hamiltonian                  GFN2-xTB          :
 * total energy  :   -42.1463720 Eh     change       -0.3623768E-12 Eh
 * total energy  :   -42.1477739 Eh     change       -0.1401947E-02 Eh
 * total energy  :   -42.1492548 Eh     change       -0.1480923E-02 Eh
 * total energy  :   -42.1492515 Eh     change        0.3288185E-05 Eh
 * total energy  :   -42.1502588 Eh     change       -0.1007274E-02 Eh
 * total energy  :   -42.1508172 Eh     change       -0.5583571E-03 Eh
 * total energy  :   -42.1516027 Eh     change       -0.7855091E-03 Eh
 * total energy  :   -42.1518398 Eh     change       -0.2370673E-03 Eh
   *** GEOMETRY OPTIMIZATION CONVERGED AFTER 8 ITERATIONS ***

 final structure:
================
25
 xtb: 6.6.1 (8d0f1dd)
C            3.24937336852887        0.98537889235562        0.04099511630024
N            3.40471535079466       -0.36549325919677        0.01579809874960
C            2.66433139999170       -1.36926500390103       -0.00524966527453
N            1.28327545346893       -1.52597972005045       -0.01468909309592
C            0.18409253942483       -0.71789257688852       -0.00538765049034
C           -0.04346953217498        0.68012350628177       -0.00773109688096
C            0.77628245277914        1.78700698417741       -0.01274449040493
O            0.73398063385143        2.96601396505597       -0.04681372171353
N           -1.43775717057416        0.86255750308095       -0.00563951276274
C           -2.17451412849420        2.09966236550957       -0.00633872799792
C           -2.06509716680299       -0.34881510109630       -0.00104109816145
O           -3.23736888155164       -0.58667729491600        0.00429193559331
N           -1.03277134994421       -1.31227686220225       -0.00204919430674
C           -1.34180915293332       -2.71853530049534        0.00043521041932
H            3.67610116916530        1.41580158194437        0.95048997006015
H            3.70806695241006        1.45219393015323       -0.83474508642493
H            2.11195594515854        1.32604320324858        0.02758076118997
H            3.16771385666479       -2.32721284188640       -0.02012234879778
H           -1.49926811727661        2.95064627613918        0.01182108759464
H           -2.79928516161994        2.15143832865608       -0.89957186615812
H           -2.82639600096489        2.13327269849405        0.86795502387488
H           -0.95371542803053       -3.21090292794344        0.89386795452010
H           -0.96944338569231       -3.21055147065487       -0.89996927339837
H           -2.43025143472809       -2.79405403505009        0.00941622779139
H            1.01168930265072       -2.50424429921477       -0.02938694232557

          :  Hamiltonian                  GFN2-xTB          :
         :: total energy             -42.151839754719 Eh    ::
         :: gradient norm              0.006511530689 Eh/a0 ::
         :: HOMO-LUMO gap              2.112527018904 eV    ::
         :: SCC energy               -42.692850121539 Eh    ::
         :: -> dispersion             -0.021995679509 Eh    ::
         :: repulsion energy           0.540878844053 Eh    ::

    * Orbital Energies and Occupations

         #    Occupation            Energy/Eh            Energy/eV
      -------------------------------------------------------------
         1        2.0000           -0.9120809             -24.8190
       ...           ...                  ...                  ...
        25        2.0000           -0.6764388             -18.4068
        26        2.0000           -0.6740462             -18.3417
        27        1.9999           -0.6607375             -17.9796
        28        1.9999           -0.6513460             -17.7240
        29        1.9998           -0.6479221             -17.6309
        30        1.9996           -0.6330955             -17.2274
        31        1.9995           -0.6323607             -17.2074
        32        1.9989           -0.6189998             -16.8438
        33        1.9960           -0.5982603             -16.2795
        34        1.9891           -0.5822122             -15.8428
        35        1.9855           -0.5777005             -15.7200
        36        1.9593           -0.5611308             -15.2691
        37        1.8213           -0.5365579             -14.6005 (HOMO)
        38        0.1407           -0.4589239             -12.4880 (LUMO)
        39        0.1085           -0.4545375             -12.3686
        40        0.0020           -0.3903848             -10.6229
        41        0.0001           -0.3413456              -9.2885
        42        0.0000           -0.3177071              -8.6452
        43                         -0.1977871              -5.3821
        44                         -0.1900847              -5.1725
        45                         -0.1156515              -3.1470
        46                         -0.1025954              -2.7918
        47                         -0.0787973              -2.1442
        48                         -0.0470037              -1.2790
       ...                                ...                  ...
        67                          0.6366536              17.3242
      -------------------------------------------------------------
                  HL-Gap            0.0776339 Eh            2.1125 eV

     #   Z          covCN         q      C6AA      α(0)
     1   6 C        3.666    -0.025    21.295     6.618
     2   7 N        1.822    -0.120    24.381     7.316
     3   6 C        2.758     0.108    25.592     8.284
     4   7 N        2.689    -0.119    23.589     7.213
     5   6 C        2.911     0.122    25.314     8.250
     6   6 C        3.006    -0.003    28.091     8.694
     7   6 C        2.345     0.218    24.389     8.031
     8   8 O        0.856    -0.203    18.124     5.708
     9   7 N        2.808    -0.046    22.121     6.985
    10   6 C        3.691    -0.067    21.972     6.708
    11   6 C        2.832     0.312    21.706     7.635
    12   8 O        0.857    -0.355    20.811     6.116
    13   7 N        2.830    -0.056    22.310     7.015
    14   6 C        3.690    -0.073    22.097     6.728
    15   1 H        0.924     0.123     1.586     1.970
    16   1 H        0.924     0.123     1.586     1.969
    17   1 H        1.396     0.108     1.705     2.038
    18   1 H        0.925     0.111     1.692     2.034
    19   1 H        0.925     0.102     1.770     2.080
    20   1 H        0.924     0.105     1.740     2.063
    21   1 H        0.924     0.105     1.736     2.061
    22   1 H        0.924     0.086     1.915     2.164
    23   1 H        0.924     0.086     1.916     2.165
    24   1 H        0.924     0.129     1.546     1.944
    25   1 H        0.860     0.229     0.969     1.542

Wiberg/Mayer (AO) data.
largest (>0.10) Wiberg bond orders for each atom

     #   Z sym  total        # sym  WBO       # sym  WBO       # sym  WBO
 ---------------------------------------------------------------------------
     1   6 C    3.903 --     2 N    1.183    16 H    0.934    15 H    0.933
                            17 H    0.621     8 O    0.105
     2   7 N    3.285 --     3 C    1.768     1 C    1.183     4 N    0.109
     3   6 C    3.932 --     2 N    1.768     4 N    1.112    18 H    0.935
     4   7 N    3.499 --     5 C    1.193     3 C    1.112    25 H    0.907
                             2 N    0.109
     5   6 C    3.881 --    13 N    1.249     6 C    1.241     4 N    1.193
     6   6 C    3.874 --     7 C    1.288     5 C    1.241     9 N    1.061
     7   6 C    3.779 --     8 O    1.892     6 C    1.288    17 H    0.323
     8   8 O    2.285 --     7 C    1.892     1 C    0.105
     9   7 N    3.481 --    11 C    1.148     6 C    1.061    10 C    0.990
                            12 O    0.148
    10   6 C    3.912 --     9 N    0.990    19 H    0.967    21 H    0.957
                            20 H    0.957
    11   6 C    3.946 --    12 O    1.684     9 N    1.148    13 N    1.020
    12   8 O    2.007 --    11 C    1.684     9 N    0.148    13 N    0.113
    13   7 N    3.564 --     5 C    1.249    11 C    1.020    14 C    0.988
                            12 O    0.113
    14   6 C    3.929 --    13 N    0.988    22 H    0.964    23 H    0.964
                            24 H    0.961
    15   1 H    0.979 --     1 C    0.933
    16   1 H    0.979 --     1 C    0.934
    17   1 H    0.981 --     1 C    0.621     7 C    0.323
    18   1 H    0.982 --     3 C    0.935
    19   1 H    0.988 --    10 C    0.967
    20   1 H    0.975 --    10 C    0.957
    21   1 H    0.976 --    10 C    0.957
    22   1 H    0.987 --    14 C    0.964
    23   1 H    0.986 --    14 C    0.964
    24   1 H    0.983 --    14 C    0.961
    25   1 H    0.947 --     4 N    0.907
 ---------------------------------------------------------------------------

molecular dipole:
                 x           y           z       tot (Debye)
 q only:        1.997      -1.053       0.020
   full:        1.997      -1.207       0.021       5.932

           -------------------------------------------------
          | TOTAL ENERGY              -42.151839754719 Eh   |
          | GRADIENT NORM               0.006511530689 Eh/α |
          | HOMO-LUMO GAP               2.112527018904 eV   |
           -------------------------------------------------

 * finished run on 2024/06/05 at 20:00:06.426
