   * xtb version 6.6.1 (8d0f1dd) compiled by 'conda@1efc2f54142f' on 2023-08-01
          program call               : xtb xtbopt.xyz --opt crude --input .xc2 --gfn2

   ID    Z sym.   atoms
    1    6 C      1, 3, 5-7, 10, 11, 14
    2    7 N      2, 4, 9, 13
    3    8 O      8, 12
    4    1 H      15-25
########################################################################
[WARNING] Please study the warnings concerning your input carefully
-1- readin_getIntValue: could not parse ''
########################################################################

          :  Hamiltonian                  GFN2-xTB          :
 * total energy  :   -42.1242392 Eh     change       -0.3055334E-12 Eh
 * total energy  :   -42.1293804 Eh     change       -0.5141254E-02 Eh
 * total energy  :   -42.1323332 Eh     change       -0.2952790E-02 Eh
 * total energy  :   -42.1335406 Eh     change       -0.1207426E-02 Eh
 * total energy  :   -42.1349089 Eh     change       -0.1368260E-02 Eh
 * total energy  :   -42.1358135 Eh     change       -0.9045527E-03 Eh
 * total energy  :   -42.1370384 Eh     change       -0.1224963E-02 Eh
 * total energy  :   -42.1378306 Eh     change       -0.7921911E-03 Eh
 * total energy  :   -42.1386339 Eh     change       -0.8033000E-03 Eh
 * total energy  :   -42.1391560 Eh     change       -0.5221139E-03 Eh
 * total energy  :   -42.1537103 Eh     change       -0.1102067E-02 Eh
 * total energy  :   -42.1548228 Eh     change       -0.1112472E-02 Eh
 * total energy  :   -42.1558834 Eh     change       -0.1060550E-02 Eh
 * total energy  :   -42.1568575 Eh     change       -0.9741464E-03 Eh
 * total energy  :   -42.1576234 Eh     change       -0.7659203E-03 Eh
 * total energy  :   -42.1582894 Eh     change       -0.6659505E-03 Eh
 * total energy  :   -42.1586930 Eh     change       -0.4035666E-03 Eh
 * total energy  :   -42.1590397 Eh     change       -0.3467611E-03 Eh
 * total energy  :   -42.1592406 Eh     change       -0.2008846E-03 Eh
   *** GEOMETRY OPTIMIZATION CONVERGED AFTER 35 ITERATIONS ***

 final structure:
================
25
 xtb: 6.6.1 (8d0f1dd)
C            2.74914061824774        1.23513303500747       -0.12173201031582
N            2.13133105415348       -0.06300011190803       -0.12624581426513
C            2.74791214883548       -1.22088889276975       -0.29803666032930
N            1.84962817810308       -2.21094141146461       -0.23660898904891
C            0.60804725591433       -1.67626114831697        0.00006750356094
C            0.78367795410550       -0.29346123584806        0.03990183290406
C           -0.12262230222326        0.81104683183439        0.45768804978285
O            0.23322665501054        1.58176100150057        1.31959287162876
N           -1.35904442388758        0.90902776775594       -0.13990992747957
C           -2.24637355426775        1.93922770411443        0.38555982996436
C           -1.76530377176727        0.19184256728121       -1.25050453048923
O           -2.85113264387243        0.28212596876297       -1.73872192191145
N           -0.49853909990352       -2.44463702754317       -0.02640563829962
C           -1.46890056879803       -2.47455540501706        0.77997964289382
H            2.58948713048629        1.71359732244893        0.84720441042397
H            3.81518587025498        1.13465820991835       -0.31339227843584
H            2.30067370610299        1.86949818277729       -0.88826928288182
H            3.80059471337748       -1.35032574994798       -0.45991605211383
H           -1.75191641810362        2.90917144390991        0.32636499226100
H           -3.15480092353751        1.94297190754526       -0.21234801569724
H           -2.48221290386857        1.73486778828574        1.42847891084573
H           -1.50170077755509       -1.92631530732186        1.71527893862174
H           -2.30586522763405       -3.10435669858206        0.52091407444089
H           -0.98339730215262       -0.47211651501374       -1.64891993988369
H            2.04333614707805       -3.19983168580884       -0.32884837827614

          :  Hamiltonian                  GFN2-xTB          :
         :: total energy             -42.159240601458 Eh    ::
         :: gradient norm              0.007226091052 Eh/a0 ::
         :: HOMO-LUMO gap              2.826590071122 eV    ::
         :: SCC energy               -42.702677095514 Eh    ::
         :: -> dispersion             -0.022826725319 Eh    ::
         :: repulsion energy           0.543189944495 Eh    ::

    * Orbital Energies and Occupations

         #    Occupation            Energy/Eh            Energy/eV
      -------------------------------------------------------------
         1        2.0000           -0.9141035             -24.8740
       ...           ...                  ...                  ...
        25        2.0000           -0.6699666             -18.2307
        26        2.0000           -0.6642498             -18.0752
        27        1.9999           -0.6589478             -17.9309
        28        1.9999           -0.6487269             -17.6528
        29        1.9998           -0.6448609             -17.5476
        30        1.9996           -0.6318555             -17.1937
        31        1.9992           -0.6198299             -16.8664
        32        1.9984           -0.6078497             -16.5404
        33        1.9974           -0.6001877             -16.3319
        34        1.9874           -0.5752162             -15.6524
        35        1.9763           -0.5651949             -15.3797
        36        1.9603           -0.5568649             -15.1531
        37        1.9430           -0.5510148             -14.9939 (HOMO)
        38        0.0921           -0.4471396             -12.1673 (LUMO)
        39        0.0385           -0.4329140             -11.7802
        40        0.0076           -0.4068646             -11.0713
        41        0.0007           -0.3689292             -10.0391
        42        0.0001           -0.3324275              -9.0458
        43                         -0.1866973              -5.0803
        44                         -0.1758653              -4.7855
        45                         -0.1314602              -3.5772
        46                         -0.0748549              -2.0369
        47                         -0.0522863              -1.4228
        48                         -0.0424284              -1.1545
       ...                                ...                  ...
        67                          0.5152784              14.0214
      -------------------------------------------------------------
                  HL-Gap            0.1038753 Eh            2.8266 eV

     #   Z          covCN         q      C6AA      α(0)
     1   6 C        3.693    -0.089    22.394     6.771
     2   7 N        2.850     0.085    19.769     6.604
     3   6 C        3.030     0.059    26.649     8.468
     4   7 N        2.812    -0.046    22.127     6.986
     5   6 C        3.022     0.126    25.223     8.238
     6   6 C        3.088    -0.025    28.512     8.753
     7   6 C        2.768     0.270    22.446     7.759
     8   8 O        0.860    -0.351    20.724     6.104
     9   7 N        2.732    -0.069    22.575     7.057
    10   6 C        3.706    -0.062    21.847     6.682
    11   6 C        2.706     0.245    22.884     7.830
    12   8 O        0.857    -0.291    19.621     5.939
    13   7 N        1.825    -0.137    24.749     7.372
    14   6 C        2.790     0.040    27.090     8.526
    15   1 H        0.924     0.132     1.516     1.926
    16   1 H        0.925     0.103     1.760     2.074
    17   1 H        0.924     0.107     1.723     2.053
    18   1 H        0.926     0.127     1.556     1.951
    19   1 H        0.924     0.098     1.802     2.099
    20   1 H        0.925     0.111     1.686     2.031
    21   1 H        0.925     0.092     1.857     2.131
    22   1 H        0.925     0.078     2.001     2.212
    23   1 H        0.926     0.124     1.582     1.967
    24   1 H        0.923     0.035     2.516     2.480
    25   1 H        0.860     0.238     0.933     1.513

Wiberg/Mayer (AO) data.
largest (>0.10) Wiberg bond orders for each atom

     #   Z sym  total        # sym  WBO       # sym  WBO       # sym  WBO
 ---------------------------------------------------------------------------
     1   6 C    3.921 --     2 N    0.988    16 H    0.974    17 H    0.960
                            15 H    0.950
     2   7 N    3.710 --     3 C    1.394     6 C    1.176     1 C    0.988
     3   6 C    3.904 --     2 N    1.394     4 N    1.317    18 H    0.950
     4   7 N    3.612 --     3 C    1.317     5 C    1.172    25 H    0.916
     5   6 C    3.934 --     6 C    1.372    13 N    1.206     4 N    1.172
     6   6 C    3.890 --     5 C    1.372     2 N    1.176     7 C    0.990
     7   6 C    3.945 --     8 O    1.713     9 N    1.149     6 C    0.990
     8   8 O    2.051 --     7 C    1.713     9 N    0.144
     9   7 N    3.571 --     7 C    1.149    11 C    1.132    10 C    0.967
                             8 O    0.144    12 O    0.139
    10   6 C    3.915 --    20 H    0.969     9 N    0.967    21 H    0.967
                            19 H    0.963
    11   6 C    3.936 --    12 O    1.833     9 N    1.132    24 H    0.914
    12   8 O    2.096 --    11 C    1.833     9 N    0.139
    13   7 N    3.210 --    14 C    1.832     5 C    1.206
    14   6 C    3.839 --    13 N    1.832    23 H    0.954    22 H    0.948
    15   1 H    0.981 --     1 C    0.950
    16   1 H    0.989 --     1 C    0.974
    17   1 H    0.987 --     1 C    0.960
    18   1 H    0.982 --     3 C    0.950
    19   1 H    0.984 --    10 C    0.963
    20   1 H    0.986 --    10 C    0.969
    21   1 H    0.986 --    10 C    0.967
    22   1 H    0.984 --    14 C    0.948
    23   1 H    0.980 --    14 C    0.954
    24   1 H    0.988 --    11 C    0.914
    25   1 H    0.942 --     4 N    0.916
 ---------------------------------------------------------------------------

molecular dipole:
                 x           y           z       tot (Debye)
 q only:        2.561      -1.673       0.003
   full:        2.879      -1.944       0.099       8.832

           -------------------------------------------------
          | TOTAL ENERGY              -42.159240601458 Eh   |
          | GRADIENT NORM               0.007226091052 Eh/α |
          | HOMO-LUMO GAP               2.826590071122 eV   |
           -------------------------------------------------

 * finished run on 2024/06/05 at 19:58:04.245
