   * xtb version 6.6.1 (8d0f1dd) compiled by 'conda@1efc2f54142f' on 2023-08-01
          program call               : xtb struc.xyz --opt loose --input .xc1 --gfn2

   ID    Z sym.   atoms
    1    6 C      1, 3, 5-7, 10, 11, 14
    2    7 N      2, 4, 9, 13
    3    8 O      8, 12
    4    1 H      15-25
constraining bond 7 21 to    3.7133300 Å, actual value:    3.1541658 Å

          :  Hamiltonian                  GFN2-xTB          :
 * total energy  :   -42.8061312 Eh     change       -0.6650680E-10 Eh
 * total energy  :   -45.0651595 Eh     change       -0.2259028E+01 Eh
 * total energy  :   -48.9688546 Eh     change       -0.3903695E+01 Eh
 * total energy  :   -54.7343678 Eh     change       -0.5765513E+01 Eh
 * total energy  :   -57.4459027 Eh     change       -0.2711535E+01 Eh
 * total energy  :   -58.0003415 Eh     change       -0.5544389E+00 Eh
 * total energy  :   -58.8034234 Eh     change       -0.8030819E+00 Eh
 * total energy  :   -58.1057633 Eh     change        0.6976601E+00 Eh
 * total energy  :   -59.2774171 Eh     change       -0.1171654E+01 Eh
 * total energy  :   -59.3708343 Eh     change       -0.9341723E-01 Eh
 * total energy  :   -59.7322205 Eh     change       -0.3033892E-03 Eh
 * total energy  :   -59.7324554 Eh     change       -0.2349137E-03 Eh
 * total energy  :   -59.7326338 Eh     change       -0.1783645E-03 Eh
 * total energy  :   -59.7328158 Eh     change       -0.1820652E-03 Eh
 * total energy  :   -59.7329817 Eh     change       -0.1659215E-03 Eh
 * total energy  :   -59.7330686 Eh     change       -0.8684388E-04 Eh
 * total energy  :   -59.7331172 Eh     change       -0.4860602E-04 Eh
 * total energy  :   -59.7331449 Eh     change       -0.2768194E-04 Eh
 * total energy  :   -59.7331722 Eh     change       -0.2732771E-04 Eh
   *** GEOMETRY OPTIMIZATION CONVERGED AFTER 41 ITERATIONS ***

 final structure:
================
25
 xtb: 6.6.1 (8d0f1dd)
C            3.12434089527287        1.18577089800426        0.22802426818449
N            2.14332234103488        0.13998342123567        0.10501280440142
C            2.37687444534135       -1.12448551282056       -0.22002986567195
N            1.21175706271794       -1.79553787071410       -0.23889422321559
C            0.20618363395305       -0.92368767286241        0.09036976699220
C            0.80244417795364        0.29750155759730        0.32335950215596
C            0.07546707455105        1.61630353721046        0.78211444341540
O            0.45763235550866        2.62956510924426        0.15159596330793
N           -1.59097685199934        1.03291060655889       -0.12249876125206
C           -2.20820695078394        1.98207587126646       -0.70123793675650
C           -2.10813920252067       -0.27683715914961       -0.05453115269110
O           -3.27437455512577       -0.54288208351886       -0.12054721167290
N           -1.12217810430092       -1.24514916577562        0.10287100592416
C           -1.52831679878059       -2.63921944451411        0.13405463350292
H            3.52769415386686        1.21030171914905        1.24169254949323
H            3.93926013025593        1.01736206598579       -0.47263963144328
H            2.64776271649132        2.14283438752183        0.01358589786216
H            3.33800703721328       -1.54907329783979       -0.43522671256648
H           -1.73362543238420        2.95701376491201       -0.68217637047605
H           -3.14812669402399        1.84471132292003       -1.21885636391116
H           -0.12954841159691        1.58985956228202        1.15266565694869
H           -1.03236996111965       -3.15572015405852        0.95498496199907
H           -1.31144455159913       -3.13665579796039       -0.81319092932688
H           -2.60486271140429       -2.66408587057030        0.29469356664183
H            1.10185571557778       -2.77462125250336       -0.46402424394439

          :  Hamiltonian                  GFN2-xTB          :
         :: total energy             -59.733172206842 Eh    ::
         :: gradient norm              0.003356701008 Eh/a0 ::
         :: HOMO-LUMO gap              2.336224374804 eV    ::
         :: SCC energy               -42.687137039502 Eh    ::
         :: -> dispersion             -0.023104150683 Eh    ::
         :: repulsion energy           2.269061518549 Eh    ::

    * Orbital Energies and Occupations

         #    Occupation            Energy/Eh            Energy/eV
      -------------------------------------------------------------
         1        2.0000           -0.9089186             -24.7329
       ...           ...                  ...                  ...
        25        2.0000           -0.6722262             -18.2922
        26        2.0000           -0.6659561             -18.1216
        27        2.0000           -0.6589892             -17.9320
        28        1.9998           -0.6346788             -17.2705
        29        1.9998           -0.6342835             -17.2597
        30        1.9997           -0.6284270             -17.1004
        31        1.9996           -0.6240544             -16.9814
        32        1.9993           -0.6163529             -16.7718
        33        1.9991           -0.6120388             -16.6544
        34        1.9963           -0.5892628             -16.0347
        35        1.9797           -0.5623830             -15.3032
        36        1.9428           -0.5456628             -14.8482
        37        1.8994           -0.5363601             -14.5951 (HOMO)
        38        0.1539           -0.4505055             -12.2589 (LUMO)
        39        0.0225           -0.4189552             -11.4004
        40        0.0079           -0.4023720             -10.9491
        41        0.0003           -0.3506782              -9.5424
        42        0.0001           -0.3284800              -8.9384
        43                         -0.1931580              -5.2561
        44                         -0.1867431              -5.0815
        45                         -0.1567775              -4.2661
        46                         -0.1005038              -2.7348
        47                         -0.0677193              -1.8427
        48                         -0.0508032              -1.3824
       ...                                ...                  ...
        67                         10.5002600             285.7266
      -------------------------------------------------------------
                  HL-Gap            0.0858547 Eh            2.3362 eV

     #   Z          covCN         q      C6AA      α(0)
     1   6 C        3.693    -0.094    22.490     6.786
     2   7 N        2.853     0.090    19.690     6.590
     3   6 C        3.046     0.049    26.860     8.500
     4   7 N        2.809    -0.058    22.353     7.022
     5   6 C        3.033     0.106    25.632     8.304
     6   6 C        3.096    -0.021    28.419     8.737
     7   6 C        3.137     0.155    24.449     8.093
     8   8 O        0.862    -0.392    21.526     6.221
     9   7 N        2.209    -0.152    24.719     7.379
    10   6 C        2.791     0.054    26.765     8.475
    11   6 C        2.729     0.330    21.396     7.573
    12   8 O        0.858    -0.340    20.512     6.072
    13   7 N        2.738    -0.060    22.402     7.030
    14   6 C        3.700    -0.072    22.045     6.714
    15   1 H        0.924     0.108     1.714     2.047
    16   1 H        0.925     0.103     1.757     2.073
    17   1 H        0.924     0.138     1.478     1.901
    18   1 H        0.926     0.124     1.585     1.969
    19   1 H        0.925     0.139     1.470     1.896
    20   1 H        0.925     0.118     1.626     1.994
    21   1 H        0.939     0.166     1.287     1.774
    22   1 H        0.925     0.081     1.969     2.194
    23   1 H        0.924     0.078     2.000     2.212
    24   1 H        0.925     0.123     1.591     1.973
    25   1 H        0.860     0.230     0.967     1.541

Wiberg/Mayer (AO) data.
largest (>0.10) Wiberg bond orders for each atom

     #   Z sym  total        # sym  WBO       # sym  WBO       # sym  WBO
 ---------------------------------------------------------------------------
     1   6 C    3.916 --     2 N    0.985    16 H    0.970    17 H    0.956
                            15 H    0.955
     2   7 N    3.717 --     3 C    1.386     6 C    1.204     1 C    0.985
     3   6 C    3.897 --     2 N    1.386     4 N    1.300    18 H    0.952
     4   7 N    3.603 --     3 C    1.300     5 C    1.181    25 H    0.917
     5   6 C    3.933 --     6 C    1.431     4 N    1.181    13 N    1.139
     6   6 C    3.869 --     5 C    1.431     2 N    1.204     7 C    0.907
     7   6 C    3.912 --     8 O    1.669    21 H    0.949     6 C    0.907
                             9 N    0.311
     8   8 O    1.945 --     7 C    1.669     9 N    0.129
     9   7 N    3.367 --    10 C    1.783    11 C    1.013     7 C    0.311
                             8 O    0.129
    10   6 C    3.752 --     9 N    1.783    19 H    0.944    20 H    0.943
    11   6 C    3.923 --    12 O    1.731    13 N    1.095     9 N    1.013
    12   8 O    2.055 --    11 C    1.731    13 N    0.142
    13   7 N    3.515 --     5 C    1.139    11 C    1.095    14 C    0.976
                            12 O    0.142
    14   6 C    3.929 --    13 N    0.976    22 H    0.974    23 H    0.969
                            24 H    0.965
    15   1 H    0.987 --     1 C    0.955
    16   1 H    0.988 --     1 C    0.970
    17   1 H    0.980 --     1 C    0.956
    18   1 H    0.984 --     3 C    0.952
    19   1 H    0.977 --    10 C    0.944
    20   1 H    0.979 --    10 C    0.943
    21   1 H    0.964 --     7 C    0.949
    22   1 H    0.990 --    14 C    0.974
    23   1 H    0.990 --    14 C    0.969
    24   1 H    0.984 --    14 C    0.965
    25   1 H    0.946 --     4 N    0.917
 ---------------------------------------------------------------------------

molecular dipole:
                 x           y           z       tot (Debye)
 q only:        2.218      -1.625      -0.053
   full:        2.248      -2.013      -0.162       7.683

           -------------------------------------------------
          | TOTAL ENERGY              -59.733172206842 Eh   |
          | GRADIENT NORM               0.003356701008 Eh/α |
          | HOMO-LUMO GAP               2.336224374804 eV   |
           -------------------------------------------------

 * finished run on 2024/06/05 at 19:58:11.698
