   * xtb version 6.6.1 (8d0f1dd) compiled by 'conda@1efc2f54142f' on 2023-08-01
          program call               : xtb struc.xyz --opt loose --input .xc1 --gfn2

   ID    Z sym.   atoms
    1    6 C      1, 3, 5-7, 10, 11, 14
    2    7 N      2, 4, 9, 13
    3    8 O      8, 12
    4    1 H      15-25
constraining bond 5 8 to    5.7600000 Å, actual value:    3.6017282 Å

          :  Hamiltonian                  GFN2-xTB          :
 * total energy  :    -8.9788465 Eh     change       -0.6650680E-10 Eh
 * total energy  :   -26.2889031 Eh     change       -0.1731006E+02 Eh
 * total energy  :   -35.8868551 Eh     change       -0.9597952E+01 Eh
 * total energy  :   -40.4801610 Eh     change       -0.4593306E+01 Eh
 * total energy  :   -41.6398995 Eh     change       -0.1159739E+01 Eh
 * total energy  :   -41.6941925 Eh     change       -0.5429301E-01 Eh
 * total energy  :   -41.7039610 Eh     change       -0.9768447E-02 Eh
 * total energy  :   -41.7438157 Eh     change       -0.3985475E-01 Eh
 * total energy  :   -41.7541244 Eh     change       -0.1030871E-01 Eh
 * total energy  :   -41.7717277 Eh     change       -0.1760327E-01 Eh
 * total energy  :   -42.1111558 Eh     change       -0.8661439E-03 Eh
 * total energy  :   -42.1120635 Eh     change       -0.9076911E-03 Eh
 * total energy  :   -42.1132745 Eh     change       -0.1211002E-02 Eh
 * total energy  :   -42.1141200 Eh     change       -0.8454565E-03 Eh
 * total energy  :   -42.1141028 Eh     change        0.1720680E-04 Eh
 * total energy  :   -42.1146909 Eh     change       -0.5881034E-03 Eh
 * total energy  :   -42.1147910 Eh     change       -0.1000835E-03 Eh
 * total energy  :   -42.1148984 Eh     change       -0.1074494E-03 Eh
 * total energy  :   -42.1149427 Eh     change       -0.4431108E-04 Eh
   *** GEOMETRY OPTIMIZATION CONVERGED AFTER 79 ITERATIONS ***

 final structure:
================
25
 xtb: 6.6.1 (8d0f1dd)
C            3.33439991520824        0.89176642026339        0.07254711311911
N            2.38735345629237       -0.18785243060882        0.05509396588195
C            2.65716312797316       -1.48927095827302        0.12000621112367
N            1.50560589836394       -2.21825306802847        0.07952970157744
C            0.48752385464165       -1.34963442517738       -0.01664414381080
C            1.01862029630341       -0.02468234649322       -0.03152803805117
C            0.28798602506681        1.19416073323792       -0.07745250526404
O           -2.35163848919104        3.62947744758573       -0.50583588181251
N           -1.04718509381011        1.12145340745116       -0.16908142935591
C           -2.10099389768511        2.40165830004892        0.15280163474815
C           -1.67419476456577       -0.14349977893346       -0.20881192885478
O           -2.86190741393269       -0.27516844807928       -0.30007001263743
N           -0.86989054926644       -1.36328199999011       -0.11201974108925
C           -1.59405709869952       -2.62284332271093       -0.11267770436494
H            3.81943978746962        0.96114670325376        1.04693931238327
H            4.09858096075182        0.74510013340329       -0.69019372541976
H            2.78988926671419        1.81355154198831       -0.12346381100932
H            3.63576956177828       -1.91915167976482        0.19226967765672
H           -1.62559615190117        4.25318141640393       -0.38393190708959
H           -3.04116462247803        1.85147425045848        0.08743018770171
H           -1.79545935768434        2.58106666344470        1.18844041046701
H           -1.37362889604016       -3.18086588076637        0.79789954286980
H           -1.32164858319134       -3.21497167800158       -0.98708774132365
H           -2.66077123054293       -2.40889248758163       -0.15063709386328
H            1.45623551252613       -3.22742997152953        0.10764952431738

          :  Hamiltonian                  GFN2-xTB          :
         :: total energy             -42.114942723328 Eh    ::
         :: gradient norm              0.003821582106 Eh/a0 ::
         :: HOMO-LUMO gap              1.613743257139 eV    ::
         :: SCC energy               -42.595474236422 Eh    ::
         :: -> dispersion             -0.021532740540 Eh    ::
         :: repulsion energy           0.480072851026 Eh    ::

    * Orbital Energies and Occupations

         #    Occupation            Energy/Eh            Energy/eV
      -------------------------------------------------------------
         1        2.0000           -0.8983032             -24.4441
       ...           ...                  ...                  ...
        25        2.0000           -0.6605994             -17.9758
        26        2.0000           -0.6547671             -17.8171
        27        2.0000           -0.6481417             -17.6368
        28        1.9999           -0.6289198             -17.1138
        29        1.9999           -0.6252629             -17.0143
        30        1.9998           -0.6154451             -16.7471
        31        1.9997           -0.6119573             -16.6522
        32        1.9996           -0.6031584             -16.4128
        33        1.9990           -0.5898151             -16.0497
        34        1.9973           -0.5745660             -15.6347
        35        1.9948           -0.5640854             -15.3495
        36        1.9835           -0.5456416             -14.8477
        37        1.7320           -0.4993863             -13.5890 (HOMO)
        38        0.2650           -0.4400823             -11.9753 (LUMO)
        39        0.0246           -0.4004027             -10.8955
        40        0.0046           -0.3737533             -10.1703
        41        0.0004           -0.3331038              -9.0642
        42        0.0000           -0.2882786              -7.8445
        43        0.0000           -0.2102444              -5.7210
        44                         -0.1765809              -4.8050
        45                         -0.1384841              -3.7683
        46                         -0.0804915              -2.1903
        47                         -0.0758217              -2.0632
        48                         -0.0541532              -1.4736
       ...                                ...                  ...
        67                          0.5174596              14.0808
      -------------------------------------------------------------
                  HL-Gap            0.0593040 Eh            1.6137 eV

     #   Z          covCN         q      C6AA      α(0)
     1   6 C        3.692    -0.090    22.412     6.774
     2   7 N        2.821     0.067    20.075     6.655
     3   6 C        3.059     0.045    26.940     8.512
     4   7 N        2.761    -0.051    22.230     7.003
     5   6 C        3.041     0.114    25.442     8.273
     6   6 C        3.087     0.013    27.627     8.616
     7   6 C        1.914    -0.106    34.032     9.421
     8   8 O        1.654    -0.352    19.945     6.029
     9   7 N        2.668    -0.064    22.487     7.043
    10   6 C        3.536     0.114    19.762     6.523
    11   6 C        2.704     0.315    21.644     7.615
    12   8 O        0.858    -0.355    20.808     6.116
    13   7 N        2.746    -0.059    22.387     7.027
    14   6 C        3.695    -0.069    21.998     6.710
    15   1 H        0.924     0.104     1.746     2.066
    16   1 H        0.925     0.103     1.760     2.074
    17   1 H        0.925     0.120     1.611     1.985
    18   1 H        0.926     0.115     1.656     2.013
    19   1 H        0.805     0.321     0.660     1.276
    20   1 H        0.924     0.132     1.517     1.926
    21   1 H        0.924     0.081     1.968     2.194
    22   1 H        0.924     0.076     2.019     2.222
    23   1 H        0.924     0.079     1.990     2.206
    24   1 H        0.925     0.123     1.591     1.973
    25   1 H        0.860     0.223     0.994     1.562

Wiberg/Mayer (AO) data.
largest (>0.10) Wiberg bond orders for each atom

     #   Z sym  total        # sym  WBO       # sym  WBO       # sym  WBO
 ---------------------------------------------------------------------------
     1   6 C    3.926 --     2 N    0.990    17 H    0.968    16 H    0.964
                            15 H    0.959
     2   7 N    3.639 --     3 C    1.384     6 C    1.138     1 C    0.990
     3   6 C    3.794 --     2 N    1.384     4 N    1.235    18 H    0.955
     4   7 N    3.591 --     3 C    1.235     5 C    1.233    25 H    0.920
     5   6 C    3.900 --     6 C    1.252     4 N    1.233    13 N    1.227
     6   6 C    3.888 --     5 C    1.252     7 C    1.244     2 N    1.138
     7   6 C    2.795 --     9 N    1.380     6 C    1.244
     8   8 O    2.104 --    10 C    1.119    19 H    0.883
     9   7 N    3.552 --     7 C    1.380    11 C    1.097    10 C    0.798
                            12 O    0.115
    10   6 C    3.892 --     8 O    1.119    21 H    0.963    20 H    0.954
                             9 N    0.798
    11   6 C    3.927 --    12 O    1.732     9 N    1.097    13 N    1.008
    12   8 O    2.074 --    11 C    1.732    13 N    0.131     9 N    0.115
    13   7 N    3.533 --     5 C    1.227    11 C    1.008    14 C    0.980
                            12 O    0.131
    14   6 C    3.930 --    13 N    0.980    22 H    0.971    23 H    0.970
                            24 H    0.964
    15   1 H    0.984 --     1 C    0.959
    16   1 H    0.986 --     1 C    0.964
    17   1 H    0.985 --     1 C    0.968
    18   1 H    0.986 --     3 C    0.955
    19   1 H    0.896 --     8 O    0.883
    20   1 H    0.981 --    10 C    0.954
    21   1 H    0.989 --    10 C    0.963
    22   1 H    0.992 --    14 C    0.971
    23   1 H    0.991 --    14 C    0.970
    24   1 H    0.984 --    14 C    0.964
    25   1 H    0.949 --     4 N    0.920
 ---------------------------------------------------------------------------

molecular dipole:
                 x           y           z       tot (Debye)
 q only:        2.905      -1.144       0.537
   full:        3.310      -1.882       0.605       9.800

           -------------------------------------------------
          | TOTAL ENERGY              -42.114942723328 Eh   |
          | GRADIENT NORM               0.003821582106 Eh/α |
          | HOMO-LUMO GAP               1.613743257139 eV   |
           -------------------------------------------------

 * finished run on 2024/06/05 at 20:00:12.067
