   * xtb version 6.6.1 (8d0f1dd) compiled by 'conda@1efc2f54142f' on 2023-08-01
          program call               : xtb xtbopt.xyz --opt crude --input .xc2 --gfn2

   ID    Z sym.   atoms
    1    6 C      1, 3, 5-7, 10, 11, 14
    2    7 N      2, 4, 9, 13
    3    8 O      8, 12
    4    1 H      15-25
########################################################################
[WARNING] Please study the warnings concerning your input carefully
-1- readin_getIntValue: could not parse ''
########################################################################

          :  Hamiltonian                  GFN2-xTB          :
 * total energy  :   -42.1153402 Eh     change       -0.2984279E-12 Eh
 * total energy  :   -42.1387608 Eh     change       -0.2342055E-01 Eh
 * total energy  :   -42.1541507 Eh     change       -0.1538991E-01 Eh
 * total energy  :   -42.1593943 Eh     change       -0.5243586E-02 Eh
 * total energy  :   -42.1607311 Eh     change       -0.1336839E-02 Eh
 * total energy  :   -42.1619375 Eh     change       -0.1206431E-02 Eh
 * total energy  :   -42.1629596 Eh     change       -0.1022035E-02 Eh
 * total energy  :   -42.1634591 Eh     change       -0.4995208E-03 Eh
 * total energy  :   -42.1638656 Eh     change       -0.4065221E-03 Eh
 * total energy  :   -42.1641600 Eh     change       -0.2943362E-03 Eh
 * total energy  :   -42.1643104 Eh     change       -0.1504244E-03 Eh
 * total energy  :   -42.1644482 Eh     change       -0.1377886E-03 Eh
   *** GEOMETRY OPTIMIZATION CONVERGED AFTER 12 ITERATIONS ***

 final structure:
================
25
 xtb: 6.6.1 (8d0f1dd)
C            3.27832565658150        0.99289384212626        0.12951962110392
N            2.31158614845251       -0.06794316814233        0.06344737925169
C            2.55423843234516       -1.37198722822350       -0.02226682254308
N            1.38510340666551       -2.05931347329241       -0.06617572761093
C            0.36875514786481       -1.15633077494534       -0.00661252630026
C            0.94608215252303        0.11523116413553        0.08026687261529
C            0.16829939353331        1.28177621807756        0.14940113865088
O           -1.68504063663418        3.11843976482956       -0.83441185930639
N           -1.14904598882946        1.04283596082996        0.14097941873750
C           -2.03166187805170        2.24226535636134        0.15846517979627
C           -1.79678581709776       -0.19451144049632        0.06271002846853
O           -2.98989300553514       -0.31768337180665        0.06801646243553
N           -0.95994974220739       -1.33031159308267       -0.02014899261479
C           -1.56770723964402       -2.64163471663517       -0.13674599809478
H            3.78367809961899        0.99284548795485        1.09648528422109
H            4.02417809203306        0.87795838780491       -0.65622896095884
H            2.75294508600436        1.93768067911339        0.00286367567712
H            3.52567737401683       -1.82372020420594       -0.05363411155612
H           -0.84523363232792        3.55620294983142       -0.63165923834329
H           -3.05385850236278        1.90136692957641       -0.02981776117212
H           -1.96171722869289        2.67517615818670        1.16933300606376
H           -1.32687115134688       -3.25208112676467        0.73445902547179
H           -1.22849541422463       -3.13492435490845       -1.04753401398832
H           -2.64652862334236       -2.50151165613429       -0.18539873595047
H            1.30435138475846       -3.06448124858960       -0.13414072615431

          :  Hamiltonian                  GFN2-xTB          :
         :: total energy             -42.164448175188 Eh    ::
         :: gradient norm              0.005552546118 Eh/a0 ::
         :: HOMO-LUMO gap              1.769242656841 eV    ::
         :: SCC energy               -42.670047678072 Eh    ::
         :: -> dispersion             -0.022154215954 Eh    ::
         :: repulsion energy           0.505491254328 Eh    ::

    * Orbital Energies and Occupations

         #    Occupation            Energy/Eh            Energy/eV
      -------------------------------------------------------------
         1        2.0000           -0.9059774             -24.6529
       ...           ...                  ...                  ...
        25        2.0000           -0.6653664             -18.1055
        26        2.0000           -0.6620346             -18.0149
        27        2.0000           -0.6475396             -17.6204
        28        1.9999           -0.6358163             -17.3014
        29        1.9999           -0.6302651             -17.1504
        30        1.9998           -0.6239543             -16.9787
        31        1.9998           -0.6196530             -16.8616
        32        1.9995           -0.6090139             -16.5721
        33        1.9981           -0.5873722             -15.9832
        34        1.9949           -0.5719270             -15.5629
        35        1.9881           -0.5584075             -15.1950
        36        1.9837           -0.5533398             -15.0571
        37        1.7779           -0.5102770             -13.8853 (HOMO)
        38        0.2330           -0.4452585             -12.1161 (LUMO)
        39        0.0228           -0.4066649             -11.0659
        40        0.0028           -0.3730648             -10.1516
        41        0.0000           -0.2863949              -7.7932
        42                         -0.2039366              -5.5494
        43                         -0.1936652              -5.2699
        44                         -0.1394292              -3.7941
        45                         -0.1239908              -3.3740
        46                         -0.0758210              -2.0632
        47                         -0.0461680              -1.2563
        48                         -0.0391950              -1.0665
       ...                                ...                  ...
        67                          0.5345553              14.5460
      -------------------------------------------------------------
                  HL-Gap            0.0650185 Eh            1.7692 eV

     #   Z          covCN         q      C6AA      α(0)
     1   6 C        3.692    -0.089    22.399     6.772
     2   7 N        2.827     0.068    20.062     6.652
     3   6 C        3.049     0.051    26.805     8.491
     4   7 N        2.783    -0.063    22.455     7.038
     5   6 C        3.045     0.115    25.426     8.270
     6   6 C        3.119     0.022    27.347     8.565
     7   6 C        1.923    -0.118    34.379     9.469
     8   8 O        1.658    -0.384    20.545     6.119
     9   7 N        2.756    -0.034    21.901     6.951
    10   6 C        3.629     0.130    18.851     6.252
    11   6 C        2.720     0.314    21.667     7.620
    12   8 O        0.859    -0.363    20.959     6.138
    13   7 N        2.739    -0.044    22.099     6.982
    14   6 C        3.697    -0.071    22.027     6.713
    15   1 H        0.924     0.107     1.725     2.054
    16   1 H        0.925     0.104     1.749     2.068
    17   1 H        0.925     0.120     1.610     1.984
    18   1 H        0.926     0.118     1.629     1.996
    19   1 H        0.804     0.323     0.656     1.272
    20   1 H        0.924     0.113     1.674     2.023
    21   1 H        0.923     0.068     2.110     2.272
    22   1 H        0.924     0.083     1.951     2.184
    23   1 H        0.925     0.081     1.965     2.192
    24   1 H        0.925     0.126     1.567     1.957
    25   1 H        0.860     0.224     0.990     1.559

Wiberg/Mayer (AO) data.
largest (>0.10) Wiberg bond orders for each atom

     #   Z sym  total        # sym  WBO       # sym  WBO       # sym  WBO
 ---------------------------------------------------------------------------
     1   6 C    3.925 --     2 N    0.989    17 H    0.969    16 H    0.965
                            15 H    0.957
     2   7 N    3.647 --     3 C    1.387     6 C    1.134     1 C    0.989
     3   6 C    3.808 --     2 N    1.387     4 N    1.257    18 H    0.954
     4   7 N    3.585 --     3 C    1.257     5 C    1.201    25 H    0.920
     5   6 C    3.907 --     6 C    1.281    13 N    1.234     4 N    1.201
     6   6 C    3.898 --     5 C    1.281     7 C    1.241     2 N    1.134
     7   6 C    2.783 --     9 N    1.355     6 C    1.241
     8   8 O    2.021 --    10 C    1.062    19 H    0.876
     9   7 N    3.596 --     7 C    1.355    11 C    1.079    10 C    0.911
                            12 O    0.117
    10   6 C    3.913 --     8 O    1.062    20 H    0.951    21 H    0.949
                             9 N    0.911
    11   6 C    3.937 --    12 O    1.712     9 N    1.079    13 N    1.046
    12   8 O    2.053 --    11 C    1.712    13 N    0.130     9 N    0.117
    13   7 N    3.563 --     5 C    1.234    11 C    1.046    14 C    0.974
                            12 O    0.130
    14   6 C    3.925 --    13 N    0.974    23 H    0.971    22 H    0.969
                            24 H    0.964
    15   1 H    0.984 --     1 C    0.957
    16   1 H    0.986 --     1 C    0.965
    17   1 H    0.985 --     1 C    0.969
    18   1 H    0.985 --     3 C    0.954
    19   1 H    0.895 --     8 O    0.876
    20   1 H    0.985 --    10 C    0.951
    21   1 H    0.987 --    10 C    0.949
    22   1 H    0.991 --    14 C    0.969
    23   1 H    0.991 --    14 C    0.971
    24   1 H    0.984 --    14 C    0.964
    25   1 H    0.949 --     4 N    0.920
 ---------------------------------------------------------------------------

molecular dipole:
                 x           y           z       tot (Debye)
 q only:        3.058      -1.371       0.298
   full:        3.374      -2.175       0.428      10.261

           -------------------------------------------------
          | TOTAL ENERGY              -42.164448175188 Eh   |
          | GRADIENT NORM               0.005552546118 Eh/α |
          | HOMO-LUMO GAP               1.769242656841 eV   |
           -------------------------------------------------

 * finished run on 2024/06/05 at 20:00:12.499
