   * xtb version 6.6.1 (8d0f1dd) compiled by 'conda@1efc2f54142f' on 2023-08-01
          program call               : xtb xtbopt.xyz --opt crude --input .xc2 --gfn2

   ID    Z sym.   atoms
    1    6 C      1, 3, 5-7, 10, 11, 14
    2    7 N      2, 4, 9, 13
    3    8 O      8, 12
    4    1 H      15-25
########################################################################
[WARNING] Please study the warnings concerning your input carefully
-1- readin_getIntValue: could not parse ''
########################################################################

          :  Hamiltonian                  GFN2-xTB          :
 * total energy  :   -42.1206428 Eh     change       -0.1371347E-11 Eh
   *** GEOMETRY OPTIMIZATION CONVERGED AFTER 1 ITERATIONS ***

 final structure:
================
25
 xtb: 6.6.1 (8d0f1dd)
C            3.07774147262693        0.11990063924017       -1.10426101948105
N            2.38641565738893        0.26163288421431        0.16862173236564
C            3.00396993736826        0.67019499188092        1.19822286954638
N            0.99897109038604       -2.28442832924925       -0.42261324576174
C            0.38887679999053       -1.17628882853539       -0.19156332407558
C            0.97388052719108        0.07585984628079        0.16245526030735
C            0.17754483033409        1.18225039610331        0.61695045174431
O            0.65609760621145        2.21140415622189        1.06496565360446
N           -1.19748370729979        1.01367754444745        0.49205491396961
C           -2.06900063359156        2.10834578368927        0.86420684484563
C           -1.81132823896456       -0.13662250409660        0.02927861537607
O           -3.01165893496419       -0.20074076299338       -0.08538198546786
N           -0.98959755477501       -1.20731503420879       -0.27256648522528
C           -1.61128756322111       -2.45459150819109       -0.65641201948931
H            2.86890941915027        0.99879347132129       -1.72204675669865
H            4.15104262148857        0.06516319110841       -0.92849872812066
H            2.73755998323222       -0.76446942164214       -1.64073009626981
H            2.59861886889928        0.88392734648131        2.17065281893172
H           -1.45321424219452        2.93169856081273        1.22534309704340
H           -2.65911429907998        2.42674380875930        0.00127547390824
H           -2.76446543095098        1.78445845141200        1.64216720786949
H           -1.33315335079887       -3.23902083499040        0.05100805112399
H           -1.26316149297800       -2.75644634362449       -1.64625030409061
H           -2.69252386439160       -2.31861689728714       -0.66376244215671
H            1.99679201304609       -2.37727206555506       -0.32194496589956

          :  Hamiltonian                  GFN2-xTB          :
         :: total energy             -42.120642816749 Eh    ::
         :: gradient norm              0.002659955191 Eh/a0 ::
         :: HOMO-LUMO gap              0.567530897198 eV    ::
         :: SCC energy               -42.633662203321 Eh    ::
         :: -> dispersion             -0.022579112758 Eh    ::
         :: repulsion energy           0.512823230608 Eh    ::

    * Orbital Energies and Occupations

         #    Occupation            Energy/Eh            Energy/eV
      -------------------------------------------------------------
         1        2.0000           -0.8989027             -24.4604
       ...           ...                  ...                  ...
        25        1.9966           -0.6785746             -18.4650
        26        1.9911           -0.6554950             -17.8369
        27        1.9897           -0.6521051             -17.7447
        28        1.9871           -0.6467458             -17.5988
        29        1.9766           -0.6324493             -17.2098
        30        1.9749           -0.6307074             -17.1624
        31        1.9695           -0.6260165             -17.0348
        32        1.9247           -0.6040244             -16.4363
        33        1.8954           -0.5958652             -16.2143
        34        1.8740           -0.5911727             -16.0866
        35        1.7992           -0.5791363             -15.7591
        36        1.7180           -0.5699744             -15.5098
        37        1.5927           -0.5594433             -15.2232 (HOMO)
        38        1.2380           -0.5385869             -14.6557 (LUMO)
        39        0.0635           -0.4458886             -12.1332
        40        0.0131           -0.4078624             -11.0985
        41        0.0082           -0.3966999             -10.7948
        42        0.0002           -0.3094016              -8.4192
        43        0.0000           -0.2162241              -5.8838
        44        0.0000           -0.1706985              -4.6449
        45        0.0000           -0.1434418              -3.9033
        46                         -0.0981444              -2.6706
        47                         -0.0863962              -2.3510
        48                         -0.0337259              -0.9177
       ...                                ...                  ...
        67                          0.5071227              13.7995
      -------------------------------------------------------------
                  HL-Gap            0.0208564 Eh            0.5675 eV

     #   Z          covCN         q      C6AA      α(0)
     1   6 C        3.713    -0.086    22.275     6.744
     2   7 N        2.731     0.128    19.064     6.485
     3   6 C        1.891    -0.027    31.828     9.112
     4   7 N        1.792    -0.268    27.798     7.810
     5   6 C        2.827     0.162    24.489     8.109
     6   6 C        2.925    -0.040    28.989     8.830
     7   6 C        2.768     0.264    22.546     7.776
     8   8 O        0.859    -0.345    20.609     6.087
     9   7 N        2.742    -0.061    22.415     7.032
    10   6 C        3.704    -0.060    21.804     6.676
    11   6 C        2.718     0.317    21.606     7.609
    12   8 O        0.860    -0.327    20.283     6.038
    13   7 N        2.759    -0.031    21.838     6.941
    14   6 C        3.706    -0.072    22.033     6.710
    15   1 H        0.924     0.118     1.627     1.995
    16   1 H        0.925     0.125     1.576     1.963
    17   1 H        0.925     0.105     1.737     2.061
    18   1 H        0.926     0.144     1.433     1.872
    19   1 H        0.925     0.131     1.530     1.935
    20   1 H        0.924     0.123     1.589     1.971
    21   1 H        0.924     0.123     1.593     1.974
    22   1 H        0.924     0.125     1.575     1.963
    23   1 H        0.924     0.123     1.588     1.971
    24   1 H        0.925     0.134     1.508     1.921
    25   1 H        0.860     0.194     1.135     1.669

Wiberg/Mayer (AO) data.
largest (>0.10) Wiberg bond orders for each atom

     #   Z sym  total        # sym  WBO       # sym  WBO       # sym  WBO
 ---------------------------------------------------------------------------
     1   6 C    3.873 --    16 H    0.961     2 N    0.959    17 H    0.956
                            15 H    0.943
     2   7 N    3.686 --     3 C    1.700     6 C    0.988     1 C    0.959
     3   6 C    2.777 --     2 N    1.700    18 H    0.917
     4   7 N    2.663 --     5 C    1.557    25 H    0.925
     5   6 C    3.933 --     4 N    1.557     6 C    1.164    13 N    1.114
     6   6 C    3.498 --     5 C    1.164     7 C    1.128     2 N    0.988
     7   6 C    3.920 --     8 O    1.608     6 C    1.128     9 N    1.087
     8   8 O    1.863 --     7 C    1.608     9 N    0.101
     9   7 N    3.445 --    11 C    1.102     7 C    1.087    10 C    0.984
                            12 O    0.104     8 O    0.101
    10   6 C    3.838 --     9 N    0.984    19 H    0.948    21 H    0.933
                            20 H    0.932
    11   6 C    3.945 --    12 O    1.652    13 N    1.108     9 N    1.102
    12   8 O    1.935 --    11 C    1.652    13 N    0.106     9 N    0.104
    13   7 N    3.459 --     5 C    1.114    11 C    1.108    14 C    0.986
                            12 O    0.106
    14   6 C    3.841 --    13 N    0.986    24 H    0.946    23 H    0.935
                            22 H    0.932
    15   1 H    0.973 --     1 C    0.943
    16   1 H    0.975 --     1 C    0.961
    17   1 H    0.980 --     1 C    0.956
    18   1 H    0.939 --     3 C    0.917
    19   1 H    0.966 --    10 C    0.948
    20   1 H    0.948 --    10 C    0.932
    21   1 H    0.949 --    10 C    0.933
    22   1 H    0.949 --    14 C    0.932
    23   1 H    0.951 --    14 C    0.935
    24   1 H    0.965 --    14 C    0.946
    25   1 H    0.950 --     4 N    0.925
 ---------------------------------------------------------------------------

molecular dipole:
                 x           y           z       tot (Debye)
 q only:        1.253      -0.792      -0.376
   full:        1.357      -0.674      -0.254       3.904

           -------------------------------------------------
          | TOTAL ENERGY              -42.120642816749 Eh   |
          | GRADIENT NORM               0.002659955191 Eh/α |
          | HOMO-LUMO GAP               0.567530897198 eV   |
           -------------------------------------------------

 * finished run on 2024/06/05 at 19:58:45.204
