   * xtb version 6.6.1 (8d0f1dd) compiled by 'conda@1efc2f54142f' on 2023-08-01
          program call               : xtb struc.xyz --opt loose --input .xc1 --gfn2

   ID    Z sym.   atoms
    1    6 C      1, 3, 5-7, 10, 11, 14
    2    7 N      2, 4, 9, 13
    3    8 O      8, 12
    4    1 H      15-25
constraining bond 6 19 to    4.7133300 Å, actual value:    3.8841935 Å

          :  Hamiltonian                  GFN2-xTB          :
 * total energy  :   -43.4753536 Eh     change       -0.6650680E-10 Eh
 * total energy  :   -46.4365393 Eh     change       -0.2961186E+01 Eh
 * total energy  :   -50.8119898 Eh     change       -0.4375450E+01 Eh
 * total energy  :   -56.4841949 Eh     change       -0.5672205E+01 Eh
 * total energy  :   -62.0970659 Eh     change       -0.5612871E+01 Eh
 * total energy  :   -69.6888608 Eh     change       -0.7591795E+01 Eh
 * total energy  :   -49.5950684 Eh     change        0.2009379E+02 Eh
 * total energy  :   -71.5908134 Eh     change       -0.2199574E+02 Eh
 * total energy  :   -71.9584287 Eh     change       -0.3676153E+00 Eh
 * total energy  :   -72.7931075 Eh     change       -0.8346788E+00 Eh
 * total energy  :   -73.3443636 Eh     change       -0.2070388E-04 Eh
 * total energy  :   -73.3443520 Eh     change        0.1166000E-04 Eh
 * total energy  :   -73.3443992 Eh     change       -0.4725235E-04 Eh
 * total energy  :   -73.3444134 Eh     change       -0.1423173E-04 Eh
 * total energy  :   -73.3443989 Eh     change        0.1451629E-04 Eh
 * total energy  :   -73.3444402 Eh     change       -0.4125250E-04 Eh
 * total energy  :   -73.3444498 Eh     change       -0.9622524E-05 Eh
 * total energy  :   -73.3444656 Eh     change       -0.1583760E-04 Eh
 * total energy  :   -73.3444763 Eh     change       -0.1067076E-04 Eh
   *** GEOMETRY OPTIMIZATION CONVERGED AFTER 90 ITERATIONS ***

 final structure:
================
25
 xtb: 6.6.1 (8d0f1dd)
C            3.98304848600937        0.77186865527241        0.30011913971494
N            2.68863671614147        0.20292271388717        0.21637831418763
C            2.46995211162061       -1.02937377434946        0.06622377501987
N            1.19613654808557       -1.52538133823357       -0.01487442871093
C            0.07665666640361       -0.74934831922489        0.05574117897115
C            0.02094333922591        0.63961416530766        0.27109315247921
C           -1.92270711240120        2.88421021957677       -0.86144373995070
O           -1.64702924136662        3.23467676533348       -1.92308882945912
N           -1.39736176495693        0.86306844666340        0.24498870848533
C           -2.06257330055024        2.14308623384175        0.35381396657084
C           -2.11984707636815       -0.29557203110606        0.01511847630067
O           -3.31732540312123       -0.38275752422380       -0.06145845521666
N           -1.17192131865777       -1.29248733013819       -0.08604392971164
C           -1.51340470196038       -2.67408914343958       -0.31473618274320
H            4.06240577093626        1.30738516892798        1.24746017017357
H            4.78939086425052        0.03320028365109        0.22967385504783
H            4.08991405058288        1.50348374425842       -0.50242034687262
H            3.24785146138309       -1.79540309479114       -0.01417518305613
H            0.28806902346586        0.90751645321222        0.33278173983532
H           -3.13287804393491        1.92719901571798        0.52993285737613
H           -1.67831839623502        2.72210377094046        1.20624158641138
H           -1.18278832325616       -3.29907356563075        0.51624967158299
H           -1.08100337425193       -3.03244156952860       -1.25004365291239
H           -2.59960333434993       -2.72608050136503       -0.38420902259375
H            1.07418786740752       -2.52008890296205       -0.14215120303184

          :  Hamiltonian                  GFN2-xTB          :
         :: total energy             -73.344476306679 Eh    ::
         :: gradient norm              0.001964703150 Eh/a0 ::
         :: HOMO-LUMO gap              1.418588653095 eV    ::
         :: SCC energy               -42.699342384002 Eh    ::
         :: -> dispersion             -0.020565566185 Eh    ::
         :: repulsion energy           2.831719638886 Eh    ::

    * Orbital Energies and Occupations

         #    Occupation            Energy/Eh            Energy/eV
      -------------------------------------------------------------
         1        2.0000           -0.9456727             -25.7331
       ...           ...                  ...                  ...
        25        2.0000           -0.6562808             -17.8583
        26        2.0000           -0.6554913             -17.8368
        27        1.9999           -0.6500495             -17.6887
        28        1.9999           -0.6398574             -17.4114
        29        1.9999           -0.6389299             -17.3862
        30        1.9995           -0.6173775             -16.7997
        31        1.9995           -0.6155403             -16.7497
        32        1.9991           -0.6071462             -16.5213
        33        1.9970           -0.5886426             -16.0178
        34        1.9902           -0.5695539             -15.4983
        35        1.9684           -0.5508820             -14.9903
        36        1.8287           -0.5229588             -14.2304
        37        1.7106           -0.5135951             -13.9756 (HOMO)
        38        0.3602           -0.4614629             -12.5570 (LUMO)
        39        0.1435           -0.4449290             -12.1071
        40        0.0035           -0.3849197             -10.4742
        41        0.0002           -0.3409477              -9.2777
        42        0.0001           -0.3222091              -8.7678
        43                         -0.1957848              -5.3276
        44                         -0.1600886              -4.3562
        45                         -0.1028426              -2.7985
        46                         -0.0817313              -2.2240
        47                         -0.0711489              -1.9361
        48                         -0.0516124              -1.4044
       ...                                ...                  ...
        67                         14.6451585             398.5150
      -------------------------------------------------------------
                  HL-Gap            0.0521322 Eh            1.4186 eV

     #   Z          covCN         q      C6AA      α(0)
     1   6 C        3.708    -0.044    21.506     6.629
     2   7 N        1.831    -0.183    25.765     7.522
     3   6 C        2.785     0.119    25.376     8.251
     4   7 N        2.696    -0.102    23.240     7.160
     5   6 C        3.018     0.111    25.537     8.289
     6   6 C        2.877    -0.105    30.640     9.074
     7   6 C        1.846     0.253    25.303     8.126
     8   8 O        0.856    -0.049    15.788     5.327
     9   7 N        2.871    -0.085    22.882     7.105
    10   6 C        3.741    -0.011    20.854     6.515
    11   6 C        2.815     0.304    21.852     7.659
    12   8 O        0.857    -0.396    21.595     6.230
    13   7 N        2.802    -0.063    22.449     7.037
    14   6 C        3.689    -0.066    21.967     6.708
    15   1 H        0.924     0.091     1.867     2.137
    16   1 H        0.924     0.061     2.185     2.312
    17   1 H        0.924     0.091     1.870     2.139
    18   1 H        0.924     0.060     2.203     2.321
    19   1 H        0.959     0.181     1.196     1.710
    20   1 H        0.922     0.183     1.192     1.707
    21   1 H        0.923     0.157     1.347     1.815
    22   1 H        0.924     0.082     1.958     2.188
    23   1 H        0.924     0.081     1.966     2.193
    24   1 H        0.925     0.117     1.640     2.003
    25   1 H        0.860     0.213     1.042     1.599

Wiberg/Mayer (AO) data.
largest (>0.10) Wiberg bond orders for each atom

     #   Z sym  total        # sym  WBO       # sym  WBO       # sym  WBO
 ---------------------------------------------------------------------------
     1   6 C    3.937 --     2 N    1.050    16 H    0.953    15 H    0.947
                            17 H    0.947
     2   7 N    2.985 --     3 C    1.754     1 C    1.050
     3   6 C    3.938 --     2 N    1.754     4 N    1.158    18 H    0.923
     4   7 N    3.463 --     5 C    1.162     3 C    1.158    25 H    0.922
     5   6 C    3.905 --     6 C    1.439    13 N    1.168     4 N    1.162
     6   6 C    3.718 --     5 C    1.439     9 N    1.088    19 H    0.952
     7   6 C    3.387 --     8 O    2.187    10 C    1.105
     8   8 O    2.328 --     7 C    2.187
     9   7 N    3.439 --    11 C    1.095     6 C    1.088    10 C    0.969
                            12 O    0.131
    10   6 C    3.945 --     7 C    1.105     9 N    0.969    21 H    0.901
                            20 H    0.882
    11   6 C    3.943 --    12 O    1.644    13 N    1.107     9 N    1.095
    12   8 O    1.968 --    11 C    1.644     9 N    0.131    13 N    0.130
    13   7 N    3.543 --     5 C    1.168    11 C    1.107    14 C    0.985
                            12 O    0.130
    14   6 C    3.933 --    13 N    0.985    23 H    0.969    22 H    0.969
                            24 H    0.968
    15   1 H    0.978 --     1 C    0.947
    16   1 H    0.964 --     1 C    0.953
    17   1 H    0.979 --     1 C    0.947
    18   1 H    0.969 --     3 C    0.923
    19   1 H    0.967 --     6 C    0.952
    20   1 H    0.952 --    10 C    0.882
    21   1 H    0.960 --    10 C    0.901
    22   1 H    0.989 --    14 C    0.969
    23   1 H    0.989 --    14 C    0.969
    24   1 H    0.986 --    14 C    0.968
    25   1 H    0.954 --     4 N    0.922
 ---------------------------------------------------------------------------

molecular dipole:
                 x           y           z       tot (Debye)
 q only:        0.524       0.617       0.255
   full:        0.822       0.202       0.265       2.256

           -------------------------------------------------
          | TOTAL ENERGY              -73.344476306679 Eh   |
          | GRADIENT NORM               0.001964703150 Eh/α |
          | HOMO-LUMO GAP               1.418588653095 eV   |
           -------------------------------------------------

 * finished run on 2024/06/05 at 19:59:27.030
