   * xtb version 6.6.1 (8d0f1dd) compiled by 'conda@1efc2f54142f' on 2023-08-01
          program call               : xtb struc.xyz --opt loose --input .xc1 --gfn2

   ID    Z sym.   atoms
    1    6 C      1, 3, 5-7, 10, 11, 14
    2    7 N      2, 4, 9, 13
    3    8 O      8, 12
    4    1 H      15-25
constraining bond 7 20 to    3.7133300 Å, actual value:    3.1456537 Å

          :  Hamiltonian                  GFN2-xTB          :
 * total energy  :   -42.8232577 Eh     change       -0.6650680E-10 Eh
 * total energy  :   -45.1073678 Eh     change       -0.2284110E+01 Eh
 * total energy  :   -49.0440050 Eh     change       -0.3936637E+01 Eh
 * total energy  :   -54.8442215 Eh     change       -0.5800216E+01 Eh
 * total energy  :   -57.1597897 Eh     change       -0.2315568E+01 Eh
 * total energy  :   -58.0456324 Eh     change       -0.8858427E+00 Eh
 * total energy  :   -58.7888276 Eh     change       -0.7431952E+00 Eh
 * total energy  :   -58.3667750 Eh     change        0.4220526E+00 Eh
 * total energy  :   -59.2768749 Eh     change       -0.9100999E+00 Eh
 * total energy  :   -59.3783021 Eh     change       -0.1014273E+00 Eh
 * total energy  :   -59.7327956 Eh     change       -0.8698076E-04 Eh
 * total energy  :   -59.7328462 Eh     change       -0.5055718E-04 Eh
 * total energy  :   -59.7328858 Eh     change       -0.3958783E-04 Eh
 * total energy  :   -59.7329223 Eh     change       -0.3649521E-04 Eh
 * total energy  :   -59.7329660 Eh     change       -0.4377744E-04 Eh
 * total energy  :   -59.7328518 Eh     change        0.1142504E-03 Eh
 * total energy  :   -59.7329501 Eh     change       -0.9828834E-04 Eh
 * total energy  :   -59.7330018 Eh     change       -0.5170646E-04 Eh
 * total energy  :   -59.7330431 Eh     change       -0.4127423E-04 Eh
   *** GEOMETRY OPTIMIZATION CONVERGED AFTER 47 ITERATIONS ***

 final structure:
================
25
 xtb: 6.6.1 (8d0f1dd)
C            3.12871403693440        1.18820102427650       -0.19668839476834
N            2.14231933598441        0.14417463059065       -0.09196603549865
C            2.37577037087345       -1.12135505177850        0.23006617200049
N            1.21185762728640       -1.79390122492575        0.23936002770752
C            0.20679210298884       -0.92352784532995       -0.09349165088799
C            0.80457694870841        0.29964062571581       -0.31970152596005
C            0.07267217677625        1.60981831499112       -0.79076451739626
O            0.45225186586406        2.63374628814875       -0.17742876319137
N           -1.59064854307653        1.02858200422293        0.12383378957169
C           -2.20961076054974        1.98151068506209        0.69354647548181
C           -2.10891523968519       -0.27906274284582        0.04932110092128
O           -3.27486330301424       -0.54664104613974        0.11618636060460
N           -1.12171360341893       -1.24538494478074       -0.11314629556878
C           -1.52645454779097       -2.63966463898197       -0.14020547892153
H            3.86069406507978        1.08960182737512        0.60270858742900
H            3.64275231489715        1.13086060108128       -1.15738437755762
H            2.63101546273815        2.15423652113680       -0.11370687647734
H            3.33624826041117       -1.54454012963964        0.44826639756284
H           -1.73133852876364        2.95384338528277        0.68092528961094
H           -0.13769584840566        1.57972982657971       -1.15797290054964
H           -3.16383996061627        1.85048296859197        1.19042680025346
H           -1.33003765362249       -3.12914612550441        0.81580062137715
H           -1.01340771413187       -3.16269536980006       -0.94631940456063
H           -2.59976732824596       -2.66710643186344       -0.32307669922846
H            1.10305997687833       -2.77316460986474        0.46258291594709

          :  Hamiltonian                  GFN2-xTB          :
         :: total energy             -59.733043063150 Eh    ::
         :: gradient norm              0.002763459842 Eh/a0 ::
         :: HOMO-LUMO gap              2.338499941795 eV    ::
         :: SCC energy               -42.687321792540 Eh    ::
         :: -> dispersion             -0.023098847546 Eh    ::
         :: repulsion energy           2.269885037389 Eh    ::

    * Orbital Energies and Occupations

         #    Occupation            Energy/Eh            Energy/eV
      -------------------------------------------------------------
         1        2.0000           -0.9090975             -24.7378
       ...           ...                  ...                  ...
        25        2.0000           -0.6723498             -18.2956
        26        2.0000           -0.6658608             -18.1190
        27        2.0000           -0.6589969             -17.9322
        28        1.9998           -0.6348171             -17.2743
        29        1.9998           -0.6333696             -17.2349
        30        1.9997           -0.6282935             -17.0967
        31        1.9996           -0.6242819             -16.9876
        32        1.9993           -0.6163173             -16.7708
        33        1.9992           -0.6128526             -16.6766
        34        1.9962           -0.5891568             -16.0318
        35        1.9796           -0.5623327             -15.3019
        36        1.9424           -0.5455939             -14.8464
        37        1.8997           -0.5364478             -14.5975 (HOMO)
        38        0.1536           -0.4505095             -12.2590 (LUMO)
        39        0.0226           -0.4191096             -11.4046
        40        0.0083           -0.4031614             -10.9706
        41        0.0003           -0.3497207              -9.5164
        42        0.0001           -0.3283458              -8.9347
        43                         -0.1925803              -5.2404
        44                         -0.1868794              -5.0852
        45                         -0.1560796              -4.2471
        46                         -0.1003762              -2.7314
        47                         -0.0667524              -1.8164
        48                         -0.0506802              -1.3791
       ...                                ...                  ...
        67                         10.5037697             285.8221
      -------------------------------------------------------------
                  HL-Gap            0.0859383 Eh            2.3385 eV

     #   Z          covCN         q      C6AA      α(0)
     1   6 C        3.693    -0.095    22.499     6.787
     2   7 N        2.853     0.090    19.685     6.590
     3   6 C        3.048     0.048    26.872     8.502
     4   7 N        2.810    -0.057    22.342     7.020
     5   6 C        3.033     0.105    25.641     8.306
     6   6 C        3.098    -0.021    28.396     8.733
     7   6 C        3.135     0.154    24.462     8.096
     8   8 O        0.863    -0.392    21.515     6.219
     9   7 N        2.207    -0.153    24.740     7.382
    10   6 C        2.791     0.054    26.767     8.475
    11   6 C        2.729     0.330    21.394     7.572
    12   8 O        0.858    -0.340    20.512     6.072
    13   7 N        2.738    -0.060    22.398     7.029
    14   6 C        3.700    -0.072    22.043     6.714
    15   1 H        0.925     0.105     1.744     2.065
    16   1 H        0.924     0.107     1.723     2.052
    17   1 H        0.925     0.137     1.482     1.904
    18   1 H        0.926     0.124     1.584     1.968
    19   1 H        0.925     0.139     1.471     1.897
    20   1 H        0.939     0.166     1.285     1.772
    21   1 H        0.925     0.118     1.627     1.994
    22   1 H        0.924     0.078     1.997     2.210
    23   1 H        0.925     0.081     1.972     2.196
    24   1 H        0.925     0.123     1.593     1.974
    25   1 H        0.860     0.230     0.967     1.541

Wiberg/Mayer (AO) data.
largest (>0.10) Wiberg bond orders for each atom

     #   Z sym  total        # sym  WBO       # sym  WBO       # sym  WBO
 ---------------------------------------------------------------------------
     1   6 C    3.915 --     2 N    0.984    15 H    0.967    17 H    0.958
                            16 H    0.956
     2   7 N    3.717 --     3 C    1.385     6 C    1.207     1 C    0.984
     3   6 C    3.896 --     2 N    1.385     4 N    1.301    18 H    0.952
     4   7 N    3.604 --     3 C    1.301     5 C    1.182    25 H    0.917
     5   6 C    3.933 --     6 C    1.427     4 N    1.182    13 N    1.139
     6   6 C    3.870 --     5 C    1.427     2 N    1.207     7 C    0.909
     7   6 C    3.912 --     8 O    1.669    20 H    0.948     6 C    0.909
                             9 N    0.309
     8   8 O    1.946 --     7 C    1.669     9 N    0.129
     9   7 N    3.365 --    10 C    1.783    11 C    1.014     7 C    0.309
                             8 O    0.129
    10   6 C    3.752 --     9 N    1.783    19 H    0.944    21 H    0.943
    11   6 C    3.923 --    12 O    1.730    13 N    1.094     9 N    1.014
    12   8 O    2.054 --    11 C    1.730    13 N    0.142
    13   7 N    3.515 --     5 C    1.139    11 C    1.094    14 C    0.976
                            12 O    0.142
    14   6 C    3.929 --    13 N    0.976    23 H    0.974    22 H    0.969
                            24 H    0.965
    15   1 H    0.988 --     1 C    0.967
    16   1 H    0.987 --     1 C    0.956
    17   1 H    0.981 --     1 C    0.958
    18   1 H    0.984 --     3 C    0.952
    19   1 H    0.977 --    10 C    0.944
    20   1 H    0.964 --     7 C    0.948
    21   1 H    0.979 --    10 C    0.943
    22   1 H    0.990 --    14 C    0.969
    23   1 H    0.990 --    14 C    0.974
    24   1 H    0.984 --    14 C    0.965
    25   1 H    0.946 --     4 N    0.917
 ---------------------------------------------------------------------------

molecular dipole:
                 x           y           z       tot (Debye)
 q only:        2.222      -1.631       0.076
   full:        2.251      -2.020       0.189       7.702

           -------------------------------------------------
          | TOTAL ENERGY              -59.733043063150 Eh   |
          | GRADIENT NORM               0.002763459842 Eh/α |
          | HOMO-LUMO GAP               2.338499941795 eV   |
           -------------------------------------------------

 * finished run on 2024/06/05 at 20:00:27.350
