   * xtb version 6.6.1 (8d0f1dd) compiled by 'conda@1efc2f54142f' on 2023-08-01
          program call               : xtb xtbopt.xyz --opt crude --input .xc2 --gfn2

   ID    Z sym.   atoms
    1    6 C      1, 3, 5-7, 10, 11, 14
    2    7 N      2, 4, 9, 13
    3    8 O      8, 12
    4    1 H      15-25
########################################################################
[WARNING] Please study the warnings concerning your input carefully
-1- readin_getIntValue: could not parse ''
########################################################################

          :  Hamiltonian                  GFN2-xTB          :
 * total energy  :   -40.3044561 Eh     change       -0.7105427E-13 Eh
 * total energy  :   -42.1291870 Eh     change       -0.1824731E+01 Eh
 * total energy  :   -42.1536356 Eh     change       -0.2444854E-01 Eh
 * total energy  :   -42.1554650 Eh     change       -0.1829461E-02 Eh
 * total energy  :   -42.1563113 Eh     change       -0.8462573E-03 Eh
 * total energy  :   -42.1570882 Eh     change       -0.7769451E-03 Eh
 * total energy  :   -42.1589020 Eh     change       -0.1813771E-02 Eh
 * total energy  :   -42.1603364 Eh     change       -0.1434431E-02 Eh
 * total energy  :   -42.1611031 Eh     change       -0.7666796E-03 Eh
 * total energy  :   -42.1615883 Eh     change       -0.4852345E-03 Eh
 * total energy  :   -42.1619729 Eh     change       -0.3845768E-03 Eh
 * total energy  :   -42.1624550 Eh     change       -0.4820302E-03 Eh
 * total energy  :   -42.1628506 Eh     change       -0.3956216E-03 Eh
 * total energy  :   -42.1625138 Eh     change        0.3367685E-03 Eh
 * total energy  :   -42.1631092 Eh     change       -0.5953701E-03 Eh
 * total energy  :   -42.1631026 Eh     change        0.6613945E-05 Eh
 * total energy  :   -42.1632235 Eh     change       -0.1209208E-03 Eh
   *** GEOMETRY OPTIMIZATION CONVERGED AFTER 17 ITERATIONS ***

 final structure:
================
25
 xtb: 6.6.1 (8d0f1dd)
C            3.23175056440711        1.08601770094730       -0.08184918742637
N            2.29701058556237       -0.00340078528864       -0.04193331511803
C            2.56847359593268       -1.30369164110129       -0.02727707571606
N            1.41590285024855       -2.01814151503458        0.02397687578878
C            0.38116954737123       -1.13808926775182        0.04541273848111
C            0.92842065304804        0.14930123189047        0.00208912623952
C            0.12695107625516        1.30202466318435       -0.02640512037720
O           -1.54346070477724        3.26929955673864       -0.58349123968549
N           -1.18156313864834        1.02496696661521        0.03226796149991
C           -2.10315579616060        2.18275489160458        0.03086473399602
C           -1.80322823852845       -0.22487533286198        0.10490252370906
O           -2.99255274726305       -0.35865730738169        0.16655886781987
N           -0.94371803028554       -1.34377182469297        0.09195384857406
C           -1.52303426082215       -2.67282575915623        0.11016742685658
H            3.63071178806588        1.28439813953563        0.91485601103133
H            4.05815205019868        0.85452740894550       -0.75230484992075
H            2.70730809143769        1.97382008705568       -0.43075395700863
H            3.54853980246466       -1.73677558305343       -0.05185372328516
H           -2.36173784295571        2.39364961050491        1.08394768899166
H           -0.57613514733827        3.22298297010506       -0.46997699082167
H           -3.02005938580394        1.89864118781739       -0.49742992208585
H           -1.22424601019268       -3.20713701266250        1.01232352387665
H           -1.21879171760478       -3.23063586341515       -0.77570850548878
H           -2.60644613088740       -2.55890783383784        0.10702502826175
H            1.36417006037526       -3.02723614710726        0.04380914970737

          :  Hamiltonian                  GFN2-xTB          :
         :: total energy             -42.163223482707 Eh    ::
         :: gradient norm              0.005144430750 Eh/a0 ::
         :: HOMO-LUMO gap              1.870422301719 eV    ::
         :: SCC energy               -42.668864643051 Eh    ::
         :: -> dispersion             -0.022224211564 Eh    ::
         :: repulsion energy           0.505534099175 Eh    ::

    * Orbital Energies and Occupations

         #    Occupation            Energy/Eh            Energy/eV
      -------------------------------------------------------------
         1        2.0000           -0.9086323             -24.7251
       ...           ...                  ...                  ...
        25        2.0000           -0.6702086             -18.2373
        26        2.0000           -0.6606531             -17.9773
        27        1.9999           -0.6439246             -17.5221
        28        1.9999           -0.6384768             -17.3738
        29        1.9999           -0.6338531             -17.2480
        30        1.9998           -0.6272145             -17.0674
        31        1.9997           -0.6219259             -16.9235
        32        1.9996           -0.6156831             -16.7536
        33        1.9990           -0.5995505             -16.3146
        34        1.9970           -0.5824334             -15.8488
        35        1.9877           -0.5602572             -15.2454
        36        1.9493           -0.5375501             -14.6275
        37        1.8157           -0.5159773             -14.0405 (HOMO)
        38        0.2274           -0.4472406             -12.1700 (LUMO)
        39        0.0222           -0.4086394             -11.1196
        40        0.0029           -0.3762207             -10.2375
        41        0.0000           -0.2889840              -7.8637
        42                         -0.2054718              -5.5912
        43                         -0.1951109              -5.3092
        44                         -0.1401683              -3.8142
        45                         -0.1272699              -3.4632
        46                         -0.0775712              -2.1108
        47                         -0.0536574              -1.4601
        48                         -0.0456091              -1.2411
       ...                                ...                  ...
        67                          0.5342245              14.5370
      -------------------------------------------------------------
                  HL-Gap            0.0687368 Eh            1.8704 eV

     #   Z          covCN         q      C6AA      α(0)
     1   6 C        3.692    -0.089    22.394     6.772
     2   7 N        2.827     0.067    20.066     6.653
     3   6 C        3.052     0.052    26.794     8.489
     4   7 N        2.784    -0.062    22.443     7.036
     5   6 C        3.046     0.114    25.439     8.272
     6   6 C        3.124     0.022    27.336     8.562
     7   6 C        1.922    -0.130    34.734     9.518
     8   8 O        1.657    -0.385    20.558     6.121
     9   7 N        2.760    -0.036    21.933     6.956
    10   6 C        3.633     0.134    18.773     6.236
    11   6 C        2.724     0.312    21.697     7.625
    12   8 O        0.859    -0.366    21.014     6.146
    13   7 N        2.738    -0.045    22.112     6.984
    14   6 C        3.697    -0.071    22.030     6.714
    15   1 H        0.924     0.109     1.707     2.043
    16   1 H        0.925     0.104     1.753     2.070
    17   1 H        0.925     0.120     1.617     1.988
    18   1 H        0.926     0.118     1.627     1.995
    19   1 H        0.922     0.080     1.982     2.202
    20   1 H        0.804     0.330     0.638     1.254
    21   1 H        0.924     0.108     1.718     2.050
    22   1 H        0.924     0.083     1.947     2.182
    23   1 H        0.925     0.082     1.960     2.189
    24   1 H        0.925     0.125     1.570     1.960
    25   1 H        0.860     0.225     0.989     1.558

Wiberg/Mayer (AO) data.
largest (>0.10) Wiberg bond orders for each atom

     #   Z sym  total        # sym  WBO       # sym  WBO       # sym  WBO
 ---------------------------------------------------------------------------
     1   6 C    3.925 --     2 N    0.990    16 H    0.968    17 H    0.968
                            15 H    0.955
     2   7 N    3.648 --     3 C    1.388     6 C    1.133     1 C    0.990
     3   6 C    3.810 --     2 N    1.388     4 N    1.257    18 H    0.954
     4   7 N    3.586 --     3 C    1.257     5 C    1.202    25 H    0.919
     5   6 C    3.908 --     6 C    1.282    13 N    1.229     4 N    1.202
     6   6 C    3.901 --     5 C    1.282     7 C    1.241     2 N    1.133
     7   6 C    2.826 --     9 N    1.348     6 C    1.241
     8   8 O    1.984 --    10 C    1.059    20 H    0.841
     9   7 N    3.600 --     7 C    1.348    11 C    1.077    10 C    0.932
                            12 O    0.116
    10   6 C    3.911 --     8 O    1.059    21 H    0.944     9 N    0.932
                            19 H    0.929
    11   6 C    3.940 --    12 O    1.712     9 N    1.077    13 N    1.051
    12   8 O    2.051 --    11 C    1.712    13 N    0.133     9 N    0.116
    13   7 N    3.564 --     5 C    1.229    11 C    1.051    14 C    0.974
                            12 O    0.133
    14   6 C    3.926 --    13 N    0.974    23 H    0.970    22 H    0.970
                            24 H    0.965
    15   1 H    0.983 --     1 C    0.955
    16   1 H    0.987 --     1 C    0.968
    17   1 H    0.985 --     1 C    0.968
    18   1 H    0.985 --     3 C    0.954
    19   1 H    0.973 --    10 C    0.929
    20   1 H    0.890 --     8 O    0.841
    21   1 H    0.979 --    10 C    0.944
    22   1 H    0.991 --    14 C    0.970
    23   1 H    0.991 --    14 C    0.970
    24   1 H    0.984 --    14 C    0.965
    25   1 H    0.949 --     4 N    0.919
 ---------------------------------------------------------------------------

molecular dipole:
                 x           y           z       tot (Debye)
 q only:        3.081      -1.591       0.158
   full:        3.371      -2.540       0.304      10.756

           -------------------------------------------------
          | TOTAL ENERGY              -42.163223482707 Eh   |
          | GRADIENT NORM               0.005144430750 Eh/α |
          | HOMO-LUMO GAP               1.870422301719 eV   |
           -------------------------------------------------

 * finished run on 2024/06/05 at 19:59:28.935
