   * xtb version 6.6.1 (8d0f1dd) compiled by 'conda@1efc2f54142f' on 2023-08-01
          program call               : xtb struc.xyz --opt loose --input .xc1 --gfn2

   ID    Z sym.   atoms
    1    6 C      1, 3, 5-7, 10, 11, 14
    2    7 N      2, 4, 9, 13
    3    8 O      8, 12
    4    1 H      15-25
constraining bond 7 20 to    5.1400000 Å, actual value:    3.1456537 Å

          :  Hamiltonian                  GFN2-xTB          :
 * total energy  :   -35.1460524 Eh     change       -0.6650680E-10 Eh
 * total energy  :   -38.3871548 Eh     change       -0.3241102E+01 Eh
 * total energy  :   -40.6020577 Eh     change       -0.2214903E+01 Eh
 * total energy  :   -41.6507550 Eh     change       -0.1048697E+01 Eh
 * total energy  :   -41.9382118 Eh     change       -0.2874568E+00 Eh
 * total energy  :   -41.9682651 Eh     change       -0.3005333E-01 Eh
 * total energy  :   -41.9800939 Eh     change       -0.1182882E-01 Eh
 * total energy  :   -42.0026622 Eh     change       -0.2256829E-01 Eh
 * total energy  :   -42.0129246 Eh     change       -0.1026244E-01 Eh
 * total energy  :   -42.0216511 Eh     change       -0.8726450E-02 Eh
 * total energy  :   -42.1052579 Eh     change       -0.2607022E-03 Eh
 * total energy  :   -42.1054675 Eh     change       -0.2095810E-03 Eh
 * total energy  :   -42.1056328 Eh     change       -0.1653423E-03 Eh
 * total energy  :   -42.1057788 Eh     change       -0.1459989E-03 Eh
 * total energy  :   -42.1058616 Eh     change       -0.8274735E-04 Eh
 * total energy  :   -42.1058860 Eh     change       -0.2447424E-04 Eh
 * total energy  :   -42.1059612 Eh     change       -0.7512963E-04 Eh
 * total energy  :   -42.1060050 Eh     change       -0.4386318E-04 Eh
 * total energy  :   -42.1060362 Eh     change       -0.3111407E-04 Eh
   *** GEOMETRY OPTIMIZATION CONVERGED AFTER 40 ITERATIONS ***

 final structure:
================
25
 xtb: 6.6.1 (8d0f1dd)
C            3.36552816298489        1.04505438415206        0.06109122934755
N            2.37637468614044        0.00187551272134        0.02808351123895
C            2.59852019649897       -1.30856714368756       -0.00502216588353
N            1.41931454523372       -1.97424195911574       -0.01196887397684
C            0.41507530443089       -1.05425192799343        0.01667211699906
C            1.01179040487066        0.20019492097902        0.04470440477693
C            0.25610247309089        1.41303849516727        0.05869699600088
O            0.67101255899301        2.55028805424886        0.08257208495168
N           -1.16210336141555        1.14459898268183        0.02473963280492
C           -1.98220974301179        2.20322978535271        0.00712518237017
C           -1.77212278163913       -0.14340232076607        0.00912435123606
O           -2.96574793510678       -0.26499120540477       -0.00532564907538
N           -0.92029989840031       -1.24459648789322        0.01199450440825
C           -1.49688992857378       -2.57724410035953        0.00165771490931
H            3.82400626978486        1.10236179796478        1.04975722582855
H            4.14289959257949        0.85191488983068       -0.67669238190797
H            2.87992073048749        1.99704528632183       -0.15152772939629
H            3.56341523057453       -1.77294946254783       -0.02682019594913
H           -1.53112930012009        3.17933061490707        0.02307040520577
H           -4.81639476751120        2.10177199059276       -0.39799266402467
H           -3.06424476981187        2.05764685048494       -0.07174298240836
H           -1.19348812529035       -3.12803492227212        0.89196642451608
H           -1.19540443865906       -3.11517038947957       -0.89740890547421
H           -2.58021992748803       -2.46848178188732        0.00309347285930
H            1.31672633545808       -2.97818132239802       -0.03867609145712

          :  Hamiltonian                  GFN2-xTB          :
         :: total energy             -42.106036154220 Eh    ::
         :: gradient norm              0.003185118914 Eh/a0 ::
         :: HOMO-LUMO gap              0.102011636580 eV    ::
         :: SCC energy               -42.624232454207 Eh    ::
         :: -> dispersion             -0.022887998627 Eh    ::
         :: repulsion energy           0.518114509637 Eh    ::

    * Orbital Energies and Occupations

         #    Occupation            Energy/Eh            Energy/eV
      -------------------------------------------------------------
         1        2.0000           -0.9109158             -24.7873
       ...           ...                  ...                  ...
        25        2.0000           -0.6713474             -18.2683
        26        2.0000           -0.6689510             -18.2031
        27        2.0000           -0.6626640             -18.0320
        28        1.9999           -0.6331521             -17.2289
        29        1.9999           -0.6297664             -17.1368
        30        1.9999           -0.6277828             -17.0828
        31        1.9998           -0.6186205             -16.8335
        32        1.9997           -0.6143600             -16.7176
        33        1.9997           -0.6132142             -16.6864
        34        1.9982           -0.5852186             -15.9246
        35        1.9943           -0.5666311             -15.4188
        36        1.9905           -0.5584158             -15.1953
        37        0.9976           -0.4736908             -12.8898 (HOMO)
        38        0.8798           -0.4699419             -12.7878 (LUMO)
        39        0.1194           -0.4301189             -11.7041
        40        0.0181           -0.3994561             -10.8698
        41        0.0031           -0.3713433             -10.1048
        42        0.0000           -0.2874036              -7.8207
        43        0.0000           -0.2086441              -5.6775
        44                         -0.1964730              -5.3463
        45                         -0.1509373              -4.1072
        46                         -0.1460334              -3.9738
        47                         -0.0783558              -2.1322
        48                         -0.0540392              -1.4705
       ...                                ...                  ...
        67                          0.5490124              14.9394
      -------------------------------------------------------------
                  HL-Gap            0.0037489 Eh            0.1020 eV

     #   Z          covCN         q      C6AA      α(0)
     1   6 C        3.691    -0.093    22.476     6.784
     2   7 N        2.830     0.077    19.900     6.625
     3   6 C        3.050     0.047    26.901     8.506
     4   7 N        2.792    -0.058    22.360     7.023
     5   6 C        3.041     0.106    25.629     8.303
     6   6 C        3.109    -0.023    28.431     8.736
     7   6 C        2.774     0.253    22.744     7.811
     8   8 O        0.857    -0.362    20.944     6.136
     9   7 N        2.740    -0.032    21.855     6.943
    10   6 C        2.812    -0.021    28.515     8.749
    11   6 C        2.737     0.309    21.756     7.637
    12   8 O        0.859    -0.352    20.746     6.107
    13   7 N        2.737    -0.050    22.202     6.998
    14   6 C        3.698    -0.073    22.077     6.720
    15   1 H        0.924     0.109     1.708     2.044
    16   1 H        0.925     0.104     1.753     2.070
    17   1 H        0.925     0.134     1.508     1.920
    18   1 H        0.926     0.123     1.586     1.970
    19   1 H        0.926     0.133     1.511     1.922
    20   1 H        0.000     0.013     7.091     4.869
    21   1 H        0.924     0.134     1.504     1.918
    22   1 H        0.925     0.084     1.938     2.177
    23   1 H        0.924     0.084     1.943     2.180
    24   1 H        0.925     0.127     1.557     1.951
    25   1 H        0.860     0.229     0.971     1.543

Wiberg/Mayer (AO) data.
largest (>0.10) Wiberg bond orders for each atom

     #   Z sym  total        # sym  WBO       # sym  WBO       # sym  WBO
 ---------------------------------------------------------------------------
     1   6 C    3.917 --     2 N    0.987    16 H    0.965    17 H    0.961
                            15 H    0.955
     2   7 N    3.647 --     3 C    1.379     6 C    1.144     1 C    0.987
     3   6 C    3.819 --     2 N    1.379     4 N    1.265    18 H    0.953
     4   7 N    3.579 --     3 C    1.265     5 C    1.194    25 H    0.919
     5   6 C    3.898 --     6 C    1.326     4 N    1.194    13 N    1.190
     6   6 C    3.908 --     5 C    1.326     2 N    1.144     7 C    1.120
     7   6 C    3.864 --     8 O    1.675     6 C    1.120     9 N    0.978
     8   8 O    1.958 --     7 C    1.675     9 N    0.108
     9   7 N    3.613 --    10 C    1.350    11 C    1.015     7 C    0.978
                             8 O    0.108
    10   6 C    3.299 --     9 N    1.350    19 H    0.956    21 H    0.905
    11   6 C    3.903 --    12 O    1.706    13 N    1.088     9 N    1.015
    12   8 O    2.017 --    11 C    1.706    13 N    0.134
    13   7 N    3.565 --     5 C    1.190    11 C    1.088    14 C    0.970
                            12 O    0.134
    14   6 C    3.924 --    22 H    0.972    23 H    0.972    13 N    0.970
                            24 H    0.965
    15   1 H    0.983 --     1 C    0.955
    16   1 H    0.986 --     1 C    0.965
    17   1 H    0.982 --     1 C    0.961
    18   1 H    0.984 --     3 C    0.953
    19   1 H    0.979 --    10 C    0.956
    20   1 H    0.062
    21   1 H    0.981 --    10 C    0.905
    22   1 H    0.991 --    14 C    0.972
    23   1 H    0.991 --    14 C    0.972
    24   1 H    0.983 --    14 C    0.965
    25   1 H    0.947 --     4 N    0.919
 ---------------------------------------------------------------------------

molecular dipole:
                 x           y           z       tot (Debye)
 q only:        2.358      -1.974      -0.027
   full:        2.577      -2.432      -0.034       9.007

           -------------------------------------------------
          | TOTAL ENERGY              -42.106036154220 Eh   |
          | GRADIENT NORM               0.003185118914 Eh/α |
          | HOMO-LUMO GAP               0.102011636580 eV   |
           -------------------------------------------------

 * finished run on 2024/06/05 at 19:57:59.589
