   * xtb version 6.6.1 (8d0f1dd) compiled by 'conda@1efc2f54142f' on 2023-08-01
          program call               : xtb struc.xyz --opt loose --input .xc1 --gfn2

   ID    Z sym.   atoms
    1    6 C      1, 3, 5-7, 10, 11, 14
    2    7 N      2, 4, 9, 13
    3    8 O      8, 12
    4    1 H      15-25
constraining bond 7 16 to    4.7133300 Å, actual value:    3.9875359 Å

          :  Hamiltonian                  GFN2-xTB          :
 * total energy  :   -43.1884359 Eh     change       -0.6650680E-10 Eh
 * total energy  :   -45.8979589 Eh     change       -0.2709523E+01 Eh
 * total energy  :   -50.3708932 Eh     change       -0.4472934E+01 Eh
 * total energy  :   -56.8791396 Eh     change       -0.6508246E+01 Eh
 * total energy  :   -65.3924100 Eh     change       -0.8513270E+01 Eh
 * total energy  :   -72.5074600 Eh     change       -0.7115050E+01 Eh
 * total energy  :   -71.5259533 Eh     change        0.9815067E+00 Eh
 * total energy  :   -72.6688454 Eh     change       -0.1142892E+01 Eh
 * total energy  :   -72.7675287 Eh     change       -0.9868328E-01 Eh
 * total energy  :   -72.4249256 Eh     change        0.3426031E+00 Eh
 * total energy  :   -73.3059208 Eh     change       -0.1439056E-03 Eh
 * total energy  :   -73.2988079 Eh     change        0.7112879E-02 Eh
 * total energy  :   -73.3060925 Eh     change       -0.7284627E-02 Eh
 * total energy  :   -73.3061381 Eh     change       -0.4555194E-04 Eh
 * total energy  :   -73.3062057 Eh     change       -0.6761199E-04 Eh
 * total energy  :   -73.3062265 Eh     change       -0.2073974E-04 Eh
 * total energy  :   -73.3062669 Eh     change       -0.4048860E-04 Eh
 * total energy  :   -73.3062877 Eh     change       -0.2079743E-04 Eh
 * total energy  :   -73.3063080 Eh     change       -0.2026222E-04 Eh
   *** GEOMETRY OPTIMIZATION CONVERGED AFTER 51 ITERATIONS ***

 final structure:
================
25
 xtb: 6.6.1 (8d0f1dd)
C            3.31471285704340        0.99383366457146        0.18438643386950
N            2.41251844380230        0.01592107243894        0.13475028524547
C            2.61143633140239       -1.30433571435151        0.38143559342383
N            1.43956787304031       -1.96599362723410        0.26294320332186
C            0.46477456285962       -1.06029864536863       -0.06909710138902
C            1.07153770463191        0.16833392120391       -0.16790991327115
C            0.31435240153580        1.47019345227244       -0.60424964378988
O            0.71555186387140        2.48766717010359        0.13894957014980
N           -1.18705699509739        1.06184314385995       -0.15669235961129
C           -2.03802721351557        2.19554462391758        0.06423712216743
C           -1.74760914325570       -0.17002958203299       -0.15368295533587
O           -2.93321306510561       -0.36607357217633       -0.06297185002214
N           -0.85846967596344       -1.28264085705057       -0.21086522749942
C           -1.41633226127920       -2.61527219384100       -0.15534879975061
H            4.33293059355963        0.76170605729418        0.43221212395448
H            0.28995916921260        1.50559152499313       -0.98536955783953
H            2.98187315413329        2.00665706336257        0.03362512774145
H            3.55166650889537       -1.75042767111272        0.63446402377603
H           -1.41472497494007        3.00822837382224        0.44261972920493
H           -2.51894855262999        2.51394681822702       -0.86682369377102
H           -2.81962176456182        1.94000506268498        0.77957070260889
H           -1.24779010133106       -3.07431232303005        0.82122477379215
H           -0.98456965810220       -3.23636829939172       -0.94013318845727
H           -2.49102733246169       -2.52730748153448       -0.31309532627200
H            1.31694078835585       -2.95817344003068        0.40699254565881

          :  Hamiltonian                  GFN2-xTB          :
         :: total energy             -73.306308001390 Eh    ::
         :: gradient norm              0.003031287186 Eh/a0 ::
         :: HOMO-LUMO gap              0.369355201295 eV    ::
         :: SCC energy               -42.624049943424 Eh    ::
         :: -> dispersion             -0.022799418107 Eh    ::
         :: repulsion energy           2.791165960160 Eh    ::

    * Orbital Energies and Occupations

         #    Occupation            Energy/Eh            Energy/eV
      -------------------------------------------------------------
         1        2.0000           -0.9164015             -24.9366
       ...           ...                  ...                  ...
        25        1.9999           -0.6718841             -18.2829
        26        1.9998           -0.6635654             -18.0565
        27        1.9998           -0.6590068             -17.9325
        28        1.9993           -0.6429028             -17.4943
        29        1.9989           -0.6346463             -17.2696
        30        1.9982           -0.6272267             -17.0677
        31        1.9974           -0.6215096             -16.9121
        32        1.9911           -0.6019855             -16.3809
        33        1.9717           -0.5834651             -15.8769
        34        1.9059           -0.5639224             -15.3451
        35        1.8350           -0.5544394             -15.0871
        36        1.7763           -0.5491029             -14.9418
        37        1.4582           -0.5319700             -14.4756 (HOMO)
        38        1.0663           -0.5183965             -14.1063 (LUMO)
        39        0.0021           -0.4077167             -11.0945
        40        0.0004           -0.3828964             -10.4191
        41        0.0000           -0.3362230              -9.1491
        42        0.0000           -0.2687165              -7.3121
        43                         -0.2048018              -5.5729
        44                         -0.1785639              -4.8590
        45                         -0.1728114              -4.7024
        46                         -0.0937130              -2.5501
        47                         -0.0794926              -2.1631
        48                         -0.0462509              -1.2586
       ...                                ...                  ...
        67                         13.6933009             372.6137
      -------------------------------------------------------------
                  HL-Gap            0.0135736 Eh            0.3694 eV

     #   Z          covCN         q      C6AA      α(0)
     1   6 C        2.790    -0.055    29.338     8.873
     2   7 N        2.819     0.132    19.001     6.474
     3   6 C        3.035     0.034    27.216     8.557
     4   7 N        2.788    -0.055    22.293     7.013
     5   6 C        3.017     0.114    25.469     8.278
     6   6 C        3.102    -0.022    28.429     8.737
     7   6 C        3.634     0.150    18.512     6.192
     8   8 O        0.862    -0.430    22.277     6.328
     9   7 N        2.707    -0.125    23.723     7.234
    10   6 C        3.701    -0.054    21.716     6.664
    11   6 C        2.719     0.320    21.562     7.601
    12   8 O        0.860    -0.350    20.713     6.102
    13   7 N        2.738    -0.059    22.391     7.028
    14   6 C        3.697    -0.071    22.041     6.715
    15   1 H        0.926     0.118     1.629     1.996
    16   1 H        0.946     0.194     1.129     1.661
    17   1 H        0.926     0.151     1.383     1.839
    18   1 H        0.926     0.128     1.550     1.947
    19   1 H        0.924     0.126     1.569     1.959
    20   1 H        0.924     0.109     1.703     2.041
    21   1 H        0.925     0.113     1.670     2.021
    22   1 H        0.924     0.085     1.927     2.171
    23   1 H        0.925     0.086     1.917     2.165
    24   1 H        0.925     0.129     1.542     1.942
    25   1 H        0.860     0.233     0.953     1.530

Wiberg/Mayer (AO) data.
largest (>0.10) Wiberg bond orders for each atom

     #   Z sym  total        # sym  WBO       # sym  WBO       # sym  WBO
 ---------------------------------------------------------------------------
     1   6 C    3.330 --     2 N    1.317    15 H    0.964    17 H    0.951
     2   7 N    3.763 --     1 C    1.317     3 C    1.226     6 C    1.122
     3   6 C    3.645 --     4 N    1.286     2 N    1.226    18 H    0.953
     4   7 N    3.519 --     3 C    1.286     5 C    1.158    25 H    0.917
     5   6 C    3.927 --     6 C    1.414    13 N    1.194     4 N    1.158
     6   6 C    3.707 --     5 C    1.414     2 N    1.122     7 C    0.890
     7   6 C    3.875 --     8 O    1.259    16 H    0.896     6 C    0.890
                             9 N    0.757
     8   8 O    1.430 --     7 C    1.259
     9   7 N    3.267 --    11 C    1.210    10 C    1.017     7 C    0.757
                            12 O    0.136
    10   6 C    3.868 --     9 N    1.017    21 H    0.945    19 H    0.944
                            20 H    0.921
    11   6 C    3.948 --    12 O    1.658     9 N    1.210    13 N    0.999
    12   8 O    1.968 --    11 C    1.658     9 N    0.136
    13   7 N    3.435 --     5 C    1.194    11 C    0.999    14 C    0.984
    14   6 C    3.914 --    13 N    0.984    23 H    0.966    24 H    0.961
                            22 H    0.961
    15   1 H    0.984 --     1 C    0.964
    16   1 H    0.925 --     7 C    0.896
    17   1 H    0.976 --     1 C    0.951
    18   1 H    0.982 --     3 C    0.953
    19   1 H    0.967 --    10 C    0.944
    20   1 H    0.936 --    10 C    0.921
    21   1 H    0.962 --    10 C    0.945
    22   1 H    0.977 --    14 C    0.961
    23   1 H    0.981 --    14 C    0.966
    24   1 H    0.981 --    14 C    0.961
    25   1 H    0.945 --     4 N    0.917
 ---------------------------------------------------------------------------

molecular dipole:
                 x           y           z       tot (Debye)
 q only:        2.438      -2.077      -0.184
   full:        2.646      -2.489      -0.211       9.249

           -------------------------------------------------
          | TOTAL ENERGY              -73.306308001390 Eh   |
          | GRADIENT NORM               0.003031287186 Eh/α |
          | HOMO-LUMO GAP               0.369355201295 eV   |
           -------------------------------------------------

 * finished run on 2024/06/05 at 20:00:19.607
