   * xtb version 6.6.1 (8d0f1dd) compiled by 'conda@1efc2f54142f' on 2023-08-01
          program call               : xtb xtbopt.xyz --opt crude --input .xc2 --gfn2

   ID    Z sym.   atoms
    1    6 C      1, 3, 5-7, 10, 11, 14
    2    7 N      2, 4, 9, 13
    3    8 O      8, 12
    4    1 H      15-25
########################################################################
[WARNING] Please study the warnings concerning your input carefully
-1- readin_getIntValue: could not parse ''
########################################################################

          :  Hamiltonian                  GFN2-xTB          :
 * total energy  :   -42.1593960 Eh     change       -0.6608047E-12 Eh
 * total energy  :   -42.1618564 Eh     change       -0.2460431E-02 Eh
 * total energy  :   -42.1604450 Eh     change        0.1411387E-02 Eh
 * total energy  :   -42.1646521 Eh     change       -0.4207060E-02 Eh
 * total energy  :   -42.1653938 Eh     change       -0.7417141E-03 Eh
 * total energy  :   -42.1663199 Eh     change       -0.9260817E-03 Eh
 * total energy  :   -42.1665683 Eh     change       -0.2483830E-03 Eh
 * total energy  :   -42.1667622 Eh     change       -0.1939002E-03 Eh
   *** GEOMETRY OPTIMIZATION CONVERGED AFTER 8 ITERATIONS ***

 final structure:
================
25
 xtb: 6.6.1 (8d0f1dd)
C            4.25275689443372        0.48074061513436       -0.04167758840694
N            3.41786094849465       -0.42241157455078        0.23118311927348
C            2.72976242646825       -1.47270147551447        0.02011185957329
N            1.39730565481791       -1.60035017645368        0.05615812682879
C            0.42000957890941       -0.60018641797350        0.06360551948417
C            0.71218479730929        0.72460319915770        0.11280514705107
C           -0.32550277688241        1.73212576275498        0.08289715514930
O           -0.11297269344631        2.92222427945660        0.11018975605043
N           -1.61776771069357        1.21986190045334        0.00990485669107
C           -2.72577163159652        2.15737028716913       -0.03301482297589
C           -1.94557228863683       -0.10940565853461       -0.02499917326461
O           -3.08343499597566       -0.49453619499472       -0.08194358549544
N           -0.87549171941254       -1.02677263816022        0.00333874936254
C           -1.24012713961890       -2.43144839067972       -0.04045792954325
H            4.71401191768002        1.03465168721988        0.76146900614647
H            4.50823526867155        0.74146207335193       -1.06117409069444
H            1.71548748295968        1.09462230689969        0.17723524171422
H            3.27954447470543       -2.40800057439962       -0.05364420781490
H           -2.31105689463366        3.16329234935195       -0.02645909146796
H           -3.31466100193679        1.99354815455763       -0.93534988666563
H           -3.37273178391394        2.00862910734622        0.83162077677946
H           -0.91025911294226       -2.95592087568690        0.85789760834822
H           -0.85767529721424       -2.91469725434344       -0.94137803385344
H           -2.33046215683550       -2.47105213943069       -0.07393741462248
H            1.03675927338969       -2.54740981053057        0.02679052025233

          :  Hamiltonian                  GFN2-xTB          :
         :: total energy             -42.166762183496 Eh    ::
         :: gradient norm              0.008824193206 Eh/a0 ::
         :: HOMO-LUMO gap              2.248909840188 eV    ::
         :: SCC energy               -42.724364739956 Eh    ::
         :: -> dispersion             -0.021573156350 Eh    ::
         :: repulsion energy           0.557546512652 Eh    ::

    * Orbital Energies and Occupations

         #    Occupation            Energy/Eh            Energy/eV
      -------------------------------------------------------------
         1        2.0000           -0.8845928             -24.0710
       ...           ...                  ...                  ...
        25        1.9999           -0.6614456             -17.9989
        26        1.9999           -0.6576767             -17.8963
        27        1.9998           -0.6434640             -17.5095
        28        1.9998           -0.6397621             -17.4088
        29        1.9997           -0.6341303             -17.2556
        30        1.9991           -0.6195052             -16.8576
        31        1.9990           -0.6181220             -16.8200
        32        1.9948           -0.5913692             -16.0920
        33        1.9945           -0.5903456             -16.0641
        34        1.9788           -0.5689768             -15.4826
        35        1.9364           -0.5512027             -14.9990
        36        1.9172           -0.5468751             -14.8812
        37        1.9096           -0.5454166             -14.8415 (HOMO)
        38        0.2050           -0.4627706             -12.5926 (LUMO)
        39        0.0646           -0.4432891             -12.0625
        40        0.0016           -0.3840857             -10.4515
        41        0.0005           -0.3652861              -9.9399
        42        0.0000           -0.2753747              -7.4933
        43                         -0.1931548              -5.2560
        44                         -0.1706201              -4.6428
        45                         -0.1189744              -3.2375
        46                         -0.1069268              -2.9096
        47                         -0.0807314              -2.1968
        48                         -0.0397600              -1.0819
       ...                                ...                  ...
        67                          0.6141520              16.7119
      -------------------------------------------------------------
                  HL-Gap            0.0826459 Eh            2.2489 eV

     #   Z          covCN         q      C6AA      α(0)
     1   6 C        2.767     0.016    27.627     8.608
     2   7 N        1.826    -0.006    22.078     6.963
     3   6 C        2.757     0.111    25.532     8.274
     4   7 N        2.695    -0.084    22.886     7.105
     5   6 C        2.833     0.127    25.209     8.228
     6   6 C        2.910    -0.113    30.853     9.108
     7   6 C        2.770     0.277    22.323     7.738
     8   8 O        0.859    -0.345    20.620     6.088
     9   7 N        2.742    -0.072    22.630     7.065
    10   6 C        3.708    -0.061    21.811     6.675
    11   6 C        2.724     0.320    21.564     7.602
    12   8 O        0.860    -0.368    21.058     6.153
    13   7 N        2.748    -0.064    22.474     7.041
    14   6 C        3.698    -0.076    22.133     6.729
    15   1 H        0.926     0.145     1.424     1.866
    16   1 H        0.925     0.134     1.507     1.919
    17   1 H        0.926     0.092     1.856     2.131
    18   1 H        0.925     0.128     1.550     1.947
    19   1 H        0.925     0.115     1.653     2.011
    20   1 H        0.925     0.101     1.780     2.086
    21   1 H        0.925     0.101     1.777     2.085
    22   1 H        0.924     0.079     1.992     2.207
    23   1 H        0.924     0.078     2.003     2.213
    24   1 H        0.924     0.134     1.506     1.919
    25   1 H        0.860     0.233     0.954     1.530

Wiberg/Mayer (AO) data.
largest (>0.10) Wiberg bond orders for each atom

     #   Z sym  total        # sym  WBO       # sym  WBO       # sym  WBO
 ---------------------------------------------------------------------------
     1   6 C    3.725 --     2 N    1.752    15 H    0.935    16 H    0.924
     2   7 N    3.484 --     1 C    1.752     3 C    1.546     4 N    0.126
     3   6 C    3.885 --     2 N    1.546     4 N    1.288    18 H    0.910
     4   7 N    3.540 --     3 C    1.288     5 C    1.078    25 H    0.902
                             2 N    0.126
     5   6 C    3.928 --     6 C    1.531    13 N    1.183     4 N    1.078
     6   6 C    3.872 --     5 C    1.531     7 C    1.094    17 H    0.953
     7   6 C    3.948 --     8 O    1.681     6 C    1.094     9 N    1.089
     8   8 O    1.982 --     7 C    1.681     9 N    0.127
     9   7 N    3.530 --    11 C    1.145     7 C    1.089    10 C    0.975
                            12 O    0.131     8 O    0.127
    10   6 C    3.899 --     9 N    0.975    19 H    0.964    20 H    0.957
                            21 H    0.956
    11   6 C    3.959 --    12 O    1.679     9 N    1.145    13 N    1.048
    12   8 O    2.020 --    11 C    1.679     9 N    0.131    13 N    0.119
    13   7 N    3.521 --     5 C    1.183    11 C    1.048    14 C    0.983
                            12 O    0.119
    14   6 C    3.928 --    13 N    0.983    22 H    0.966    23 H    0.966
                            24 H    0.955
    15   1 H    0.975 --     1 C    0.935
    16   1 H    0.974 --     1 C    0.924
    17   1 H    0.990 --     6 C    0.953
    18   1 H    0.971 --     3 C    0.910
    19   1 H    0.983 --    10 C    0.964
    20   1 H    0.977 --    10 C    0.957
    21   1 H    0.976 --    10 C    0.956
    22   1 H    0.988 --    14 C    0.966
    23   1 H    0.988 --    14 C    0.966
    24   1 H    0.981 --    14 C    0.955
    25   1 H    0.945 --     4 N    0.902
 ---------------------------------------------------------------------------

molecular dipole:
                 x           y           z       tot (Debye)
 q only:        3.433      -2.077      -0.080
   full:        3.718      -2.431      -0.158      11.298

           -------------------------------------------------
          | TOTAL ENERGY              -42.166762183496 Eh   |
          | GRADIENT NORM               0.008824193206 Eh/α |
          | HOMO-LUMO GAP               2.248909840188 eV   |
           -------------------------------------------------

 * finished run on 2024/06/05 at 19:57:50.536
