   * xtb version 6.6.1 (8d0f1dd) compiled by 'conda@1efc2f54142f' on 2023-08-01
          program call               : xtb struc.xyz --opt loose --input .xc1 --gfn2

   ID    Z sym.   atoms
    1    7 N      1, 17
    2    6 C      2-6, 8, 9, 11-16, 18-23, 25, 26, 28-33
    3    8 O      7, 10, 24, 27
    4    1 H      34-72
constraining bond 27 29 to    4.7600000 Å, actual value:    2.4313708 Å

          :  Hamiltonian                  GFN2-xTB          :
 * total energy  :   -98.4359236 Eh     change       -0.4035485E-08 Eh
 * total energy  :   -98.6621592 Eh     change       -0.2262356E+00 Eh
 * total energy  :   -98.8066340 Eh     change       -0.1444748E+00 Eh
 * total energy  :   -98.8914330 Eh     change       -0.8479896E-01 Eh
 * total energy  :   -98.9490899 Eh     change       -0.5765691E-01 Eh
 * total energy  :   -98.9927486 Eh     change       -0.4365873E-01 Eh
 * total energy  :   -99.0289151 Eh     change       -0.3616643E-01 Eh
 * total energy  :   -99.0630300 Eh     change       -0.3411490E-01 Eh
 * total energy  :   -99.0973992 Eh     change       -0.3436920E-01 Eh
 * total energy  :   -99.1422378 Eh     change       -0.4483865E-01 Eh
 * total energy  :   -99.3525883 Eh     change       -0.2814720E-03 Eh
 * total energy  :   -99.3528367 Eh     change       -0.2484156E-03 Eh
 * total energy  :   -99.3529953 Eh     change       -0.1586121E-03 Eh
 * total energy  :   -99.3531453 Eh     change       -0.1499606E-03 Eh
 * total energy  :   -99.3532365 Eh     change       -0.9122594E-04 Eh
 * total energy  :   -99.3533026 Eh     change       -0.6610119E-04 Eh
 * total energy  :   -99.3509295 Eh     change        0.2373151E-02 Eh
 * total energy  :   -99.3533777 Eh     change       -0.2448180E-02 Eh
 * total energy  :   -99.3534071 Eh     change       -0.2939844E-04 Eh
   *** GEOMETRY OPTIMIZATION CONVERGED AFTER 47 ITERATIONS ***

 final structure:
================
72
 xtb: 6.6.1 (8d0f1dd)
N           -1.95156449134636        2.87460939916362        2.20712968135843
C           -1.91721480023866        2.16813789650090        1.17865422900913
C           -3.07789952615085        1.95552950858383        0.24652194450604
C           -3.53201819425803        0.50562006138936        0.32412027062918
C           -4.46979513147087        0.02372688387826       -0.59140517569023
C           -4.92974173706933       -1.28156750910114       -0.53793773899166
O           -5.84037703128559       -1.82166641881720       -1.37275814066746
C           -6.47510840499618       -1.00239834158259       -2.32637928669699
C           -4.42897183359602       -2.15995205048638        0.46157103982504
O           -4.92519556196693       -3.41215752136268        0.43401409341623
C           -4.54247267343829       -4.32442579901110        1.43685887456805
C           -3.49874423948124       -1.67494069326808        1.36710711457959
C           -3.05975219754119       -0.35857558672783        1.29996810390306
C           -2.54546209904333        2.26934028437016       -1.17647504081153
C           -1.61670046739896        1.19052530978460       -1.76136917256669
C           -0.27448340067398        1.16364877700370       -1.13965310211613
N            0.39118382648354        0.07023681297230       -0.79643965431360
C            1.77553113886816        0.15135097097796       -0.39280355367992
C            2.72995738796765       -0.22010112851479       -1.54395331788515
C            4.15285477315101       -0.10718984793891       -1.07502907050006
C            4.86661707670223        1.07268613719160       -1.23675521804680
C            6.16476922389306        1.19955098786398       -0.77706190547379
C            6.78120569850202        0.12812369622264       -0.12845814525634
O            8.02727129621574        0.12853239327313        0.36884767811138
C            8.84067798244833        1.27028485919136        0.22335338048784
C            6.06107460939407       -1.06317205788769        0.03521146592590
O            8.73030871533269       -2.83778750808790        1.64358157665681
C            7.79651352364072       -3.54574746456653        1.86813142748381
C            4.77199428316097       -1.17490672979923       -0.42809362069683
C           -0.19827888413304       -1.24462495492217       -0.88364654220588
C           -4.29882646605048        2.86834711390843        0.56738626661076
C           -4.91173013354977        2.52580003585432        1.92311141322382
C           -3.96735773093797        4.35697199824784        0.51268372686377
H           -4.85774610257684        0.68506749169102       -1.34814859756279
H           -6.99536254004462       -0.16475677000374       -1.85232266022269
H           -7.20164719367447       -1.64246893139539       -2.82296189037538
H           -5.76478823611680       -0.62184031254171       -3.06758961692269
H           -4.80895909711932       -3.95952543359166        2.43311591962908
H           -5.09577033431925       -5.23764625707612        1.22710139928765
H           -3.46892334521800       -4.53524651344414        1.39950024537266
H           -3.11574812803667       -2.31228006605756        2.14748207984905
H           -2.36007295989738       -0.00979543601415        2.04364011444004
H           -3.39432164704630        2.38412155053674       -1.84951348815129
H           -2.01445358073777        3.22157371063098       -1.15124629394477
H           -2.10489557757163        0.21900025623497       -1.70753314093065
H           -1.47796705289693        1.43617288980529       -2.82244709351120
H           -1.00645680187282        1.65204188782932        0.81617406169407
H            0.26905789487380        2.09590451555731       -1.08801986770189
H            1.94367084660572       -0.52491825314073        0.44947541388751
H            1.99825302714841        1.16846184111464       -0.06348260889836
H            2.55369839153326        0.45620836868447       -2.38202029380872
H            2.52546209205198       -1.24001167344578       -1.87268195191500
H            4.40692081961049        1.91017720510236       -1.74138114131562
H            6.68915143495257        2.12931948381636       -0.92814892091115
H            8.40852447487933        2.13706200930444        0.73271707701504
H            9.00777955360235        1.50997914395834       -0.83081317421313
H            9.78888340805315        1.01169008593608        0.69039209295858
H            7.52052459405235       -4.39723398707678        1.22217004115195
H            7.13541897946397       -3.40497636891311        2.74031174757087
H            6.55085827070826       -1.88676951706481        0.52749875410281
H            4.23854877088707       -2.10547604858102       -0.29866994515446
H           -0.39256591422214       -1.52248713596429       -1.92156495842454
H           -1.13935725714545       -1.27814281571582       -0.32899598926361
H            0.48398704701540       -1.97250374414812       -0.45252183478501
H           -5.05053872565998        2.66146277900719       -0.20287933635356
H           -4.20148536695273        2.73513823538336        2.71647735144422
H           -5.19810014902318        1.47804214500574        1.97227539458256
H           -5.79965621763032        3.13126306732757        2.08443918253352
H           -3.20620389554101        4.60159317081961        1.24707524528519
H           -3.62701081140626        4.66227621055792       -0.47322093808173
H           -4.86104639521267        4.92911883764975        0.74739137917321
H           -1.09941120965184        2.97073438641348        2.75015748351063

          :  Hamiltonian                  GFN2-xTB          :
         :: total energy             -99.353407064901 Eh    ::
         :: gradient norm              0.000676720997 Eh/a0 ::
         :: HOMO-LUMO gap              1.753918011582 eV    ::
         :: SCC energy              -100.759015732475 Eh    ::
         :: -> dispersion             -0.073695575141 Eh    ::
         :: repulsion energy           1.404383776924 Eh    ::

    * Orbital Energies and Occupations

         #    Occupation            Energy/Eh            Energy/eV
      -------------------------------------------------------------
         1        2.0000           -0.8120616             -22.0973
       ...           ...                  ...                  ...
        78        1.9981           -0.5314218             -14.4607
        79        1.9980           -0.5304918             -14.4354
        80        1.9972           -0.5254843             -14.2992
        81        1.9955           -0.5176706             -14.0865
        82        1.9947           -0.5150115             -14.0142
        83        1.9937           -0.5123818             -13.9426
        84        1.9932           -0.5110759             -13.9071
        85        1.9871           -0.5009107             -13.6305
        86        1.9796           -0.4936166             -13.4320
        87        1.9613           -0.4833483             -13.1526
        88        1.9338           -0.4746193             -12.9150
        89        1.8934           -0.4667304             -12.7004
        90        1.8624           -0.4624311             -12.5834 (HOMO)
        91        0.3752           -0.3979758             -10.8295 (LUMO)
        92        0.0228           -0.3504943              -9.5374
        93        0.0137           -0.3423348              -9.3154
        94        0.0033           -0.3197184              -8.7000
        95        0.0029           -0.3177035              -8.6452
        96        0.0027           -0.3167137              -8.6182
        97        0.0018           -0.3099823              -8.4350
        98        0.0000           -0.1940895              -5.2814
        99        0.0000           -0.1878001              -5.1103
       100                         -0.1389598              -3.7813
       101                         -0.0714652              -1.9447
       ...                                ...                  ...
       171                          0.5741074              15.6223
      -------------------------------------------------------------
                  HL-Gap            0.0644553 Eh            1.7539 eV

     #   Z          covCN         q      C6AA      α(0)
     1   7 N        1.774    -0.266    27.723     7.797
     2   6 C        2.827     0.102    25.742     8.314
     3   6 C        3.907     0.006    20.412     6.422
     4   6 C        2.974     0.002    27.966     8.674
     5   6 C        2.920    -0.080    29.997     8.982
     6   6 C        2.862     0.130    25.152     8.221
     7   8 O        1.706    -0.228    17.788     5.694
     8   6 C        3.644     0.027    20.457     6.501
     9   6 C        2.864     0.129    25.171     8.224
    10   8 O        1.706    -0.227    17.763     5.690
    11   6 C        3.645     0.026    20.465     6.502
    12   6 C        2.913    -0.074    29.857     8.960
    13   6 C        2.921    -0.053    29.317     8.879
    14   6 C        3.812    -0.065    21.736     6.636
    15   6 C        3.802    -0.070    21.832     6.652
    16   6 C        2.844     0.010    27.797     8.641
    17   7 N        2.729     0.014    21.003     6.807
    18   6 C        3.757    -0.017    20.927     6.522
    19   6 C        3.807    -0.070    21.841     6.653
    20   6 C        2.971    -0.001    28.048     8.687
    21   6 C        2.924    -0.037    28.918     8.819
    22   6 C        2.915    -0.062    29.548     8.914
    23   6 C        2.865     0.156    24.630     8.135
    24   8 O        1.706    -0.227    17.772     5.692
    25   6 C        3.644     0.026    20.476     6.504
    26   6 C        2.919    -0.049    29.215     8.864
    27   8 O        0.856    -0.256    19.002     5.844
    28   6 C        2.701     0.179    24.151     8.043
    29   6 C        2.922    -0.037    28.931     8.821
    30   6 C        3.700    -0.071    22.025     6.712
    31   6 C        3.853    -0.007    20.673     6.467
    32   6 C        3.756    -0.119    22.829     6.813
    33   6 C        3.755    -0.119    22.835     6.814
    34   1 H        0.926     0.053     2.287     2.365
    35   1 H        0.924     0.055     2.264     2.353
    36   1 H        0.925     0.082     1.957     2.188
    37   1 H        0.924     0.048     2.345     2.395
    38   1 H        0.924     0.056     2.247     2.344
    39   1 H        0.925     0.082     1.958     2.188
    40   1 H        0.924     0.049     2.336     2.390
    41   1 H        0.926     0.053     2.285     2.364
    42   1 H        0.926     0.039     2.461     2.453
    43   1 H        0.925     0.061     2.185     2.312
    44   1 H        0.924     0.054     2.267     2.354
    45   1 H        0.925     0.067     2.117     2.275
    46   1 H        0.923     0.082     1.962     2.190
    47   1 H        0.922     0.006     2.949     2.686
    48   1 H        0.926     0.072     2.068     2.249
    49   1 H        0.924     0.069     2.095     2.264
    50   1 H        0.924     0.067     2.120     2.277
    51   1 H        0.924     0.054     2.276     2.359
    52   1 H        0.924     0.056     2.246     2.344
    53   1 H        0.926     0.043     2.411     2.428
    54   1 H        0.926     0.054     2.275     2.359
    55   1 H        0.924     0.053     2.282     2.363
    56   1 H        0.924     0.056     2.252     2.347
    57   1 H        0.925     0.085     1.931     2.173
    58   1 H        0.923     0.047     2.355     2.400
    59   1 H        0.923     0.046     2.373     2.409
    60   1 H        0.926     0.057     2.238     2.339
    61   1 H        0.926     0.041     2.437     2.441
    62   1 H        0.924     0.078     2.001     2.212
    63   1 H        0.924     0.080     1.983     2.202
    64   1 H        0.925     0.082     1.958     2.188
    65   1 H        0.924     0.038     2.477     2.461
    66   1 H        0.925     0.069     2.095     2.263
    67   1 H        0.925     0.036     2.507     2.476
    68   1 H        0.925     0.052     2.294     2.369
    69   1 H        0.925     0.061     2.182     2.310
    70   1 H        0.925     0.035     2.516     2.480
    71   1 H        0.925     0.055     2.255     2.348
    72   1 H        0.860     0.158     1.346     1.818

Wiberg/Mayer (AO) data.
largest (>0.10) Wiberg bond orders for each atom

     #   Z sym  total        # sym  WBO       # sym  WBO       # sym  WBO
 ---------------------------------------------------------------------------
     1   7 N    3.042 --     2 C    1.958    72 H    0.941
     2   6 C    3.930 --     1 N    1.958     3 C    0.994    47 H    0.899
     3   6 C    3.975 --     2 C    0.994     4 C    0.970    14 C    0.957
                            31 C    0.942
     4   6 C    3.947 --    13 C    1.413     5 C    1.369     3 C    0.970
     5   6 C    3.961 --     6 C    1.400     4 C    1.369    34 H    0.958
     6   6 C    3.904 --     5 C    1.400     9 C    1.220     7 O    1.101
     7   8 O    2.255 --     6 C    1.101     8 C    0.977
     8   6 C    3.931 --     7 O    0.977    36 H    0.976    35 H    0.973
                            37 H    0.973
     9   6 C    3.900 --    12 C    1.391     6 C    1.220    10 O    1.104
    10   8 O    2.253 --     9 C    1.104    11 C    0.977
    11   6 C    3.930 --    10 O    0.977    39 H    0.977    40 H    0.973
                            38 H    0.973
    12   6 C    3.961 --    13 C    1.404     9 C    1.391    41 H    0.964
    13   6 C    3.953 --     4 C    1.413    12 C    1.404    42 H    0.962
    14   6 C    3.973 --    15 C    0.982    44 H    0.972    43 H    0.968
                             3 C    0.957
    15   6 C    3.986 --    16 C    1.060    14 C    0.982    45 H    0.961
                            46 H    0.926
    16   6 C    3.609 --    17 N    1.413    15 C    1.060    48 H    0.957
    17   7 N    3.490 --    16 C    1.413    30 C    0.998    18 C    0.987
    18   6 C    3.954 --    17 N    0.987    50 H    0.968    19 C    0.966
                            49 H    0.964
    19   6 C    3.975 --    20 C    1.007    51 H    0.973    52 H    0.971
                            18 C    0.966
    20   6 C    3.939 --    21 C    1.404    29 C    1.375    19 C    1.007
    21   6 C    3.973 --    22 C    1.450    20 C    1.404    53 H    0.968
    22   6 C    3.952 --    21 C    1.450    23 C    1.342    54 H    0.964
    23   6 C    3.908 --    22 C    1.342    26 C    1.311    24 O    1.117
    24   8 O    2.261 --    23 C    1.117    25 C    0.974
    25   6 C    3.927 --    57 H    0.976    24 O    0.974    56 H    0.972
                            55 H    0.972
    26   6 C    3.950 --    29 C    1.487    23 C    1.311    60 H    0.959
    27   8 O    2.091 --    28 C    1.995
    28   6 C    3.875 --    27 O    1.995    59 H    0.936    58 H    0.936
    29   6 C    3.976 --    26 C    1.487    20 C    1.375    61 H    0.967
    30   6 C    3.957 --    17 N    0.998    64 H    0.977    62 H    0.966
                            63 H    0.961
    31   6 C    3.971 --    33 C    1.009    32 C    1.008    65 H    0.959
                             3 C    0.942
    32   6 C    3.978 --    31 C    1.008    67 H    0.982    68 H    0.981
                            66 H    0.974
    33   6 C    3.982 --    31 C    1.009    70 H    0.983    71 H    0.980
                            69 H    0.976
    34   1 H    0.996 --     5 C    0.958
    35   1 H    0.993 --     8 C    0.973
    36   1 H    0.993 --     8 C    0.976
    37   1 H    0.993 --     8 C    0.973
    38   1 H    0.992 --    11 C    0.973
    39   1 H    0.993 --    11 C    0.977
    40   1 H    0.993 --    11 C    0.973
    41   1 H    0.995 --    12 C    0.964
    42   1 H    0.998 --    13 C    0.962
    43   1 H    0.995 --    14 C    0.968
    44   1 H    0.996 --    14 C    0.972
    45   1 H    0.995 --    15 C    0.961
    46   1 H    0.970 --    15 C    0.926
    47   1 H    0.986 --     2 C    0.899
    48   1 H    0.994 --    16 C    0.957
    49   1 H    0.991 --    18 C    0.964
    50   1 H    0.994 --    18 C    0.968
    51   1 H    0.996 --    19 C    0.973
    52   1 H    0.995 --    19 C    0.971
    53   1 H    0.997 --    21 C    0.968
    54   1 H    0.996 --    22 C    0.964
    55   1 H    0.991 --    25 C    0.972
    56   1 H    0.991 --    25 C    0.972
    57   1 H    0.992 --    25 C    0.976
    58   1 H    0.986 --    28 C    0.936
    59   1 H    0.986 --    28 C    0.936
    60   1 H    0.995 --    26 C    0.959
    61   1 H    0.997 --    29 C    0.967
    62   1 H    0.985 --    30 C    0.966
    63   1 H    0.987 --    30 C    0.961
    64   1 H    0.993 --    30 C    0.977
    65   1 H    0.992 --    31 C    0.959
    66   1 H    0.990 --    32 C    0.974
    67   1 H    0.996 --    32 C    0.982
    68   1 H    0.994 --    32 C    0.981
    69   1 H    0.993 --    33 C    0.976
    70   1 H    0.997 --    33 C    0.983
    71   1 H    0.993 --    33 C    0.980
    72   1 H    0.970 --     1 N    0.941
 ---------------------------------------------------------------------------

molecular dipole:
                 x           y           z       tot (Debye)
 q only:       -0.283       0.129      -0.877
   full:       -0.028       0.015      -0.977       2.486

           -------------------------------------------------
          | TOTAL ENERGY              -99.353407064901 Eh   |
          | GRADIENT NORM               0.000676720997 Eh/α |
          | HOMO-LUMO GAP               1.753918011582 eV   |
           -------------------------------------------------

 * finished run on 2024/04/06 at 11:14:39.683
