   * xtb version 6.6.1 (8d0f1dd) compiled by 'conda@1efc2f54142f' on 2023-08-01
          program call               : xtb struc.xyz --opt loose --input .xc1 --gfn2

   ID    Z sym.   atoms
    1    7 N      1, 17
    2    6 C      2-6, 8, 9, 11-16, 18-23, 25, 26, 28-33
    3    8 O      7, 10, 24, 27
    4    1 H      34-72
constraining bond 13 31 to    6.0000000 Å, actual value:    3.5525077 Å

          :  Hamiltonian                  GFN2-xTB          :
 * total energy  :   -98.3345582 Eh     change       -0.4035485E-08 Eh
 * total energy  :   -98.6339647 Eh     change       -0.2994065E+00 Eh
 * total energy  :   -98.8083117 Eh     change       -0.1743471E+00 Eh
 * total energy  :   -98.9182116 Eh     change       -0.1098999E+00 Eh
 * total energy  :   -98.9944345 Eh     change       -0.7622292E-01 Eh
 * total energy  :   -99.0481112 Eh     change       -0.5367670E-01 Eh
 * total energy  :   -99.0936013 Eh     change       -0.4549013E-01 Eh
 * total energy  :   -99.1365489 Eh     change       -0.4294758E-01 Eh
 * total energy  :   -99.1772716 Eh     change       -0.4072266E-01 Eh
 * total energy  :   -99.2083668 Eh     change       -0.3109526E-01 Eh
 * total energy  :   -99.3331005 Eh     change       -0.1337367E-03 Eh
 * total energy  :   -99.3332485 Eh     change       -0.1480398E-03 Eh
 * total energy  :   -99.3333684 Eh     change       -0.1198956E-03 Eh
 * total energy  :   -99.3334615 Eh     change       -0.9313801E-04 Eh
 * total energy  :   -99.3335506 Eh     change       -0.8907232E-04 Eh
 * total energy  :   -99.3336394 Eh     change       -0.8874470E-04 Eh
 * total energy  :   -99.3336899 Eh     change       -0.5056259E-04 Eh
 * total energy  :   -99.3337492 Eh     change       -0.5931963E-04 Eh
 * total energy  :   -99.3337775 Eh     change       -0.2827103E-04 Eh
   *** GEOMETRY OPTIMIZATION CONVERGED AFTER 46 ITERATIONS ***

 final structure:
================
72
 xtb: 6.6.1 (8d0f1dd)
N           -1.32642617582597        1.05571581078122        2.51699606057302
C           -1.56863072029065        1.61600565398498        1.38483166286150
C           -2.40571428207905        1.10388359500115        0.36878529552809
C           -3.13113558811889       -0.12556463668776        0.46838495891163
C           -4.05025845516448       -0.52815689685461       -0.52923613227933
C           -4.72482810757704       -1.72796112727035       -0.45635146207001
O           -5.62971827052941       -2.17346251474665       -1.35977985984086
C           -6.00165424103154       -1.34303079200135       -2.43165630862883
C           -4.49116658979146       -2.61030563486822        0.63535363359460
O           -5.17845862765062       -3.76578786088431        0.60562101267327
C           -5.03238154850331       -4.68036875572253        1.66831575151029
C           -3.59785140416108       -2.21510035720954        1.62627489485893
C           -2.94180475548385       -1.00653031668214        1.55193804953055
C           -2.40009416438325        1.86641638709664       -0.92199515771619
C           -1.48054797120289        1.16345347651336       -1.97136048696330
C           -0.07721146228636        1.17960361862638       -1.51933579498993
N            0.54520365810786        0.18109872599836       -0.91637983785539
C            1.91315332469983        0.32531038273805       -0.48029576357666
C            2.90335323204859       -0.30748675388573       -1.47821256047116
C            4.31426632961935       -0.11082236351501       -0.99868068357640
C            4.96266032580938        1.09610164606514       -1.20357255582109
C            6.25220346978940        1.29781120557076       -0.73693041806780
C            6.92092678347546        0.29240247588957       -0.05415247173292
O            8.17033635719564        0.37701080758277        0.44289752231202
C            8.89496107074781        1.57332196072405        0.27502569714715
C            6.26640404464353       -0.95172024642019        0.15607210815014
O            6.99252918615046       -1.87661993511844        0.81711551452938
C            6.44599032114756       -3.15530326252417        1.03429584469780
C            4.97411534795574       -1.12758037519315       -0.31313982078776
C           -0.04436464448747       -1.13024039996600       -0.78207341370882
C           -5.14398128428348        4.49617829037017        0.65197752195951
C           -5.17558661439337        3.24348989654418        1.41423139202737
C           -3.99160187986751        5.40383808118145        0.63323137752015
H           -4.25650265647374        0.12427221267938       -1.36066351802055
H           -6.43347373113928       -0.40091615084317       -2.07857411856870
H           -6.75782721762689       -1.89897718375371       -2.98344452054051
H           -5.15547191707184       -1.13296653724473       -3.09427969495006
H           -5.32298242186800       -4.23336325899053        2.62304327315406
H           -5.70235511655368       -5.50735148346836        1.43808636823970
H           -4.00609582531537       -5.05431112069986        1.73514958050669
H           -3.41426389652362       -2.85924943665991        2.47038848627709
H           -2.25880448898845       -0.71046311130653        2.33259997620152
H           -3.39695259805881        1.95387269003007       -1.35194097781220
H           -2.02499637578524        2.87843873939518       -0.76157969550714
H           -1.84409527725154        0.15001588285584       -2.12942669048597
H           -1.55787464106552        1.72285235682159       -2.90662216295229
H           -1.11015091585295        2.58646523156024        1.13316242540973
H            0.46067578159040        2.11326370935240       -1.58428476154906
H            2.02352240952037       -0.15173274612250        0.49692581636800
H            2.14977310631281        1.38509826871258       -0.37030861944350
H            2.77027797954107        0.16953593293698       -2.45131290419173
H            2.68909353845528       -1.37152514094290       -1.58445568524782
H            4.46838272588667        1.89009798406050       -1.74262624977255
H            6.73211857037603        2.24577006048657       -0.91646603120336
H            8.39383565973977        2.41663712373668        0.76022822440164
H            9.05268602594517        1.80138388106508       -0.78345437332830
H            9.85690439736665        1.40157140723845        0.75403049340416
H            7.21956778892875       -3.71886424775959        1.55238201523457
H            5.55104202911645       -3.10891137785982        1.66313302932631
H            6.20558854856134       -3.65461528296766        0.09041772357164
H            4.46973013227342       -2.06869439120007       -0.15940246128481
H           -0.26844810858043       -1.56100079739501       -1.76026485900668
H           -0.96548194270647       -1.08019024303095       -0.19916354612506
H            0.65229373992634       -1.78497729294706       -0.26616402116048
H           -6.03409102333420        4.79492956221420        0.12280944079416
H           -4.19309312148826        2.96507162516745        1.78588021485487
H           -5.57850895438511        2.42470660974297        0.81475625761655
H           -5.85197136561475        3.33776902498080        2.27071832576204
H           -3.13450119300249        4.97517700769439        1.14590627641879
H           -3.71338918737368        5.66193282644147       -0.39250861197736
H           -4.24570489224393        6.35433120338728        1.11394042631005
H           -0.72462662846982        1.57345619825792        3.14645442569759

          :  Hamiltonian                  GFN2-xTB          :
         :: total energy             -99.333777513148 Eh    ::
         :: gradient norm              0.002802286746 Eh/a0 ::
         :: HOMO-LUMO gap              0.427608884162 eV    ::
         :: SCC energy              -100.727469897823 Eh    ::
         :: -> dispersion             -0.069808373123 Eh    ::
         :: repulsion energy           1.392573067037 Eh    ::

    * Orbital Energies and Occupations

         #    Occupation            Energy/Eh            Energy/eV
      -------------------------------------------------------------
         1        2.0000           -0.8017856             -21.8177
       ...           ...                  ...                  ...
        78        1.9993           -0.5325339             -14.4910
        79        1.9990           -0.5278773             -14.3643
        80        1.9988           -0.5249001             -14.2833
        81        1.9986           -0.5225386             -14.2190
        82        1.9985           -0.5211639             -14.1816
        83        1.9974           -0.5129877             -13.9591
        84        1.9962           -0.5065540             -13.7840
        85        1.9854           -0.4853253             -13.2064
        86        1.9810           -0.4810847             -13.0910
        87        1.9280           -0.4595920             -12.5061
        88        1.8755           -0.4504758             -12.2581
        89        1.8608           -0.4485817             -12.2065
        90        1.2360           -0.4151413             -11.2966 (HOMO)
        91        0.7497           -0.3994270             -10.8690 (LUMO)
        92        0.3885           -0.3850004             -10.4764
        93        0.0049           -0.3122628              -8.4971
        94        0.0030           -0.3046969              -8.2912
        95        0.0027           -0.3026538              -8.2356
        96        0.0022           -0.2999053              -8.1608
        97        0.0001           -0.2478031              -6.7431
        98        0.0000           -0.1797580              -4.8915
        99        0.0000           -0.1661967              -4.5224
       100                         -0.1213640              -3.3025
       101                         -0.0572692              -1.5584
       ...                                ...                  ...
       171                          0.5922332              16.1155
      -------------------------------------------------------------
                  HL-Gap            0.0157143 Eh            0.4276 eV

     #   Z          covCN         q      C6AA      α(0)
     1   7 N        1.776    -0.331    29.416     8.032
     2   6 C        2.823     0.069    26.451     8.427
     3   6 C        2.956    -0.034    28.854     8.810
     4   6 C        2.965     0.007    27.873     8.660
     5   6 C        2.919    -0.088    30.212     9.013
     6   6 C        2.858     0.128    25.200     8.228
     7   8 O        1.706    -0.238    17.952     5.720
     8   6 C        3.643     0.031    20.387     6.491
     9   6 C        2.864     0.132    25.112     8.214
    10   8 O        1.706    -0.222    17.686     5.678
    11   6 C        3.645     0.026    20.474     6.503
    12   6 C        2.910    -0.068    29.692     8.935
    13   6 C        2.921    -0.055    29.373     8.888
    14   6 C        3.810    -0.060    21.651     6.623
    15   6 C        3.803    -0.066    21.762     6.642
    16   6 C        2.846     0.007    27.865     8.651
    17   7 N        2.729     0.028    20.758     6.767
    18   6 C        3.758    -0.019    20.969     6.529
    19   6 C        3.808    -0.070    21.839     6.652
    20   6 C        2.969    -0.001    28.038     8.686
    21   6 C        2.922    -0.050    29.237     8.867
    22   6 C        2.914    -0.068    29.697     8.936
    23   6 C        2.865     0.132    25.106     8.213
    24   8 O        1.706    -0.225    17.735     5.686
    25   6 C        3.645     0.026    20.468     6.502
    26   6 C        2.863     0.132    25.104     8.213
    27   8 O        1.706    -0.227    17.769     5.691
    28   6 C        3.645     0.028    20.444     6.499
    29   6 C        2.920    -0.079    29.981     8.979
    30   6 C        3.701    -0.076    22.114     6.725
    31   6 C        2.883    -0.021    28.534     8.757
    32   6 C        3.753    -0.110    22.654     6.787
    33   6 C        3.752    -0.109    22.641     6.785
    34   1 H        0.926     0.044     2.400     2.422
    35   1 H        0.924     0.046     2.365     2.405
    36   1 H        0.925     0.078     2.002     2.213
    37   1 H        0.924     0.044     2.398     2.422
    38   1 H        0.924     0.056     2.243     2.342
    39   1 H        0.925     0.080     1.978     2.200
    40   1 H        0.924     0.053     2.283     2.363
    41   1 H        0.926     0.054     2.270     2.356
    42   1 H        0.926     0.092     1.859     2.132
    43   1 H        0.925     0.055     2.259     2.350
    44   1 H        0.924     0.043     2.408     2.427
    45   1 H        0.925     0.064     2.153     2.295
    46   1 H        0.924     0.069     2.102     2.267
    47   1 H        0.923    -0.010     3.243     2.816
    48   1 H        0.926     0.067     2.123     2.279
    49   1 H        0.924     0.072     2.060     2.244
    50   1 H        0.924     0.069     2.099     2.265
    51   1 H        0.924     0.055     2.254     2.348
    52   1 H        0.924     0.055     2.264     2.353
    53   1 H        0.926     0.043     2.412     2.429
    54   1 H        0.926     0.056     2.242     2.341
    55   1 H        0.924     0.052     2.291     2.367
    56   1 H        0.924     0.054     2.269     2.356
    57   1 H        0.925     0.081     1.973     2.197
    58   1 H        0.925     0.080     1.976     2.198
    59   1 H        0.924     0.048     2.339     2.392
    60   1 H        0.924     0.051     2.304     2.374
    61   1 H        0.926     0.047     2.356     2.400
    62   1 H        0.924     0.075     2.030     2.228
    63   1 H        0.924     0.091     1.865     2.136
    64   1 H        0.925     0.080     1.978     2.199
    65   1 H        0.926     0.056     2.252     2.346
    66   1 H        0.925     0.062     2.179     2.308
    67   1 H        0.924     0.069     2.091     2.261
    68   1 H        0.924     0.088     1.901     2.156
    69   1 H        0.925     0.057     2.230     2.335
    70   1 H        0.924     0.073     2.057     2.243
    71   1 H        0.924     0.085     1.928     2.171
    72   1 H        0.860     0.139     1.477     1.904

Wiberg/Mayer (AO) data.
largest (>0.10) Wiberg bond orders for each atom

     #   Z sym  total        # sym  WBO       # sym  WBO       # sym  WBO
 ---------------------------------------------------------------------------
     1   7 N    2.748 --     2 C    1.661    72 H    0.950
     2   6 C    3.935 --     1 N    1.661     3 C    1.275    47 H    0.933
     3   6 C    3.652 --     2 C    1.275     4 C    1.228    14 C    1.029
     4   6 C    3.956 --    13 C    1.288     5 C    1.275     3 C    1.228
     5   6 C    3.906 --     6 C    1.443     4 C    1.275    34 H    0.956
     6   6 C    3.900 --     5 C    1.443     9 C    1.204     7 O    1.085
     7   8 O    2.240 --     6 C    1.085     8 C    0.982
     8   6 C    3.937 --     7 O    0.982    36 H    0.977    35 H    0.974
                            37 H    0.974
     9   6 C    3.824 --    12 C    1.350     6 C    1.204    10 O    1.113
    10   8 O    2.242 --     9 C    1.113    11 C    0.976
    11   6 C    3.930 --    39 H    0.977    10 O    0.976    38 H    0.973
                            40 H    0.973
    12   6 C    3.963 --    13 C    1.471     9 C    1.350    41 H    0.962
    13   6 C    3.852 --    12 C    1.471     4 C    1.288    42 H    0.940
    14   6 C    3.958 --     3 C    1.029    44 H    0.972    43 H    0.958
                            15 C    0.924
    15   6 C    3.970 --    16 C    1.069    45 H    0.966    46 H    0.956
                            14 C    0.924
    16   6 C    3.582 --    17 N    1.432    15 C    1.069    48 H    0.960
    17   7 N    3.492 --    16 C    1.432    30 C    0.996    18 C    0.989
    18   6 C    3.955 --    17 N    0.989    50 H    0.968    19 C    0.967
                            49 H    0.962
    19   6 C    3.976 --    20 C    1.008    52 H    0.972    51 H    0.970
                            18 C    0.967
    20   6 C    3.948 --    21 C    1.410    29 C    1.381    19 C    1.008
    21   6 C    3.953 --    22 C    1.417    20 C    1.410    53 H    0.968
    22   6 C    3.962 --    21 C    1.417    23 C    1.385    54 H    0.963
    23   6 C    3.899 --    22 C    1.385    26 C    1.224    24 O    1.105
    24   8 O    2.254 --    23 C    1.105    25 C    0.977
    25   6 C    3.930 --    24 O    0.977    57 H    0.977    55 H    0.973
                            56 H    0.973
    26   6 C    3.902 --    29 C    1.395    23 C    1.224    27 O    1.100
    27   8 O    2.254 --    26 C    1.100    28 C    0.979
    28   6 C    3.933 --    27 O    0.979    58 H    0.977    60 H    0.974
                            59 H    0.974
    29   6 C    3.961 --    26 C    1.395    20 C    1.381    61 H    0.962
    30   6 C    3.953 --    17 N    0.996    64 H    0.978    62 H    0.966
                            63 H    0.955
    31   6 C    3.238 --    32 C    1.113    33 C    1.110    65 H    0.972
    32   6 C    3.977 --    31 C    1.113    66 H    0.977    67 H    0.945
                            68 H    0.919
    33   6 C    3.980 --    31 C    1.110    69 H    0.981    70 H    0.941
                            71 H    0.925
    34   1 H    0.997 --     5 C    0.956
    35   1 H    0.994 --     8 C    0.974
    36   1 H    0.993 --     8 C    0.977
    37   1 H    0.995 --     8 C    0.974
    38   1 H    0.991 --    11 C    0.973
    39   1 H    0.993 --    11 C    0.977
    40   1 H    0.991 --    11 C    0.973
    41   1 H    0.995 --    12 C    0.962
    42   1 H    0.988 --    13 C    0.940
    43   1 H    0.987 --    14 C    0.958
    44   1 H    0.996 --    14 C    0.972
    45   1 H    0.994 --    15 C    0.966
    46   1 H    0.985 --    15 C    0.956
    47   1 H    0.975 --     2 C    0.933
    48   1 H    0.995 --    16 C    0.960
    49   1 H    0.990 --    18 C    0.962
    50   1 H    0.994 --    18 C    0.968
    51   1 H    0.995 --    19 C    0.970
    52   1 H    0.996 --    19 C    0.972
    53   1 H    0.998 --    21 C    0.968
    54   1 H    0.995 --    22 C    0.963
    55   1 H    0.993 --    25 C    0.973
    56   1 H    0.992 --    25 C    0.973
    57   1 H    0.993 --    25 C    0.977
    58   1 H    0.993 --    28 C    0.977
    59   1 H    0.994 --    28 C    0.974
    60   1 H    0.993 --    28 C    0.974
    61   1 H    0.997 --    29 C    0.962
    62   1 H    0.985 --    30 C    0.966
    63   1 H    0.984 --    30 C    0.955
    64   1 H    0.994 --    30 C    0.978
    65   1 H    0.996 --    31 C    0.972
    66   1 H    0.994 --    32 C    0.977
    67   1 H    0.965 --    32 C    0.945
    68   1 H    0.942 --    32 C    0.919
    69   1 H    0.996 --    33 C    0.981
    70   1 H    0.961 --    33 C    0.941
    71   1 H    0.947 --    33 C    0.925
    72   1 H    0.972 --     1 N    0.950
 ---------------------------------------------------------------------------

molecular dipole:
                 x           y           z       tot (Debye)
 q only:       -0.616       1.086      -0.792
   full:       -0.602       1.621      -0.961       5.029

           -------------------------------------------------
          | TOTAL ENERGY              -99.333777513148 Eh   |
          | GRADIENT NORM               0.002802286746 Eh/α |
          | HOMO-LUMO GAP               0.427608884162 eV   |
           -------------------------------------------------

 * finished run on 2024/04/06 at 11:13:02.801
