   * xtb version 6.6.1 (8d0f1dd) compiled by 'conda@1efc2f54142f' on 2023-08-01
          program call               : xtb struc.xyz --opt loose --input .xc1 --gfn2

   ID    Z sym.   atoms
    1    6 C      1, 3, 5-7, 10, 11, 14
    2    7 N      2, 4, 9, 13
    3    8 O      8, 12
    4    1 H      15-25
constraining bond 5 9 to    5.9200000 Å, actual value:    2.6823449 Å

          :  Hamiltonian                  GFN2-xTB          :
 * total energy  :   -23.5311781 Eh     change       -0.6650680E-10 Eh
 * total energy  :   -29.3296230 Eh     change       -0.5798445E+01 Eh
 * total energy  :   -33.3225761 Eh     change       -0.3992953E+01 Eh
 * total energy  :   -36.0343418 Eh     change       -0.2711766E+01 Eh
 * total energy  :   -38.5213150 Eh     change       -0.2486973E+01 Eh
 * total energy  :   -40.3384850 Eh     change       -0.1817170E+01 Eh
 * total energy  :   -41.0099604 Eh     change       -0.6714754E+00 Eh
 * total energy  :   -41.3088360 Eh     change       -0.2988755E+00 Eh
 * total energy  :   -41.4700131 Eh     change       -0.1611772E+00 Eh
 * total energy  :   -41.5336506 Eh     change       -0.6363748E-01 Eh
 * total energy  :   -41.9884515 Eh     change       -0.1884715E-03 Eh
 * total energy  :   -41.9885775 Eh     change       -0.1259962E-03 Eh
 * total energy  :   -41.9886759 Eh     change       -0.9842244E-04 Eh
 * total energy  :   -41.9888466 Eh     change       -0.1706062E-03 Eh
 * total energy  :   -41.9889851 Eh     change       -0.1385907E-03 Eh
 * total energy  :   -41.9891050 Eh     change       -0.1198878E-03 Eh
 * total energy  :   -41.9891113 Eh     change       -0.6272201E-05 Eh
 * total energy  :   -41.9892088 Eh     change       -0.9750341E-04 Eh
 * total energy  :   -41.9892464 Eh     change       -0.3758387E-04 Eh
   *** GEOMETRY OPTIMIZATION CONVERGED AFTER 58 ITERATIONS ***

 final structure:
================
25
 xtb: 6.6.1 (8d0f1dd)
C            4.42892074615902        1.32924328047104       -0.00449822613526
N            3.16488355615548        0.62035713199561       -0.07980731037078
C            3.18895345993470       -0.73031402580771        0.07678868036855
N            2.10523003362021       -1.43160456409356        0.06089336794661
C            1.12508720824213       -2.02539209610628       -0.23993613184661
C            2.03338878464869        1.25361478597674       -0.28093547636921
C            1.20929304460350        2.18411920537566       -0.45540196050985
O            0.28063336340833        2.88980674451052       -0.61091115275867
N           -2.30179917132129        2.67955147613461        0.84199197191574
C           -3.42559864225463        2.61102935764343        0.32553777365696
C           -2.42162930735290       -1.35741670520876       -0.23918412907439
O           -2.45132830441866       -0.20787949275146       -0.38641188083621
N           -2.15617588530339       -2.49900455935025       -0.03606497633424
C           -2.63020552914868       -3.83377624279883        0.00535342622030
H            4.85510048582034        1.23299418156388        0.99587231071544
H            5.13468375289409        0.91811395916472       -0.72777704203327
H            4.26940506739424        2.38277548459599       -0.22131023270716
H            4.13177969652103       -1.21553549604780        0.27090832018375
H           -1.47157733559759        2.87736289120939        0.28585609298094
H           -3.64718377971098        2.74577221158031       -0.73946342892934
H           -4.28002332285470        2.39846701870600        0.95913150349329
H           -2.37694876930622       -4.26272069884237        0.97692647657258
H           -2.13399246208535       -4.40922031005181       -0.77804297248964
H           -3.71042957980359       -3.88458462934582       -0.14059050808568
H            0.23996440385272       -2.44752036692102        0.17224712232719

          :  Hamiltonian                  GFN2-xTB          :
         :: total energy             -41.989246403652 Eh    ::
         :: gradient norm              0.003776671642 Eh/a0 ::
         :: HOMO-LUMO gap              1.036183200110 eV    ::
         :: SCC energy               -42.680581598258 Eh    ::
         :: -> dispersion             -0.015525098498 Eh    ::
         :: repulsion energy           0.691282130994 Eh    ::

    * Orbital Energies and Occupations

         #    Occupation            Energy/Eh            Energy/eV
      -------------------------------------------------------------
         1        2.0000           -0.8581979             -23.3528
       ...           ...                  ...                  ...
        25        2.0000           -0.6486047             -17.6494
        26        1.9999           -0.6411264             -17.4459
        27        1.9998           -0.6276428             -17.0790
        28        1.9998           -0.6254439             -17.0192
        29        1.9998           -0.6237793             -16.9739
        30        1.9995           -0.6091858             -16.5768
        31        1.9992           -0.6036907             -16.4273
        32        1.9991           -0.6003255             -16.3357
        33        1.9719           -0.5462360             -14.8638
        34        1.9528           -0.5378489             -14.6356
        35        1.9090           -0.5271147             -14.3435
        36        1.8570           -0.5195156             -14.1367
        37        1.6626           -0.5041698             -13.7192 (HOMO)
        38        0.6157           -0.4660907             -12.6830 (LUMO)
        39        0.0307           -0.4130383             -11.2393
        40        0.0019           -0.3687110             -10.0331
        41        0.0012           -0.3618981              -9.8477
        42        0.0001           -0.3166639              -8.6169
        43        0.0000           -0.2948721              -8.0239
        44        0.0000           -0.2886408              -7.8543
        45        0.0000           -0.2487580              -6.7691
        46                         -0.1481037              -4.0301
        47                         -0.0803244              -2.1857
        48                         -0.0683709              -1.8605
       ...                                ...                  ...
        67                          1.2153885              33.0724
      -------------------------------------------------------------
                  HL-Gap            0.0380790 Eh            1.0362 eV

     #   Z          covCN         q      C6AA      α(0)
     1   6 C        3.710    -0.087    22.296     6.748
     2   7 N        2.737     0.118    19.228     6.513
     3   6 C        2.811     0.031    27.305     8.561
     4   7 N        1.830     0.087    20.374     6.689
     5   6 C        1.845    -0.004    31.259     9.032
     6   6 C        1.948    -0.088    33.498     9.347
     7   6 C        1.837     0.224    25.915     8.224
     8   8 O        0.856    -0.250    18.901     5.829
     9   7 N        1.770    -0.173    25.510     7.479
    10   6 C        2.759     0.059    26.666     8.456
    11   6 C        1.770     0.312    24.212     7.955
    12   8 O        0.856    -0.277    19.374     5.901
    13   7 N        1.820    -0.174    25.574     7.493
    14   6 C        3.686    -0.030    21.314     6.609
    15   1 H        0.924     0.098     1.800     2.098
    16   1 H        0.924     0.098     1.802     2.099
    17   1 H        0.925     0.101     1.774     2.083
    18   1 H        0.926     0.111     1.686     2.031
    19   1 H        0.860     0.223     0.997     1.564
    20   1 H        0.924     0.095     1.832     2.117
    21   1 H        0.925     0.111     1.691     2.034
    22   1 H        0.924     0.087     1.909     2.161
    23   1 H        0.924     0.086     1.915     2.164
    24   1 H        0.924     0.079     1.986     2.204
    25   1 H        0.927     0.163     1.308     1.788

Wiberg/Mayer (AO) data.
largest (>0.10) Wiberg bond orders for each atom

     #   Z sym  total        # sym  WBO       # sym  WBO       # sym  WBO
 ---------------------------------------------------------------------------
     1   6 C    3.929 --    17 H    0.976     2 N    0.970    16 H    0.963
                            15 H    0.960
     2   7 N    3.564 --     6 C    1.304     3 C    1.197     1 C    0.970
     3   6 C    3.827 --     4 N    1.355     2 N    1.197    18 H    0.930
                             5 C    0.166
     4   7 N    3.653 --     5 C    2.246     3 C    1.355
     5   6 C    3.482 --     4 N    2.246    25 H    0.918     3 C    0.166
     6   6 C    3.558 --     7 C    1.901     2 N    1.304     8 O    0.197
     7   6 C    3.805 --     6 C    1.901     8 O    1.819
     8   8 O    2.139 --     7 C    1.819     6 C    0.197
     9   7 N    2.969 --    10 C    2.060    19 H    0.882
    10   6 C    3.897 --     9 N    2.060    21 H    0.931    20 H    0.904
    11   6 C    3.937 --    13 N    1.984    12 O    1.884
    12   8 O    2.293 --    11 C    1.884    13 N    0.364
    13   7 N    3.368 --    11 C    1.984    14 C    1.008    12 O    0.364
    14   6 C    3.934 --    13 N    1.008    24 H    0.962    22 H    0.962
                            23 H    0.960
    15   1 H    0.979 --     1 C    0.960
    16   1 H    0.981 --     1 C    0.963
    17   1 H    0.988 --     1 C    0.976
    18   1 H    0.985 --     3 C    0.930
    19   1 H    0.928 --     9 N    0.882
    20   1 H    0.915 --    10 C    0.904
    21   1 H    0.952 --    10 C    0.931
    22   1 H    0.984 --    14 C    0.962
    23   1 H    0.984 --    14 C    0.960
    24   1 H    0.986 --    14 C    0.962
    25   1 H    0.959 --     5 C    0.918
 ---------------------------------------------------------------------------

molecular dipole:
                 x           y           z       tot (Debye)
 q only:        1.779      -1.179       0.294
   full:        1.648      -1.273       0.095       5.299

           -------------------------------------------------
          | TOTAL ENERGY              -41.989246403652 Eh   |
          | GRADIENT NORM               0.003776671642 Eh/α |
          | HOMO-LUMO GAP               1.036183200110 eV   |
           -------------------------------------------------

 * finished run on 2024/06/05 at 19:57:55.218
