   * xtb version 6.6.1 (8d0f1dd) compiled by 'conda@1efc2f54142f' on 2023-08-01
          program call               : xtb struc.xyz --opt loose --input .xc1 --gfn2

   ID    Z sym.   atoms
    1    7 N      1, 17
    2    6 C      2-6, 8, 9, 11-16, 18-23, 25, 26, 28-33
    3    8 O      7, 10, 24, 27
    4    1 H      34-72
constraining bond 67 68 to    3.2800000 Å, actual value:    1.7619984 Å

          :  Hamiltonian                  GFN2-xTB          :
 * total energy  :   -98.9926856 Eh     change       -0.4035485E-08 Eh
 * total energy  :   -99.1543005 Eh     change       -0.1616149E+00 Eh
 * total energy  :   -99.2277716 Eh     change       -0.7347110E-01 Eh
 * total energy  :   -99.2462489 Eh     change       -0.1847728E-01 Eh
 * total energy  :   -99.2491031 Eh     change       -0.2854188E-02 Eh
 * total energy  :   -99.2496361 Eh     change       -0.5330287E-03 Eh
 * total energy  :   -99.2500478 Eh     change       -0.4116287E-03 Eh
 * total energy  :   -99.2502094 Eh     change       -0.1616309E-03 Eh
 * total energy  :   -99.2504354 Eh     change       -0.2259851E-03 Eh
 * total energy  :   -99.2506536 Eh     change       -0.2181850E-03 Eh
 * total energy  :   -99.2508652 Eh     change       -0.2116436E-03 Eh
 * total energy  :   -99.2510268 Eh     change       -0.1615473E-03 Eh
 * total energy  :   -99.2511609 Eh     change       -0.1341802E-03 Eh
 * total energy  :   -99.2512714 Eh     change       -0.1104644E-03 Eh
 * total energy  :   -99.2513489 Eh     change       -0.7749707E-04 Eh
 * total energy  :   -99.2513972 Eh     change       -0.4831289E-04 Eh
   *** GEOMETRY OPTIMIZATION CONVERGED AFTER 16 ITERATIONS ***

 final structure:
================
72
 xtb: 6.6.1 (8d0f1dd)
N           -1.90953817362321        2.75935914580080        2.24850216505100
C           -1.84991401225910        2.10433926716615        1.18642539096918
C           -3.00509062211673        1.90040956561045        0.24388935080750
C           -3.48112456274936        0.45515794251640        0.31254677348655
C           -4.43483848593424       -0.01145575877014       -0.59808875562325
C           -4.90115397494988       -1.31497163184673       -0.55341919026762
O           -5.83077002576271       -1.83995512410231       -1.37712853301728
C           -6.48084748896010       -1.00759082542044       -2.30902691772360
C           -4.38741457714224       -2.21127298929131        0.42375456625122
O           -4.90442831903061       -3.45542393355212        0.40441208202378
C           -4.51759653128238       -4.37027390970972        1.40382221086432
C           -3.42035527295506       -1.75240465544421        1.30362192010200
C           -2.97193813332118       -0.43893709850817        1.24672601392785
C           -2.45871372971682        2.18271857180067       -1.18208151599281
C           -1.50052240337437        1.10747384345298       -1.73344126498355
C           -0.16575728701477        1.10634661712692       -1.09155004911654
N            0.48893136109747        0.02973717886939       -0.66930954103844
C            1.86635124408456        0.12767760583958       -0.24677767903405
C            2.83511158464613       -0.32873471149201       -1.35464737712920
C            4.25644458917067       -0.12829726321585       -0.90928950681201
C            4.89856647181385        1.07975681343405       -1.12631015162309
C            6.20042721043145        1.27944026283575       -0.69415580638276
C            6.88671237647174        0.27297991644875       -0.03008663420355
O            8.14938216268959        0.35562419792635        0.42904724531570
C            8.88007026197717        1.54214382675174        0.21883577086786
C            6.23473430641214       -0.96989236413050        0.20046280209419
O            6.97297080079640       -1.89417529912661        0.84729929513925
C            6.42419691075869       -3.16753049504874        1.08958701243377
C            4.93208969533506       -1.14533246169074       -0.23914047064686
C           -0.10406741975548       -1.28564788847726       -0.68616786772439
C           -4.20248477827284        2.85889620166461        0.55845864011971
C           -4.83099269200051        2.58099951631398        1.91219247348664
C           -3.80014703846324        4.33166449522062        0.46163595288889
H           -4.83774080551741        0.66255376246594       -1.33551400003361
H           -6.98535107806657       -0.17140235225560       -1.81588335446285
H           -7.22219370626399       -1.63868226308767       -2.79546864513527
H           -5.78457646384424       -0.62518513423766       -3.06249914737105
H           -4.75389698003120       -3.99406887409521        2.40369410559629
H           -5.09340055723229       -5.27364321468696        1.21328898069468
H           -3.44968614353852       -4.60336758474142        1.34366004210154
H           -3.01516378772082       -2.40702212560773        2.05792146613129
H           -2.24506700808193       -0.10836820502918        1.97300198536687
H           -3.30184553407960        2.25802773537866       -1.86809130168746
H           -1.94310105662260        3.14332702527799       -1.18346874141212
H           -1.97435357570406        0.12905782337926       -1.67970203546613
H           -1.34939849245699        1.34660435005824       -2.79445795177705
H           -0.92076902290379        1.64046565857602        0.80245439072755
H            0.38686078667584        2.03471341240699       -1.09240061361829
H            2.01270248674088       -0.49105039122900        0.64268561881981
H            2.09305263677176        1.16264988073193        0.01752544025801
H            2.64040990260969        0.26067519395671       -2.25227277514032
H            2.65667443352397       -1.37959125371792       -1.58534782334081
H            4.39060406688777        1.87573701239277       -1.64939812402729
H            6.67617776388015        2.22715319167842       -0.88535766211329
H            8.40967580152938        2.39601197301336        0.71596612141524
H            8.99528730003662        1.75762733488973       -0.84764822769204
H            9.85932665648080        1.36371806077737        0.65868530826264
H            7.20665704578068       -3.73211060032312        1.59279651643622
H            5.54601388193927       -3.10902027345251        1.74079246118164
H            6.15635835363659       -3.67335990638823        0.15672181392913
H            4.43197894530217       -2.08727124489399       -0.07653894046303
H           -0.25315302309230       -1.64004794108004       -1.70825575206060
H           -1.06915240502902       -1.27572083045990       -0.17320925613171
H            0.55419971011114       -1.98051273004588       -0.17111033839879
H           -4.95708403587543        2.66933496922828       -0.21440972785651
H           -4.12684918265767        2.75634702301859        2.71659788624426
H           -4.82607471520280        1.07020605593343        1.94146554259006
H           -5.67181985890305        3.77895927229167        2.06920883824231
H           -3.02612420391813        4.56272329777700        1.18743329752759
H           -3.44917428832787        4.58682450835755       -0.53363769664913
H           -4.66136251947568        4.96050878993872        0.67535891239078
H           -1.06041917736075        2.85850955735102        2.79607982501110

          :  Hamiltonian                  GFN2-xTB          :
         :: total energy             -99.251397212414 Eh    ::
         :: gradient norm              0.002609251429 Eh/a0 ::
         :: HOMO-LUMO gap              1.665383583780 eV    ::
         :: SCC energy              -100.629352453827 Eh    ::
         :: -> dispersion             -0.076921291663 Eh    ::
         :: repulsion energy           1.342183568706 Eh    ::

    * Orbital Energies and Occupations

         #    Occupation            Energy/Eh            Energy/eV
      -------------------------------------------------------------
         1        2.0000           -0.8092386             -22.0205
       ...           ...                  ...                  ...
        78        1.9985           -0.5291260             -14.3983
        79        1.9984           -0.5280113             -14.3679
        80        1.9982           -0.5262253             -14.3193
        81        1.9975           -0.5215661             -14.1925
        82        1.9972           -0.5192312             -14.1290
        83        1.9963           -0.5150722             -14.0158
        84        1.9928           -0.5045160             -13.7286
        85        1.9856           -0.4934794             -13.4283
        86        1.9795           -0.4878104             -13.2740
        87        1.9787           -0.4872478             -13.2587
        88        1.9317           -0.4683716             -12.7450
        89        1.8652           -0.4570581             -12.4372
        90        1.8480           -0.4550192             -12.3817 (HOMO)
        91        0.4062           -0.3938175             -10.7163 (LUMO)
        92        0.0189           -0.3417562              -9.2997
        93        0.0051           -0.3209194              -8.7327
        94        0.0037           -0.3160235              -8.5994
        95        0.0028           -0.3115164              -8.4768
        96        0.0024           -0.3091656              -8.4128
        97        0.0008           -0.2915485              -7.9334
        98        0.0000           -0.1937452              -5.2721
        99        0.0000           -0.1866202              -5.0782
       100        0.0000           -0.1675962              -4.5605
       101                         -0.1358030              -3.6954
       ...                                ...                  ...
       171                          0.5771966              15.7063
      -------------------------------------------------------------
                  HL-Gap            0.0612017 Eh            1.6654 eV

     #   Z          covCN         q      C6AA      α(0)
     1   7 N        1.774    -0.273    27.900     7.822
     2   6 C        2.825     0.098    25.814     8.325
     3   6 C        3.905     0.006    20.418     6.423
     4   6 C        2.972     0.007    27.858     8.658
     5   6 C        2.919    -0.079    29.982     8.979
     6   6 C        2.861     0.131    25.132     8.217
     7   8 O        1.706    -0.230    17.808     5.698
     8   6 C        3.644     0.027    20.454     6.501
     9   6 C        2.864     0.130    25.159     8.222
    10   8 O        1.706    -0.228    17.783     5.694
    11   6 C        3.646     0.027    20.453     6.499
    12   6 C        2.913    -0.075    29.868     8.962
    13   6 C        2.920    -0.050    29.243     8.868
    14   6 C        3.811    -0.066    21.749     6.638
    15   6 C        3.801    -0.068    21.811     6.649
    16   6 C        2.842     0.005    27.896     8.656
    17   7 N        2.729     0.009    21.103     6.823
    18   6 C        3.756    -0.016    20.914     6.521
    19   6 C        3.808    -0.070    21.840     6.653
    20   6 C        2.969    -0.001    28.039     8.686
    21   6 C        2.922    -0.049    29.217     8.864
    22   6 C        2.914    -0.068    29.684     8.934
    23   6 C        2.865     0.133    25.083     8.210
    24   8 O        1.706    -0.222    17.691     5.679
    25   6 C        3.645     0.025    20.485     6.505
    26   6 C        2.863     0.133    25.092     8.211
    27   8 O        1.706    -0.225    17.736     5.686
    28   6 C        3.645     0.027    20.449     6.499
    29   6 C        2.919    -0.080    29.990     8.980
    30   6 C        3.699    -0.071    22.022     6.711
    31   6 C        3.851    -0.013    20.765     6.481
    32   6 C        2.495    -0.063    29.749     8.908
    33   6 C        3.755    -0.117    22.803     6.809
    34   1 H        0.926     0.052     2.297     2.370
    35   1 H        0.924     0.054     2.270     2.356
    36   1 H        0.925     0.082     1.962     2.191
    37   1 H        0.924     0.048     2.351     2.398
    38   1 H        0.924     0.055     2.258     2.350
    39   1 H        0.925     0.081     1.964     2.192
    40   1 H        0.924     0.048     2.346     2.395
    41   1 H        0.926     0.052     2.300     2.372
    42   1 H        0.926     0.037     2.493     2.469
    43   1 H        0.925     0.060     2.195     2.317
    44   1 H        0.924     0.054     2.270     2.356
    45   1 H        0.925     0.065     2.145     2.290
    46   1 H        0.923     0.079     1.987     2.204
    47   1 H        0.922     0.010     2.899     2.663
    48   1 H        0.926     0.068     2.104     2.268
    49   1 H        0.924     0.067     2.120     2.277
    50   1 H        0.924     0.067     2.123     2.278
    51   1 H        0.924     0.055     2.260     2.351
    52   1 H        0.924     0.055     2.254     2.348
    53   1 H        0.926     0.045     2.388     2.417
    54   1 H        0.926     0.058     2.220     2.330
    55   1 H        0.924     0.054     2.271     2.357
    56   1 H        0.924     0.056     2.251     2.346
    57   1 H        0.925     0.082     1.957     2.188
    58   1 H        0.925     0.082     1.962     2.191
    59   1 H        0.924     0.048     2.342     2.393
    60   1 H        0.924     0.052     2.293     2.368
    61   1 H        0.926     0.047     2.360     2.402
    62   1 H        0.924     0.075     2.027     2.227
    63   1 H        0.924     0.079     1.985     2.203
    64   1 H        0.925     0.079     1.988     2.205
    65   1 H        0.924     0.044     2.391     2.418
    66   1 H        0.925     0.073     2.049     2.239
    67   1 H        0.247    -0.001     7.405     4.955
    68   1 H        0.342     0.032     5.659     4.289
    69   1 H        0.925     0.057     2.235     2.338
    70   1 H        0.925     0.040     2.451     2.448
    71   1 H        0.925     0.055     2.254     2.348
    72   1 H        0.860     0.159     1.344     1.816

Wiberg/Mayer (AO) data.
largest (>0.10) Wiberg bond orders for each atom

     #   Z sym  total        # sym  WBO       # sym  WBO       # sym  WBO
 ---------------------------------------------------------------------------
     1   7 N    3.040 --     2 C    1.953    72 H    0.941
     2   6 C    3.924 --     1 N    1.953     3 C    0.996    47 H    0.898
     3   6 C    3.977 --     2 C    0.996     4 C    0.968    14 C    0.958
                            31 C    0.934
     4   6 C    3.951 --    13 C    1.395     5 C    1.358     3 C    0.968
     5   6 C    3.963 --     6 C    1.405     4 C    1.358    34 H    0.958
     6   6 C    3.910 --     5 C    1.405     9 C    1.221     7 O    1.101
     7   8 O    2.259 --     6 C    1.101     8 C    0.977
     8   6 C    3.932 --     7 O    0.977    36 H    0.977    35 H    0.974
                            37 H    0.974
     9   6 C    3.904 --    12 C    1.392     6 C    1.221    10 O    1.103
    10   8 O    2.256 --     9 C    1.103    11 C    0.977
    11   6 C    3.931 --    10 O    0.977    39 H    0.977    40 H    0.974
                            38 H    0.974
    12   6 C    3.965 --    13 C    1.403     9 C    1.392    41 H    0.964
    13   6 C    3.955 --    12 C    1.403     4 C    1.395    42 H    0.962
    14   6 C    3.971 --    15 C    0.980    44 H    0.972    43 H    0.969
                             3 C    0.958
    15   6 C    3.987 --    16 C    1.059    14 C    0.980    45 H    0.963
                            46 H    0.929
    16   6 C    3.586 --    17 N    1.394    15 C    1.059    48 H    0.958
    17   7 N    3.472 --    16 C    1.394    30 C    0.999    18 C    0.988
    18   6 C    3.956 --    17 N    0.988    50 H    0.968    19 C    0.967
                            49 H    0.964
    19   6 C    3.976 --    20 C    1.008    52 H    0.972    51 H    0.972
                            18 C    0.967
    20   6 C    3.945 --    21 C    1.410    29 C    1.380    19 C    1.008
    21   6 C    3.951 --    22 C    1.417    20 C    1.410    53 H    0.968
    22   6 C    3.960 --    21 C    1.417    23 C    1.384    54 H    0.963
    23   6 C    3.896 --    22 C    1.384    26 C    1.221    24 O    1.110
    24   8 O    2.255 --    23 C    1.110    25 C    0.976
    25   6 C    3.928 --    57 H    0.977    24 O    0.976    55 H    0.973
                            56 H    0.973
    26   6 C    3.900 --    29 C    1.395    23 C    1.221    27 O    1.103
    27   8 O    2.254 --    26 C    1.103    28 C    0.979
    28   6 C    3.932 --    27 O    0.979    58 H    0.977    59 H    0.973
                            60 H    0.973
    29   6 C    3.960 --    26 C    1.395    20 C    1.380    61 H    0.962
    30   6 C    3.957 --    17 N    0.999    64 H    0.978    62 H    0.966
                            63 H    0.959
    31   6 C    3.970 --    32 C    1.025    33 C    1.000    65 H    0.955
                             3 C    0.934
    32   6 C    3.884 --    31 C    1.025    66 H    0.964    68 H    0.928
                            67 H    0.897
    33   6 C    3.984 --    31 C    1.000    70 H    0.980    69 H    0.979
                            71 H    0.973
    34   1 H    0.996 --     5 C    0.958
    35   1 H    0.994 --     8 C    0.974
    36   1 H    0.993 --     8 C    0.977
    37   1 H    0.994 --     8 C    0.974
    38   1 H    0.993 --    11 C    0.974
    39   1 H    0.993 --    11 C    0.977
    40   1 H    0.994 --    11 C    0.974
    41   1 H    0.996 --    12 C    0.964
    42   1 H    0.998 --    13 C    0.962
    43   1 H    0.995 --    14 C    0.969
    44   1 H    0.996 --    14 C    0.972
    45   1 H    0.995 --    15 C    0.963
    46   1 H    0.971 --    15 C    0.929
    47   1 H    0.988 --     2 C    0.898
    48   1 H    0.995 --    16 C    0.958
    49   1 H    0.991 --    18 C    0.964
    50   1 H    0.994 --    18 C    0.968
    51   1 H    0.996 --    19 C    0.972
    52   1 H    0.996 --    19 C    0.972
    53   1 H    0.997 --    21 C    0.968
    54   1 H    0.995 --    22 C    0.963
    55   1 H    0.992 --    25 C    0.973
    56   1 H    0.992 --    25 C    0.973
    57   1 H    0.993 --    25 C    0.977
    58   1 H    0.993 --    28 C    0.977
    59   1 H    0.993 --    28 C    0.973
    60   1 H    0.993 --    28 C    0.973
    61   1 H    0.997 --    29 C    0.962
    62   1 H    0.985 --    30 C    0.966
    63   1 H    0.987 --    30 C    0.959
    64   1 H    0.993 --    30 C    0.978
    65   1 H    0.991 --    31 C    0.955
    66   1 H    0.983 --    32 C    0.964
    67   1 H    0.980 --    32 C    0.897
    68   1 H    0.980 --    32 C    0.928
    69   1 H    0.995 --    33 C    0.979
    70   1 H    0.997 --    33 C    0.980
    71   1 H    0.995 --    33 C    0.973
    72   1 H    0.970 --     1 N    0.941
 ---------------------------------------------------------------------------

molecular dipole:
                 x           y           z       tot (Debye)
 q only:        0.509       0.076      -0.804
   full:        0.877       0.079      -0.980       3.350

           -------------------------------------------------
          | TOTAL ENERGY              -99.251397212414 Eh   |
          | GRADIENT NORM               0.002609251429 Eh/α |
          | HOMO-LUMO GAP               1.665383583780 eV   |
           -------------------------------------------------

 * finished run on 2024/04/06 at 11:15:19.356
