   * xtb version 6.6.1 (8d0f1dd) compiled by 'conda@1efc2f54142f' on 2023-08-01
          program call               : xtb xtbopt.xyz --opt crude --input .xc2 --gfn2

   ID    Z sym.   atoms
    1    7 N      1, 17
    2    6 C      2-6, 8, 9, 11-16, 18-23, 25, 26, 28-33
    3    8 O      7, 10, 24, 27
    4    1 H      34-72

          :  Hamiltonian                  GFN2-xTB          :
 * total energy  :   -99.2858726 Eh     change        0.7105427E-13 Eh
 * total energy  :   -99.3616016 Eh     change       -0.7572901E-01 Eh
 * total energy  :   -99.3691200 Eh     change       -0.7518465E-02 Eh
 * total energy  :   -99.4025799 Eh     change       -0.3345988E-01 Eh
 * total energy  :   -99.4050368 Eh     change       -0.2456924E-02 Eh
 * total energy  :   -99.4025089 Eh     change        0.2527962E-02 Eh
 * total energy  :   -99.4062126 Eh     change       -0.3703750E-02 Eh
 * total energy  :   -99.4056024 Eh     change        0.6101848E-03 Eh
 * total energy  :   -99.4063999 Eh     change       -0.7974612E-03 Eh
 * total energy  :   -99.4061775 Eh     change        0.2223529E-03 Eh
 * total energy  :   -99.4065997 Eh     change       -0.4221224E-03 Eh
   *** GEOMETRY OPTIMIZATION CONVERGED AFTER 11 ITERATIONS ***

 final structure:
================
72
 xtb: 6.6.1 (8d0f1dd)
N           -1.87544376711331        2.77517968700753        2.23433384863882
C           -1.83231653137594        2.11057236254757        1.17834888937005
C           -2.98877462000372        1.90933337178330        0.23860928145039
C           -3.47145122133993        0.46786614988223        0.32235603337176
C           -4.42984604947124        0.00456469631060       -0.58165744944355
C           -4.89847084985177       -1.29791068903933       -0.53677063534657
O           -5.82576913916728       -1.82339604079380       -1.36321389774331
C           -6.46841465845983       -0.99285682750499       -2.30141863890802
C           -4.38740007696512       -2.19296297757414        0.44192115022640
O           -4.89490679122023       -3.44129265123953        0.40714342517005
C           -4.51262584816075       -4.36466986734542        1.39970690166114
C           -3.43618031425210       -1.72771870018564        1.33527826038287
C           -2.98759934792139       -0.41356394540704        1.27682937126586
C           -2.44062571680847        2.18866046655642       -1.18522371046884
C           -1.49787935613551        1.09987069469961       -1.73031281418103
C           -0.16514505342422        1.09646720287021       -1.08623748450401
N            0.49386518434125        0.01784679149680       -0.67918832903844
C            1.87114437727460        0.11911055511720       -0.25782568171161
C            2.84108741636979       -0.33480458006928       -1.36523417138807
C            4.26078320728773       -0.13144590922045       -0.91605462038041
C            4.90120265937518        1.07826644625612       -1.12986289698628
C            6.20201506713361        1.27937701933011       -0.69528392779375
C            6.88847455736636        0.27265505744507       -0.03153597653283
O            8.15023565462053        0.35460253392470        0.42899242452353
C            8.88219978543724        1.54067052931070        0.22113112202184
C            6.23712079198898       -0.97096987696766        0.19804238204978
O            6.97541967486410       -1.89355368055015        0.84631533623225
C            6.42849006124550       -3.16749738255788        1.08946643957262
C            4.93552079094547       -1.14775823942193       -0.24413901773832
C           -0.10076481956323       -1.29678599102837       -0.69997728237367
C           -4.18765521175383        2.85726862519381        0.53908943045281
C           -4.81430568107359        2.55239575920573        1.89781530307718
C           -3.81344804146210        4.33525476562047        0.46218729481614
H           -4.82668251510469        0.67693889809326       -1.32400765615478
H           -6.97720386059553       -0.15576669169442       -1.81418599731561
H           -7.20565266779481       -1.62511946147444       -2.79247593175788
H           -5.76630485325208       -0.61113305030089       -3.04984088568994
H           -4.75092917438551       -3.99678052470625        2.40200735326374
H           -5.09015281315984       -5.26487723464911        1.19892926260425
H           -3.44500567077224       -4.59958912403856        1.34030733154963
H           -3.04014837932509       -2.37985086647825        2.09685639267198
H           -2.26894474723159       -0.08127853373414        2.01010617410024
H           -3.28192131256963        2.27930517269177       -1.87124956971864
H           -1.91394864697882        3.14348040387525       -1.18020214981810
H           -1.98240819913580        0.12743523758834       -1.66265254719386
H           -1.34415059057259        1.32400269122872       -2.79395560246238
H           -0.91207546653830        1.62698917624801        0.79481570559871
H            0.38520148218771        2.02622809396772       -1.08209589488271
H            2.02089573877474       -0.49699201413329        0.63284377121682
H            2.09451234991155        1.15561339286351        0.00349255652799
H            2.64706921082073        0.25448280492609       -2.26310148799337
H            2.66564282695748       -1.38596294737177       -1.59672856496194
H            4.39253316277641        1.87432149530348       -1.65215118109369
H            6.67679477568981        2.22803359323226       -0.88432023536451
H            8.41178123945261        2.39426888538792        0.71861330204723
H            8.99900418485870        1.75714673180609       -0.84495298003350
H            9.86065913680154        1.36075751858652        0.66215317942468
H            7.21138660417240       -3.72998573853494        1.59432814299894
H            5.54943103724290       -3.10962135838140        1.73949803104558
H            6.16264195283951       -3.67490186527298        0.15691464280201
H            4.43534007576409       -2.08974764034149       -0.08203701898557
H           -0.25291726427277       -1.64581082079134       -1.72351652484432
H           -1.06488557451847       -1.28733010443424       -0.18509509264136
H            0.55730687920294       -1.99528590257253       -0.18964502002898
H           -4.94212830926403        2.66006782438102       -0.23059843724533
H           -4.09992923752074        2.75080680387029        2.68998280968496
H           -5.13256305181158        1.51548351911929        1.95946175556886
H           -5.68122420474811        3.19007116578088        2.05006158188824
H           -3.04134532826513        4.56911664223309        1.18880034234461
H           -3.47038105116248        4.61679766171338       -0.52999909044551
H           -4.68840103967886        4.93713267607946        0.69307244132435
H           -1.02291723452059        2.86291765678073        2.77820157482444

          :  Hamiltonian                  GFN2-xTB          :
         :: total energy             -99.406599688532 Eh    ::
         :: gradient norm              0.001248373833 Eh/a0 ::
         :: HOMO-LUMO gap              1.675070676682 eV    ::
         :: SCC energy              -100.785681419041 Eh    ::
         :: -> dispersion             -0.075103122308 Eh    ::
         :: repulsion energy           1.377847662076 Eh    ::

    * Orbital Energies and Occupations

         #    Occupation            Energy/Eh            Energy/eV
      -------------------------------------------------------------
         1        2.0000           -0.8088564             -22.0101
       ...           ...                  ...                  ...
        78        1.9983           -0.5290280             -14.3956
        79        1.9983           -0.5287141             -14.3870
        80        1.9982           -0.5283218             -14.3764
        81        1.9975           -0.5229759             -14.2309
        82        1.9971           -0.5201132             -14.1530
        83        1.9960           -0.5153778             -14.0241
        84        1.9953           -0.5126754             -13.9506
        85        1.9944           -0.5097865             -13.8720
        86        1.9812           -0.4905724             -13.3492
        87        1.9786           -0.4885512             -13.2942
        88        1.9396           -0.4717825             -12.8379
        89        1.8734           -0.4595252             -12.5043
        90        1.8437           -0.4559312             -12.4065 (HOMO)
        91        0.3894           -0.3943735             -10.7314 (LUMO)
        92        0.0155           -0.3400515              -9.2533
        93        0.0036           -0.3166807              -8.6173
        94        0.0030           -0.3137851              -8.5385
        95        0.0027           -0.3124407              -8.5019
        96        0.0024           -0.3101340              -8.4392
        97        0.0000           -0.1910205              -5.1979
        98        0.0000           -0.1875891              -5.1046
        99                         -0.1364727              -3.7136
       100                         -0.0685442              -1.8652
       101                         -0.0644173              -1.7529
       ...                                ...                  ...
       171                          0.5764221              15.6852
      -------------------------------------------------------------
                  HL-Gap            0.0615577 Eh            1.6751 eV

     #   Z          covCN         q      C6AA      α(0)
     1   7 N        1.773    -0.267    27.755     7.801
     2   6 C        2.826     0.101    25.760     8.317
     3   6 C        3.907     0.007    20.410     6.422
     4   6 C        2.973     0.003    27.957     8.673
     5   6 C        2.920    -0.079    29.985     8.980
     6   6 C        2.862     0.130    25.154     8.221
     7   8 O        1.706    -0.230    17.806     5.697
     8   6 C        3.644     0.027    20.452     6.501
     9   6 C        2.864     0.129    25.180     8.225
    10   8 O        1.706    -0.229    17.789     5.695
    11   6 C        3.645     0.027    20.456     6.500
    12   6 C        2.913    -0.075    29.871     8.962
    13   6 C        2.921    -0.054    29.337     8.882
    14   6 C        3.812    -0.065    21.742     6.637
    15   6 C        3.802    -0.069    21.818     6.650
    16   6 C        2.844     0.008    27.837     8.647
    17   7 N        2.729     0.010    21.081     6.819
    18   6 C        3.756    -0.016    20.918     6.521
    19   6 C        3.808    -0.070    21.842     6.653
    20   6 C        2.969    -0.000    28.033     8.685
    21   6 C        2.922    -0.049    29.213     8.863
    22   6 C        2.914    -0.067    29.680     8.934
    23   6 C        2.865     0.134    25.079     8.209
    24   8 O        1.706    -0.222    17.679     5.677
    25   6 C        3.645     0.025    20.489     6.505
    26   6 C        2.863     0.133    25.087     8.210
    27   8 O        1.706    -0.225    17.724     5.684
    28   6 C        3.645     0.027    20.453     6.500
    29   6 C        2.919    -0.080    29.989     8.980
    30   6 C        3.699    -0.071    22.023     6.712
    31   6 C        3.853    -0.007    20.674     6.467
    32   6 C        3.756    -0.120    22.848     6.815
    33   6 C        3.755    -0.118    22.811     6.810
    34   1 H        0.926     0.052     2.293     2.368
    35   1 H        0.924     0.054     2.271     2.357
    36   1 H        0.925     0.081     1.965     2.192
    37   1 H        0.924     0.048     2.349     2.397
    38   1 H        0.924     0.055     2.259     2.350
    39   1 H        0.925     0.081     1.966     2.193
    40   1 H        0.924     0.048     2.347     2.396
    41   1 H        0.926     0.051     2.302     2.373
    42   1 H        0.926     0.038     2.480     2.463
    43   1 H        0.925     0.060     2.197     2.318
    44   1 H        0.924     0.054     2.274     2.358
    45   1 H        0.925     0.066     2.135     2.285
    46   1 H        0.924     0.080     1.981     2.201
    47   1 H        0.922     0.008     2.921     2.673
    48   1 H        0.926     0.070     2.090     2.260
    49   1 H        0.924     0.067     2.116     2.275
    50   1 H        0.924     0.067     2.119     2.276
    51   1 H        0.924     0.055     2.257     2.349
    52   1 H        0.924     0.056     2.250     2.346
    53   1 H        0.926     0.045     2.383     2.414
    54   1 H        0.926     0.059     2.215     2.327
    55   1 H        0.924     0.054     2.267     2.354
    56   1 H        0.924     0.056     2.247     2.344
    57   1 H        0.925     0.082     1.954     2.186
    58   1 H        0.925     0.082     1.959     2.189
    59   1 H        0.924     0.049     2.337     2.391
    60   1 H        0.924     0.052     2.289     2.366
    61   1 H        0.926     0.047     2.356     2.400
    62   1 H        0.924     0.076     2.020     2.222
    63   1 H        0.924     0.080     1.978     2.199
    64   1 H        0.925     0.080     1.984     2.203
    65   1 H        0.924     0.038     2.481     2.463
    66   1 H        0.925     0.071     2.074     2.252
    67   1 H        0.925     0.036     2.502     2.474
    68   1 H        0.925     0.051     2.306     2.375
    69   1 H        0.925     0.058     2.226     2.333
    70   1 H        0.925     0.034     2.525     2.485
    71   1 H        0.925     0.055     2.263     2.352
    72   1 H        0.860     0.157     1.353     1.822

Wiberg/Mayer (AO) data.
largest (>0.10) Wiberg bond orders for each atom

     #   Z sym  total        # sym  WBO       # sym  WBO       # sym  WBO
 ---------------------------------------------------------------------------
     1   7 N    3.044 --     2 C    1.957    72 H    0.941
     2   6 C    3.926 --     1 N    1.957     3 C    0.995    47 H    0.894
     3   6 C    3.976 --     2 C    0.995     4 C    0.968    14 C    0.958
                            31 C    0.942
     4   6 C    3.950 --    13 C    1.414     5 C    1.369     3 C    0.968
     5   6 C    3.962 --     6 C    1.401     4 C    1.369    34 H    0.958
     6   6 C    3.906 --     5 C    1.401     9 C    1.221     7 O    1.100
     7   8 O    2.255 --     6 C    1.100     8 C    0.978
     8   6 C    3.932 --     7 O    0.978    36 H    0.977    35 H    0.974
                            37 H    0.973
     9   6 C    3.902 --    12 C    1.393     6 C    1.221    10 O    1.102
    10   8 O    2.253 --     9 C    1.102    11 C    0.977
    11   6 C    3.931 --    10 O    0.977    39 H    0.977    40 H    0.974
                            38 H    0.974
    12   6 C    3.963 --    13 C    1.401     9 C    1.393    41 H    0.964
    13   6 C    3.955 --     4 C    1.414    12 C    1.401    42 H    0.962
    14   6 C    3.972 --    15 C    0.981    44 H    0.972    43 H    0.969
                             3 C    0.958
    15   6 C    3.987 --    16 C    1.059    14 C    0.981    45 H    0.962
                            46 H    0.928
    16   6 C    3.600 --    17 N    1.399    15 C    1.059    48 H    0.957
    17   7 N    3.480 --    16 C    1.399    30 C    0.998    18 C    0.988
    18   6 C    3.956 --    17 N    0.988    50 H    0.968    19 C    0.967
                            49 H    0.964
    19   6 C    3.976 --    20 C    1.008    52 H    0.972    51 H    0.972
                            18 C    0.967
    20   6 C    3.944 --    21 C    1.409    29 C    1.380    19 C    1.008
    21   6 C    3.950 --    22 C    1.417    20 C    1.409    53 H    0.968
    22   6 C    3.959 --    21 C    1.417    23 C    1.383    54 H    0.963
    23   6 C    3.895 --    22 C    1.383    26 C    1.220    24 O    1.110
    24   8 O    2.255 --    23 C    1.110    25 C    0.976
    25   6 C    3.928 --    57 H    0.977    24 O    0.976    55 H    0.973
                            56 H    0.973
    26   6 C    3.899 --    29 C    1.395    23 C    1.220    27 O    1.104
    27   8 O    2.255 --    26 C    1.104    28 C    0.978
    28   6 C    3.932 --    27 O    0.978    58 H    0.977    59 H    0.973
                            60 H    0.973
    29   6 C    3.959 --    26 C    1.395    20 C    1.380    61 H    0.962
    30   6 C    3.957 --    17 N    0.998    64 H    0.978    62 H    0.966
                            63 H    0.960
    31   6 C    3.972 --    33 C    1.009    32 C    1.008    65 H    0.960
                             3 C    0.942
    32   6 C    3.978 --    31 C    1.008    67 H    0.982    68 H    0.981
                            66 H    0.972
    33   6 C    3.984 --    31 C    1.009    70 H    0.983    71 H    0.980
                            69 H    0.978
    34   1 H    0.996 --     5 C    0.958
    35   1 H    0.993 --     8 C    0.974
    36   1 H    0.993 --     8 C    0.977
    37   1 H    0.994 --     8 C    0.973
    38   1 H    0.993 --    11 C    0.974
    39   1 H    0.993 --    11 C    0.977
    40   1 H    0.993 --    11 C    0.974
    41   1 H    0.996 --    12 C    0.964
    42   1 H    0.998 --    13 C    0.962
    43   1 H    0.995 --    14 C    0.969
    44   1 H    0.996 --    14 C    0.972
    45   1 H    0.995 --    15 C    0.962
    46   1 H    0.971 --    15 C    0.928
    47   1 H    0.987 --     2 C    0.894
    48   1 H    0.995 --    16 C    0.957
    49   1 H    0.991 --    18 C    0.964
    50   1 H    0.994 --    18 C    0.968
    51   1 H    0.996 --    19 C    0.972
    52   1 H    0.996 --    19 C    0.972
    53   1 H    0.997 --    21 C    0.968
    54   1 H    0.995 --    22 C    0.963
    55   1 H    0.992 --    25 C    0.973
    56   1 H    0.992 --    25 C    0.973
    57   1 H    0.992 --    25 C    0.977
    58   1 H    0.993 --    28 C    0.977
    59   1 H    0.993 --    28 C    0.973
    60   1 H    0.993 --    28 C    0.973
    61   1 H    0.997 --    29 C    0.962
    62   1 H    0.985 --    30 C    0.966
    63   1 H    0.987 --    30 C    0.960
    64   1 H    0.993 --    30 C    0.978
    65   1 H    0.992 --    31 C    0.960
    66   1 H    0.990 --    32 C    0.972
    67   1 H    0.997 --    32 C    0.982
    68   1 H    0.994 --    32 C    0.981
    69   1 H    0.994 --    33 C    0.978
    70   1 H    0.997 --    33 C    0.983
    71   1 H    0.994 --    33 C    0.980
    72   1 H    0.970 --     1 N    0.941
 ---------------------------------------------------------------------------

molecular dipole:
                 x           y           z       tot (Debye)
 q only:        0.656      -0.048      -0.806
   full:        0.952      -0.093      -0.987       3.494

           -------------------------------------------------
          | TOTAL ENERGY              -99.406599688532 Eh   |
          | GRADIENT NORM               0.001248373833 Eh/α |
          | HOMO-LUMO GAP               1.675070676682 eV   |
           -------------------------------------------------

 * finished run on 2024/04/06 at 11:15:21.422
