   * xtb version 6.6.1 (8d0f1dd) compiled by 'conda@1efc2f54142f' on 2023-08-01
          program call               : xtb struc.xyz --opt loose --input .xc1 --gfn2

   ID    Z sym.   atoms
    1    7 N      1, 17
    2    6 C      2-6, 8, 9, 11-16, 18-23, 25, 26, 28-33
    3    8 O      7, 10, 24, 27
    4    1 H      34-72
constraining bond 20 27 to    5.7600000 Å, actual value:    3.6884213 Å

          :  Hamiltonian                  GFN2-xTB          :
 * total energy  :   -98.6378808 Eh     change       -0.4035485E-08 Eh
 * total energy  :   -98.8465647 Eh     change       -0.2086838E+00 Eh
 * total energy  :   -98.9567679 Eh     change       -0.1102033E+00 Eh
 * total energy  :   -99.0104868 Eh     change       -0.5371892E-01 Eh
 * total energy  :   -99.0418509 Eh     change       -0.3136405E-01 Eh
 * total energy  :   -99.0664462 Eh     change       -0.2459535E-01 Eh
 * total energy  :   -99.0984288 Eh     change       -0.3198255E-01 Eh
 * total energy  :   -99.1323041 Eh     change       -0.3387535E-01 Eh
 * total energy  :   -99.1457542 Eh     change       -0.1345006E-01 Eh
 * total energy  :   -99.1645873 Eh     change       -0.1883311E-01 Eh
 * total energy  :   -99.3544737 Eh     change       -0.9328357E-04 Eh
 * total energy  :   -99.3545622 Eh     change       -0.8857194E-04 Eh
 * total energy  :   -99.3546270 Eh     change       -0.6476820E-04 Eh
 * total energy  :   -99.3547030 Eh     change       -0.7599868E-04 Eh
 * total energy  :   -99.3547964 Eh     change       -0.9336410E-04 Eh
 * total energy  :   -99.3548427 Eh     change       -0.4634636E-04 Eh
 * total energy  :   -99.3548079 Eh     change        0.3485466E-04 Eh
 * total energy  :   -99.3549030 Eh     change       -0.9515688E-04 Eh
 * total energy  :   -99.3549278 Eh     change       -0.2476357E-04 Eh
   *** GEOMETRY OPTIMIZATION CONVERGED AFTER 64 ITERATIONS ***

 final structure:
================
72
 xtb: 6.6.1 (8d0f1dd)
N           -1.98097128985801        2.91021444701534        2.26815462220187
C           -1.92183850920861        2.18839033698503        1.25119189092428
C           -3.06235523881509        1.96165699375073        0.29736035140404
C           -3.49634217843631        0.50565965308723        0.36237020109671
C           -4.38388389198453        0.00368796529562       -0.59168343431663
C           -4.82619944151602       -1.30801595264113       -0.54964443067082
O           -5.68368364789121       -1.86926852144407       -1.42637616171760
C           -6.26666464589028       -1.07037350489765       -2.42880564577347
C           -4.36385957630053       -2.16985643027938        0.48214850287224
O           -4.84145950278253       -3.42910161354082        0.44304274534468
C           -4.48051799302680       -4.33124726808507        1.46292264552662
C           -3.48564154885239       -1.66394430652253        1.42742656854383
C           -3.06000821138096       -0.34296830586469        1.36804552407512
C           -2.50588365876320        2.29466886521898       -1.11209408008945
C           -1.56825954372575        1.22427466080587       -1.69759443925080
C           -0.22929974500913        1.19278469883767       -1.06923565450410
N            0.43389310499382        0.09849094162923       -0.72389606494124
C            1.83937387784925        0.17331035924953       -0.39777736265883
C            2.71769202327430       -0.09589139975152       -1.63549197265078
C            4.17164248113539       -0.02146044445008       -1.26475076824579
C            4.80827057226033        1.20854642558173       -1.14814514373517
C            6.13923371849217        1.29997508673517       -0.78853132294404
C            6.87328485455594        0.13810526110799       -0.53314772675113
O            8.17329867600682        0.10109225919586       -0.19661444586732
C            8.88031072782153        1.30813479493545       -0.01881112504577
C            6.23173753369407       -1.10276106440137       -0.64244490128504
O            7.38284540354073       -2.66031015666193        2.71997704348297
C            7.08956278926828       -3.81130796607245        2.60555186326177
C            4.90395128028015       -1.17529616507686       -0.99885853485600
C           -0.16450046393339       -1.21316200686378       -0.79415988941565
C           -4.30673955055242        2.84979646100412        0.59709462168547
C           -4.93775556859500        2.49452858899348        1.94116068280708
C           -4.00596636602589        4.34495232965985        0.54959828888979
H           -4.74492342114883        0.65451998896657       -1.37050283953856
H           -6.83196709976180       -0.23758986221167       -1.99983844091336
H           -6.94697748451030       -1.72766164364062       -2.96651815791745
H           -5.51454980785793       -0.68392980973907       -3.12440811262519
H           -4.79853058004466       -3.97287494785390        2.44631995659833
H           -5.00173953830728       -5.25769337499290        1.23079122274319
H           -3.40151268090653       -4.51536215412777        1.47230476039329
H           -3.13362429739860       -2.28824531619182        2.23239515779145
H           -2.40079724724877        0.02236239399802        2.14008423547386
H           -3.34297160328244        2.42233584177369       -1.79741874779769
H           -1.97382856565777        3.24547282976492       -1.06309481232244
H           -2.05357098471105        0.25068407724117       -1.66036266441084
H           -1.41975272443910        1.48201539015771       -2.75470835883096
H           -1.00284494121274        1.66868892873817        0.91668632380119
H            0.31571949647054        2.12397021481016       -1.01410099652138
H            2.06946791684889       -0.56067577949018        0.37744400418396
H            2.06968835823117        1.16690236709636       -0.00728393314542
H            2.48591372682134        0.65057021664018       -2.39790799030223
H            2.48678372442887       -1.08321383713846       -2.03685257661461
H            4.25883290935680        2.11579413274019       -1.35342705613029
H            6.59910043703625        2.27211548133685       -0.71349185471857
H            8.46457497465283        1.89287225680112        0.80734759995040
H            8.88321366258931        1.91094034060291       -0.93187306782523
H            9.90025202781672        1.01737946176694        0.22481228208751
H            7.76368686139177       -4.55386534639611        2.15363818899281
H            6.12319830426573       -4.21999820726276        2.94771697005367
H            6.80876199585852       -1.98928059094344       -0.43812929829547
H            4.43122678504740       -2.14237807535993       -1.08436835718725
H           -0.33209318860706       -1.51977342419149       -1.82891153198902
H           -1.12055163688568       -1.22232492218120       -0.26586160611957
H            0.49821662926795       -1.93448172718042       -0.32298598994927
H           -5.03956944592732        2.62669547986052       -0.18701114820503
H           -4.24604780064999        2.71609436864231        2.74753894750715
H           -5.20641432267937        1.44185130740135        1.98451448526885
H           -5.83931069722949        3.08369144422068        2.08659237680905
H           -3.27531023007947        4.60630809567779        1.30846579044323
H           -3.63897182029782        4.65641178700174       -0.42446736250360
H           -4.91923612851214        4.89788126956826        0.75261106405138
H           -1.14029243581705        3.01462584454357        2.82754393327941

          :  Hamiltonian                  GFN2-xTB          :
         :: total energy             -99.354927779203 Eh    ::
         :: gradient norm              0.003708158121 Eh/a0 ::
         :: HOMO-LUMO gap              1.746773192194 eV    ::
         :: SCC energy              -100.760315496440 Eh    ::
         :: -> dispersion             -0.072830897636 Eh    ::
         :: repulsion energy           1.404130037910 Eh    ::

    * Orbital Energies and Occupations

         #    Occupation            Energy/Eh            Energy/eV
      -------------------------------------------------------------
         1        2.0000           -0.8115077             -22.0822
       ...           ...                  ...                  ...
        78        1.9981           -0.5305942             -14.4382
        79        1.9980           -0.5295349             -14.4094
        80        1.9972           -0.5245347             -14.2733
        81        1.9954           -0.5165949             -14.0573
        82        1.9946           -0.5140168             -13.9871
        83        1.9936           -0.5114844             -13.9182
        84        1.9927           -0.5093304             -13.8596
        85        1.9855           -0.4984230             -13.5628
        86        1.9795           -0.4928679             -13.4116
        87        1.9647           -0.4841259             -13.1737
        88        1.9318           -0.4734175             -12.8823
        89        1.8883           -0.4652480             -12.6600
        90        1.8624           -0.4617337             -12.5644 (HOMO)
        91        0.3804           -0.3975410             -10.8176 (LUMO)
        92        0.0250           -0.3512697              -9.5585
        93        0.0130           -0.3408420              -9.2748
        94        0.0033           -0.3189500              -8.6791
        95        0.0027           -0.3158695              -8.5952
        96        0.0026           -0.3155551              -8.5867
        97        0.0016           -0.3080468              -8.3824
        98        0.0000           -0.1932599              -5.2589
        99        0.0000           -0.1858305              -5.0567
       100                         -0.1375078              -3.7418
       101                         -0.0701072              -1.9077
       ...                                ...                  ...
       171                          0.5713810              15.5481
      -------------------------------------------------------------
                  HL-Gap            0.0641927 Eh            1.7468 eV

     #   Z          covCN         q      C6AA      α(0)
     1   7 N        1.774    -0.266    27.733     7.798
     2   6 C        2.827     0.102    25.736     8.313
     3   6 C        3.908     0.006    20.413     6.422
     4   6 C        2.974     0.002    27.974     8.676
     5   6 C        2.920    -0.080    30.010     8.983
     6   6 C        2.862     0.129    25.161     8.222
     7   8 O        1.706    -0.229    17.796     5.696
     8   6 C        3.644     0.027    20.453     6.500
     9   6 C        2.864     0.129    25.175     8.224
    10   8 O        1.706    -0.227    17.766     5.691
    11   6 C        3.645     0.026    20.464     6.501
    12   6 C        2.914    -0.074    29.852     8.959
    13   6 C        2.921    -0.053    29.309     8.878
    14   6 C        3.812    -0.065    21.731     6.635
    15   6 C        3.802    -0.070    21.832     6.652
    16   6 C        2.845     0.009    27.808     8.642
    17   7 N        2.729     0.015    21.001     6.806
    18   6 C        3.756    -0.017    20.936     6.524
    19   6 C        3.807    -0.070    21.832     6.651
    20   6 C        2.970    -0.000    28.034     8.685
    21   6 C        2.924    -0.037    28.926     8.820
    22   6 C        2.915    -0.062    29.533     8.911
    23   6 C        2.865     0.156    24.614     8.132
    24   8 O        1.706    -0.230    17.809     5.698
    25   6 C        3.644     0.026    20.469     6.503
    26   6 C        2.918    -0.047    29.161     8.855
    27   8 O        0.856    -0.266    19.180     5.872
    28   6 C        2.701     0.179    24.151     8.044
    29   6 C        2.922    -0.036    28.888     8.814
    30   6 C        3.700    -0.071    22.021     6.711
    31   6 C        3.853    -0.007    20.670     6.466
    32   6 C        3.756    -0.118    22.824     6.812
    33   6 C        3.755    -0.119    22.840     6.814
    34   1 H        0.926     0.052     2.289     2.366
    35   1 H        0.924     0.055     2.264     2.353
    36   1 H        0.925     0.082     1.960     2.189
    37   1 H        0.924     0.047     2.353     2.399
    38   1 H        0.924     0.056     2.245     2.343
    39   1 H        0.925     0.082     1.960     2.189
    40   1 H        0.924     0.049     2.337     2.390
    41   1 H        0.926     0.053     2.279     2.361
    42   1 H        0.926     0.040     2.444     2.445
    43   1 H        0.925     0.061     2.188     2.313
    44   1 H        0.924     0.054     2.269     2.356
    45   1 H        0.925     0.067     2.118     2.276
    46   1 H        0.923     0.081     1.964     2.192
    47   1 H        0.922     0.006     2.960     2.691
    48   1 H        0.926     0.071     2.074     2.252
    49   1 H        0.924     0.070     2.089     2.260
    50   1 H        0.924     0.068     2.105     2.269
    51   1 H        0.924     0.053     2.282     2.362
    52   1 H        0.924     0.055     2.261     2.351
    53   1 H        0.926     0.040     2.444     2.445
    54   1 H        0.926     0.053     2.282     2.362
    55   1 H        0.924     0.056     2.251     2.346
    56   1 H        0.924     0.054     2.270     2.356
    57   1 H        0.925     0.081     1.967     2.193
    58   1 H        0.923     0.053     2.286     2.365
    59   1 H        0.923     0.045     2.384     2.415
    60   1 H        0.926     0.065     2.141     2.288
    61   1 H        0.926     0.044     2.401     2.423
    62   1 H        0.924     0.077     2.010     2.217
    63   1 H        0.924     0.080     1.981     2.201
    64   1 H        0.925     0.082     1.962     2.191
    65   1 H        0.924     0.038     2.481     2.463
    66   1 H        0.925     0.069     2.102     2.267
    67   1 H        0.925     0.036     2.508     2.476
    68   1 H        0.925     0.052     2.294     2.369
    69   1 H        0.925     0.063     2.168     2.302
    70   1 H        0.925     0.035     2.516     2.480
    71   1 H        0.925     0.055     2.260     2.351
    72   1 H        0.860     0.158     1.345     1.817

Wiberg/Mayer (AO) data.
largest (>0.10) Wiberg bond orders for each atom

     #   Z sym  total        # sym  WBO       # sym  WBO       # sym  WBO
 ---------------------------------------------------------------------------
     1   7 N    3.039 --     2 C    1.958    72 H    0.941
     2   6 C    3.931 --     1 N    1.958     3 C    0.994    47 H    0.903
     3   6 C    3.975 --     2 C    0.994     4 C    0.971    14 C    0.956
                            31 C    0.942
     4   6 C    3.947 --    13 C    1.413     5 C    1.368     3 C    0.971
     5   6 C    3.961 --     6 C    1.400     4 C    1.368    34 H    0.958
     6   6 C    3.903 --     5 C    1.400     9 C    1.220     7 O    1.100
     7   8 O    2.254 --     6 C    1.100     8 C    0.978
     8   6 C    3.931 --     7 O    0.978    36 H    0.977    35 H    0.973
                            37 H    0.973
     9   6 C    3.900 --    12 C    1.391     6 C    1.220    10 O    1.104
    10   8 O    2.253 --     9 C    1.104    11 C    0.977
    11   6 C    3.930 --    10 O    0.977    39 H    0.977    40 H    0.973
                            38 H    0.973
    12   6 C    3.961 --    13 C    1.405     9 C    1.391    41 H    0.964
    13   6 C    3.953 --     4 C    1.413    12 C    1.405    42 H    0.962
    14   6 C    3.973 --    15 C    0.982    44 H    0.972    43 H    0.968
                             3 C    0.956
    15   6 C    3.986 --    16 C    1.060    14 C    0.982    45 H    0.960
                            46 H    0.925
    16   6 C    3.604 --    17 N    1.414    15 C    1.060    48 H    0.957
    17   7 N    3.488 --    16 C    1.414    30 C    0.998    18 C    0.986
    18   6 C    3.953 --    17 N    0.986    50 H    0.967    49 H    0.965
                            19 C    0.965
    19   6 C    3.975 --    20 C    1.008    52 H    0.973    51 H    0.970
                            18 C    0.965
    20   6 C    3.937 --    21 C    1.398    29 C    1.380    19 C    1.008
    21   6 C    3.972 --    22 C    1.456    20 C    1.398    53 H    0.968
    22   6 C    3.952 --    21 C    1.456    23 C    1.338    54 H    0.964
    23   6 C    3.905 --    22 C    1.338    26 C    1.316    24 O    1.113
    24   8 O    2.256 --    23 C    1.113    25 C    0.975
    25   6 C    3.928 --    57 H    0.977    24 O    0.975    55 H    0.973
                            56 H    0.972
    26   6 C    3.947 --    29 C    1.481    23 C    1.316    60 H    0.965
    27   8 O    2.084 --    28 C    1.995
    28   6 C    3.869 --    27 O    1.995    58 H    0.937    59 H    0.937
    29   6 C    3.974 --    26 C    1.481    20 C    1.380    61 H    0.967
    30   6 C    3.957 --    17 N    0.998    64 H    0.977    62 H    0.965
                            63 H    0.963
    31   6 C    3.971 --    33 C    1.009    32 C    1.008    65 H    0.960
                             3 C    0.942
    32   6 C    3.978 --    31 C    1.008    67 H    0.982    68 H    0.981
                            66 H    0.974
    33   6 C    3.981 --    31 C    1.009    70 H    0.983    71 H    0.980
                            69 H    0.976
    34   1 H    0.996 --     5 C    0.958
    35   1 H    0.993 --     8 C    0.973
    36   1 H    0.993 --     8 C    0.977
    37   1 H    0.994 --     8 C    0.973
    38   1 H    0.992 --    11 C    0.973
    39   1 H    0.993 --    11 C    0.977
    40   1 H    0.993 --    11 C    0.973
    41   1 H    0.995 --    12 C    0.964
    42   1 H    0.998 --    13 C    0.962
    43   1 H    0.995 --    14 C    0.968
    44   1 H    0.996 --    14 C    0.972
    45   1 H    0.995 --    15 C    0.960
    46   1 H    0.970 --    15 C    0.925
    47   1 H    0.986 --     2 C    0.903
    48   1 H    0.995 --    16 C    0.957
    49   1 H    0.992 --    18 C    0.965
    50   1 H    0.994 --    18 C    0.967
    51   1 H    0.995 --    19 C    0.970
    52   1 H    0.996 --    19 C    0.973
    53   1 H    0.997 --    21 C    0.968
    54   1 H    0.996 --    22 C    0.964
    55   1 H    0.991 --    25 C    0.973
    56   1 H    0.991 --    25 C    0.972
    57   1 H    0.993 --    25 C    0.977
    58   1 H    0.986 --    28 C    0.937
    59   1 H    0.987 --    28 C    0.937
    60   1 H    0.994 --    26 C    0.965
    61   1 H    0.996 --    29 C    0.967
    62   1 H    0.984 --    30 C    0.965
    63   1 H    0.988 --    30 C    0.963
    64   1 H    0.993 --    30 C    0.977
    65   1 H    0.992 --    31 C    0.960
    66   1 H    0.991 --    32 C    0.974
    67   1 H    0.996 --    32 C    0.982
    68   1 H    0.994 --    32 C    0.981
    69   1 H    0.992 --    33 C    0.976
    70   1 H    0.997 --    33 C    0.983
    71   1 H    0.993 --    33 C    0.980
    72   1 H    0.969 --     1 N    0.941
 ---------------------------------------------------------------------------

molecular dipole:
                 x           y           z       tot (Debye)
 q only:        0.161      -0.120      -0.995
   full:        0.505      -0.289      -1.100       3.164

           -------------------------------------------------
          | TOTAL ENERGY              -99.354927779203 Eh   |
          | GRADIENT NORM               0.003708158121 Eh/α |
          | HOMO-LUMO GAP               1.746773192194 eV   |
           -------------------------------------------------

 * finished run on 2024/04/06 at 11:13:58.322
