   * xtb version 6.6.1 (8d0f1dd) compiled by 'conda@1efc2f54142f' on 2023-08-01
          program call               : xtb struc.xyz --opt loose --input .xc1 --gfn2

   ID    Z sym.   atoms
    1    6 C      1, 3, 5-7, 10, 11, 14
    2    7 N      2, 4, 9, 13
    3    8 O      8, 12
    4    1 H      15-25
constraining bond 8 9 to    4.6800000 Å, actual value:    2.2895399 Å

          :  Hamiltonian                  GFN2-xTB          :
 * total energy  :   -21.8417278 Eh     change       -0.6650680E-10 Eh
 * total energy  :   -30.8104994 Eh     change       -0.8968772E+01 Eh
 * total energy  :   -36.5213242 Eh     change       -0.5710825E+01 Eh
 * total energy  :   -39.9664519 Eh     change       -0.3445128E+01 Eh
 * total energy  :   -41.4385631 Eh     change       -0.1472111E+01 Eh
 * total energy  :   -41.6422626 Eh     change       -0.2036995E+00 Eh
 * total energy  :   -41.6573387 Eh     change       -0.1507609E-01 Eh
 * total energy  :   -41.6825426 Eh     change       -0.2520391E-01 Eh
 * total energy  :   -41.6966793 Eh     change       -0.1413675E-01 Eh
 * total energy  :   -41.7079418 Eh     change       -0.1126249E-01 Eh
 * total energy  :   -42.1442928 Eh     change       -0.2380392E-03 Eh
 * total energy  :   -42.1443971 Eh     change       -0.1043079E-03 Eh
 * total energy  :   -42.1445198 Eh     change       -0.1227697E-03 Eh
 * total energy  :   -42.1445883 Eh     change       -0.6847468E-04 Eh
 * total energy  :   -42.1448018 Eh     change       -0.2135238E-03 Eh
 * total energy  :   -42.1448801 Eh     change       -0.7831169E-04 Eh
 * total energy  :   -42.1446795 Eh     change        0.2006440E-03 Eh
 * total energy  :   -42.1450423 Eh     change       -0.3627916E-03 Eh
 * total energy  :   -42.1450914 Eh     change       -0.4912275E-04 Eh
   *** GEOMETRY OPTIMIZATION CONVERGED AFTER 70 ITERATIONS ***

 final structure:
================
25
 xtb: 6.6.1 (8d0f1dd)
C            4.07392509257558        0.69939621882519       -0.24903167822163
N            2.95174328424236       -0.18368682068356       -0.10387400371555
C            2.96670562786296       -1.50056906769952       -0.05566133285144
N            1.73105883390943       -1.99092689170568        0.08082562297061
C            0.78580602327965       -0.93991836552144        0.13899838709289
C            1.62064958212263        0.25871922343353        0.00158300753102
C            1.20720950111714        1.51825224458913       -0.03203285442449
O            0.77313237470838        2.58883472949021       -0.08242045982426
N           -3.58438084257862        0.88579361601503       -0.19567662680018
C           -3.91238993552928        2.09793499704757        0.43761065182462
C           -3.07810902638413        0.30541809901310       -1.09843913386545
O           -2.62346131820315       -0.42958264224702       -1.87014003917372
N           -0.45923638879370       -0.97276802187406        0.29407814206380
C           -1.25723978350672       -2.14627724389054        0.42265004653296
H            4.06496579841166        1.44808820534538        0.54500811469728
H            4.99924120778259        0.13000532572078       -0.19240245496747
H            4.03011079733774        1.21489134399822       -1.21077086776383
H            3.85748009841708       -2.09909839979841       -0.11450638510805
H           -3.00858897524708        2.66199793071751        0.68223784322263
H           -4.55663790000555        2.70684495824029       -0.20056714745637
H           -4.44658102884101        1.85969807712030        1.35780951411852
H           -0.79440685183917       -2.92330180793683        1.03811831987509
H           -1.47382293109003       -2.55499122004112       -0.56705843014209
H           -2.20213685692861       -1.84638513234735        0.87289421517151
H            1.49539513127908       -2.97013081421641        0.13193916711626

          :  Hamiltonian                  GFN2-xTB          :
         :: total energy             -42.145091414675 Eh    ::
         :: gradient norm              0.003083315282 Eh/a0 ::
         :: HOMO-LUMO gap              2.372756598639 eV    ::
         :: SCC energy               -42.766317884872 Eh    ::
         :: -> dispersion             -0.018604846711 Eh    ::
         :: repulsion energy           0.621124019203 Eh    ::

    * Orbital Energies and Occupations

         #    Occupation            Energy/Eh            Energy/eV
      -------------------------------------------------------------
         1        2.0000           -0.9117129             -24.8090
       ...           ...                  ...                  ...
        25        2.0000           -0.6521139             -17.7449
        26        2.0000           -0.6443278             -17.5331
        27        1.9999           -0.6425157             -17.4837
        28        1.9999           -0.6412971             -17.4506
        29        1.9997           -0.6173918             -16.8001
        30        1.9997           -0.6136156             -16.6973
        31        1.9997           -0.6127833             -16.6747
        32        1.9996           -0.6090231             -16.5724
        33        1.9990           -0.5963940             -16.2287
        34        1.9386           -0.5299193             -14.4198
        35        1.9253           -0.5267115             -14.3325
        36        1.9174           -0.5250469             -14.2873
        37        1.9098           -0.5235898             -14.2476 (HOMO)
        38        0.1582           -0.4363926             -11.8748 (LUMO)
        39        0.1502           -0.4355062             -11.8507
        40        0.0029           -0.3719572             -10.1215
        41        0.0000           -0.2951056              -8.0302
        42        0.0000           -0.2894890              -7.8774
        43        0.0000           -0.2746737              -7.4743
        44                         -0.1808373              -4.9208
        45                         -0.1472004              -4.0055
        46                         -0.0892464              -2.4285
        47                         -0.0593999              -1.6164
        48                         -0.0496754              -1.3517
       ...                                ...                  ...
        67                          1.2328542              33.5477
      -------------------------------------------------------------
                  HL-Gap            0.0871972 Eh            2.3728 eV

     #   Z          covCN         q      C6AA      α(0)
     1   6 C        3.691    -0.084    22.302     6.758
     2   7 N        2.801     0.060    20.186     6.673
     3   6 C        2.959     0.080    26.214     8.398
     4   7 N        2.772    -0.090    22.996     7.122
     5   6 C        2.926     0.157    24.604     8.134
     6   6 C        3.042    -0.020    28.469     8.751
     7   6 C        1.844     0.252    25.324     8.129
     8   8 O        0.856    -0.118    16.785     5.493
     9   7 N        1.820    -0.140    24.808     7.380
    10   6 C        3.686    -0.033    21.362     6.617
    11   6 C        1.770     0.311    24.236     7.959
    12   8 O        0.856    -0.260    19.083     5.857
    13   7 N        1.824    -0.213    26.478     7.625
    14   6 C        3.700    -0.037    21.406     6.616
    15   1 H        0.924     0.101     1.774     2.083
    16   1 H        0.925     0.103     1.756     2.072
    17   1 H        0.924     0.103     1.759     2.074
    18   1 H        0.926     0.115     1.654     2.011
    19   1 H        0.924     0.081     1.969     2.194
    20   1 H        0.924     0.090     1.881     2.145
    21   1 H        0.924     0.098     1.804     2.100
    22   1 H        0.924     0.051     2.308     2.376
    23   1 H        0.924     0.088     1.902     2.157
    24   1 H        0.925     0.086     1.917     2.165
    25   1 H        0.860     0.220     1.011     1.575

Wiberg/Mayer (AO) data.
largest (>0.10) Wiberg bond orders for each atom

     #   Z sym  total        # sym  WBO       # sym  WBO       # sym  WBO
 ---------------------------------------------------------------------------
     1   6 C    3.933 --     2 N    0.994    16 H    0.973    15 H    0.964
                            17 H    0.961
     2   7 N    3.622 --     3 C    1.404     6 C    1.043     1 C    0.994
                             4 N    0.112
     3   6 C    3.845 --     2 N    1.404     4 N    1.320    18 H    0.949
     4   7 N    3.539 --     3 C    1.320     5 C    1.032    25 H    0.923
                             2 N    0.112
     5   6 C    3.928 --    13 N    1.710     6 C    1.039     4 N    1.032
     6   6 C    3.871 --     7 C    1.480     2 N    1.043     5 C    1.039
                             8 O    0.152
     7   6 C    3.704 --     8 O    2.083     6 C    1.480
     8   8 O    2.358 --     7 C    2.083     6 C    0.152
     9   7 N    3.358 --    11 C    1.985    10 C    1.023    12 O    0.350
    10   6 C    3.923 --     9 N    1.023    21 H    0.960    19 H    0.952
                            20 H    0.950
    11   6 C    3.935 --     9 N    1.985    12 O    1.883
    12   8 O    2.272 --    11 C    1.883     9 N    0.350
    13   7 N    3.020 --     5 C    1.710    14 C    1.032
    14   6 C    3.947 --    13 N    1.032    24 H    0.966    22 H    0.960
                            23 H    0.943
    15   1 H    0.987 --     1 C    0.964
    16   1 H    0.989 --     1 C    0.973
    17   1 H    0.986 --     1 C    0.961
    18   1 H    0.984 --     3 C    0.949
    19   1 H    0.977 --    10 C    0.952
    20   1 H    0.975 --    10 C    0.950
    21   1 H    0.979 --    10 C    0.960
    22   1 H    0.981 --    14 C    0.960
    23   1 H    0.977 --    14 C    0.943
    24   1 H    0.981 --    14 C    0.966
    25   1 H    0.950 --     4 N    0.923
 ---------------------------------------------------------------------------

molecular dipole:
                 x           y           z       tot (Debye)
 q only:        2.624      -0.537       0.532
   full:        2.957      -0.933       0.475       7.973

           -------------------------------------------------
          | TOTAL ENERGY              -42.145091414675 Eh   |
          | GRADIENT NORM               0.003083315282 Eh/α |
          | HOMO-LUMO GAP               2.372756598639 eV   |
           -------------------------------------------------

 * finished run on 2024/06/05 at 19:59:17.134
