   * xtb version 6.6.1 (8d0f1dd) compiled by 'conda@1efc2f54142f' on 2023-08-01
          program call               : xtb struc.xyz --opt loose --input .xc1 --gfn2

   ID    Z sym.   atoms
    1    7 N      1, 17
    2    6 C      2-6, 8, 9, 11-16, 18-23, 25, 26, 28-33
    3    8 O      7, 10, 24, 27
    4    1 H      34-72
constraining bond 16 50 to    5.1400000 Å, actual value:    2.5083486 Å

          :  Hamiltonian                  GFN2-xTB          :
 * total energy  :   -98.1675448 Eh     change       -0.4035485E-08 Eh
 * total energy  :   -98.5532016 Eh     change       -0.3856568E+00 Eh
 * total energy  :   -98.8158918 Eh     change       -0.2626902E+00 Eh
 * total energy  :   -98.9766680 Eh     change       -0.1607761E+00 Eh
 * total energy  :   -99.0816821 Eh     change       -0.1050141E+00 Eh
 * total energy  :   -99.1563315 Eh     change       -0.7464940E-01 Eh
 * total energy  :   -99.2053080 Eh     change       -0.4897653E-01 Eh
 * total energy  :   -99.2282673 Eh     change       -0.2295934E-01 Eh
 * total energy  :   -99.2377223 Eh     change       -0.9454947E-02 Eh
 * total energy  :   -99.2460089 Eh     change       -0.8286643E-02 Eh
 * total energy  :   -99.3478014 Eh     change       -0.1079393E-03 Eh
 * total energy  :   -99.3478863 Eh     change       -0.8486611E-04 Eh
 * total energy  :   -99.3479636 Eh     change       -0.7728786E-04 Eh
 * total energy  :   -99.3480275 Eh     change       -0.6397641E-04 Eh
 * total energy  :   -99.3480805 Eh     change       -0.5296462E-04 Eh
 * total energy  :   -99.3481329 Eh     change       -0.5239281E-04 Eh
 * total energy  :   -99.3481835 Eh     change       -0.5061653E-04 Eh
 * total energy  :   -99.3482318 Eh     change       -0.4832726E-04 Eh
 * total energy  :   -99.3482803 Eh     change       -0.4852005E-04 Eh
   *** GEOMETRY OPTIMIZATION CONVERGED AFTER 68 ITERATIONS ***

 final structure:
================
72
 xtb: 6.6.1 (8d0f1dd)
N           -1.41649464736762        2.72123086122075        1.78898887641362
C           -1.55834743107348        1.86559679791724        0.88815815414916
C           -2.80177650289358        1.71399256016797        0.05406663827366
C           -3.40170737230167        0.33480632953113        0.27329148688539
C           -4.39439934454181       -0.13670086774507       -0.58753254892493
C           -5.00264355121626       -1.36475457033573       -0.38859796875055
O           -5.96858988892767       -1.89132567830345       -1.17072330813900
C           -6.47538820593683       -1.13475917280710       -2.24455344446907
C           -4.61380069402478       -2.16760357532075        0.71707112319051
O           -5.26733858834513       -3.34062203183151        0.84074249785860
C           -5.01743081618939       -4.14814573593038        1.96707327882166
C           -3.62622840417210       -1.69542873800302        1.56695413181232
C           -3.02955374034764       -0.46043569950930        1.34695207347360
C           -2.35812010884848        1.88447875698395       -1.42323216966017
C           -1.59025696129320        0.68943553829889       -2.02474856798410
C           -0.17466997794301        0.62945307278993       -1.57822307829033
N            0.44593542685019       -0.42509844034032       -1.05285276912786
C            1.73915312809288       -0.43861249874543       -0.71275680397896
C            2.62672311943861        0.72558701023887       -0.97043933413449
C            4.05906202514367        0.62208401821222       -0.52514189359057
C            4.84095686956473        1.73391616197376       -0.52240621386390
C            6.19960052448062        1.71106034925237       -0.17442023073047
C            6.82495864583698        0.51441083578952        0.17957908470754
O            8.12922914479227        0.38647066878894        0.51514444768699
C            8.95066029408779        1.53226948403778        0.51095017444182
C            6.08488633048390       -0.67014578723801        0.19728815026982
O            6.74476570924724       -1.78453872634833        0.54298167867128
C            6.08175124858568       -3.02442608459118        0.58630142343606
C            4.63049209645106       -0.69942527615544       -0.13359722541036
C           -0.32398237473246       -1.63374270880625       -0.80590452474294
C           -3.90311314475111        2.76239984735522        0.39693149521309
C           -4.40767426736920        2.59614716192473        1.82878803752155
C           -3.45526709034823        4.20442702090841        0.17434107975407
H           -4.70721148727213        0.47387052389470       -1.41794134329084
H           -6.90564097490627       -0.18887057038209       -1.90189914723893
H           -7.25900642591246       -1.74631438825739       -2.68754551861594
H           -5.70487379668172       -0.93623661990411       -2.99686173949402
H           -5.23259439513429       -3.61459045673853        2.89774187729184
H           -5.69233532855856       -4.99665218596908        1.87340228794072
H           -3.98375512325990       -4.50815199477680        1.98271798719816
H           -3.32009560626839       -2.27718331797416        2.42118045200227
H           -2.28919309796734       -0.11045052105739        2.05017768113140
H           -3.24667306440187        2.05546856591967       -2.03027875649877
H           -1.73471450354508        2.77587862247249       -1.49983497122101
H           -2.13187115105484       -0.23082430348672       -1.81929316429018
H           -1.59140588337839        0.83848086440074       -3.11185990330477
H           -0.76313011197679        1.16532489707700        0.58776508128797
H            0.41299563443162        1.51176463428764       -1.75857104267761
H            2.11446519551190       -1.34264488593019       -0.27671080998869
H            4.08232475783971       -1.08541280149792        0.74094537336089
H            2.20024454898054        1.62801504805189       -0.50946023021346
H            2.63052813314865        0.92683656767549       -2.05583837153984
H            4.41160826256857        2.68376906011021       -0.80784052140758
H            6.75476792085280        2.63205951649594       -0.19272235074391
H            8.59834640735963        2.28271240380681        1.22496038747865
H            9.01524301734453        1.97623162238755       -0.48704652998458
H            9.93564243342455        1.18236863480642        0.81366652895012
H            6.83077493564627       -3.74573463706912        0.90821104967585
H            5.25647882394334       -3.01832442649764        1.30525616962522
H            5.70302408259908       -3.31512020450886       -0.39866185327918
H            4.45412821382597       -1.42714744707862       -0.94056454402675
H           -0.67511137900097       -2.05423835580025       -1.74813809534431
H           -1.18573085230063       -1.41419484515950       -0.17204246427586
H            0.29581816872782       -2.37426900706851       -0.30677364954872
H           -4.74189940882896        2.55897069922265       -0.27910400993121
H           -3.60609700220392        2.79892024931134        2.53191876206827
H           -4.78353207604142        1.59020885611117        1.99999960285382
H           -5.21577321413119        3.29858922885569        2.01444565809684
H           -2.59631195800808        4.43088204943308        0.79813093550059
H           -3.20560983203993        4.39635274422118       -0.86565265780910
H           -4.26428644091692        4.87503750784160        0.45200448525167
H           -0.52441327579080        2.75675731202717        2.27290844678915

          :  Hamiltonian                  GFN2-xTB          :
         :: total energy             -99.348280351503 Eh    ::
         :: gradient norm              0.001912739057 Eh/a0 ::
         :: HOMO-LUMO gap              0.901998704612 eV    ::
         :: SCC energy              -100.715015339694 Eh    ::
         :: -> dispersion             -0.075277393004 Eh    ::
         :: repulsion energy           1.365425903286 Eh    ::

    * Orbital Energies and Occupations

         #    Occupation            Energy/Eh            Energy/eV
      -------------------------------------------------------------
         1        2.0000           -0.8295555             -22.5734
       ...           ...                  ...                  ...
        78        1.9988           -0.5300362             -14.4230
        79        1.9986           -0.5273548             -14.3501
        80        1.9982           -0.5233318             -14.2406
        81        1.9981           -0.5229157             -14.2293
        82        1.9973           -0.5167883             -14.0625
        83        1.9956           -0.5093777             -13.8609
        84        1.9950           -0.5072582             -13.8032
        85        1.9937           -0.5035916             -13.7034
        86        1.9799           -0.4851251             -13.2009
        87        1.9490           -0.4701263             -12.7928
        88        1.9325           -0.4655470             -12.6682
        89        1.8689           -0.4545190             -12.3681
        90        1.6003           -0.4344067             -11.8208 (HOMO)
        91        0.6609           -0.4012589             -10.9188 (LUMO)
        92        0.0178           -0.3378264              -9.1927
        93        0.0114           -0.3306584              -8.9977
        94        0.0044           -0.3157234              -8.5913
        95        0.0034           -0.3112722              -8.4701
        96        0.0028           -0.3084012              -8.3920
        97        0.0000           -0.2286540              -6.2220
        98        0.0000           -0.1857428              -5.0543
        99                         -0.1136766              -3.0933
       100                         -0.0840532              -2.2872
       101                         -0.0724518              -1.9715
       ...                                ...                  ...
       171                          0.5768947              15.6981
      -------------------------------------------------------------
                  HL-Gap            0.0331478 Eh            0.9020 eV

     #   Z          covCN         q      C6AA      α(0)
     1   7 N        1.774    -0.275    27.949     7.829
     2   6 C        2.826     0.102    25.739     8.313
     3   6 C        3.907     0.007    20.406     6.421
     4   6 C        2.974     0.003    27.961     8.674
     5   6 C        2.921    -0.079    29.984     8.980
     6   6 C        2.862     0.129    25.168     8.223
     7   8 O        1.706    -0.231    17.830     5.701
     8   6 C        3.644     0.028    20.439     6.498
     9   6 C        2.864     0.128    25.184     8.226
    10   8 O        1.706    -0.230    17.806     5.697
    11   6 C        3.645     0.027    20.446     6.499
    12   6 C        2.914    -0.074    29.852     8.959
    13   6 C        2.921    -0.053    29.328     8.881
    14   6 C        3.811    -0.064    21.717     6.633
    15   6 C        3.801    -0.067    21.781     6.645
    16   6 C        2.863    -0.046    29.134     8.847
    17   7 N        2.730     0.074    19.964     6.636
    18   6 C        2.864    -0.060    29.499     8.903
    19   6 C        3.809    -0.066    21.753     6.639
    20   6 C        2.951    -0.004    28.130     8.699
    21   6 C        2.909    -0.045    29.116     8.848
    22   6 C        2.912    -0.068    29.705     8.937
    23   6 C        2.851     0.130    25.151     8.220
    24   8 O        1.706    -0.236    17.917     5.715
    25   6 C        3.644     0.026    20.481     6.505
    26   6 C        2.851     0.125    25.248     8.235
    27   8 O        1.706    -0.197    17.286     5.613
    28   6 C        3.643     0.021    20.564     6.519
    29   6 C        3.810    -0.073    21.884     6.659
    30   6 C        3.718    -0.073    22.025     6.704
    31   6 C        3.854    -0.007    20.671     6.466
    32   6 C        3.756    -0.117    22.800     6.808
    33   6 C        3.755    -0.119    22.831     6.813
    34   1 H        0.926     0.053     2.288     2.365
    35   1 H        0.924     0.053     2.281     2.362
    36   1 H        0.925     0.080     1.977     2.199
    37   1 H        0.924     0.047     2.357     2.401
    38   1 H        0.924     0.054     2.269     2.355
    39   1 H        0.925     0.080     1.977     2.199
    40   1 H        0.924     0.048     2.344     2.394
    41   1 H        0.926     0.051     2.306     2.375
    42   1 H        0.926     0.039     2.464     2.455
    43   1 H        0.925     0.055     2.257     2.349
    44   1 H        0.924     0.051     2.311     2.377
    45   1 H        0.925     0.055     2.258     2.350
    46   1 H        0.924     0.063     2.169     2.303
    47   1 H        0.923     0.005     2.967     2.694
    48   1 H        0.926     0.054     2.271     2.357
    49   1 H        0.926     0.047     2.352     2.398
    50   1 H        0.923     0.080     1.977     2.199
    51   1 H        0.923     0.069     2.093     2.262
    52   1 H        0.923     0.075     2.029     2.228
    53   1 H        0.926     0.054     2.265     2.353
    54   1 H        0.926     0.065     2.141     2.288
    55   1 H        0.924     0.054     2.270     2.356
    56   1 H        0.924     0.054     2.266     2.354
    57   1 H        0.925     0.082     1.957     2.188
    58   1 H        0.925     0.092     1.860     2.133
    59   1 H        0.924     0.057     2.240     2.341
    60   1 H        0.924     0.059     2.213     2.326
    61   1 H        0.923     0.081     1.965     2.192
    62   1 H        0.925     0.080     1.978     2.199
    63   1 H        0.924     0.083     1.950     2.184
    64   1 H        0.925     0.075     2.027     2.226
    65   1 H        0.924     0.036     2.505     2.475
    66   1 H        0.925     0.066     2.131     2.283
    67   1 H        0.925     0.034     2.530     2.488
    68   1 H        0.925     0.050     2.323     2.383
    69   1 H        0.925     0.063     2.160     2.298
    70   1 H        0.925     0.035     2.516     2.481
    71   1 H        0.925     0.053     2.288     2.365
    72   1 H        0.860     0.152     1.389     1.846

Wiberg/Mayer (AO) data.
largest (>0.10) Wiberg bond orders for each atom

     #   Z sym  total        # sym  WBO       # sym  WBO       # sym  WBO
 ---------------------------------------------------------------------------
     1   7 N    3.017 --     2 C    1.950    72 H    0.944
     2   6 C    3.935 --     1 N    1.950     3 C    0.994    47 H    0.920
     3   6 C    3.974 --     2 C    0.994     4 C    0.973    14 C    0.955
                            31 C    0.942
     4   6 C    3.949 --    13 C    1.410     5 C    1.369     3 C    0.973
     5   6 C    3.962 --     6 C    1.401     4 C    1.369    34 H    0.958
     6   6 C    3.904 --     5 C    1.401     9 C    1.223     7 O    1.097
     7   8 O    2.252 --     6 C    1.097     8 C    0.979
     8   6 C    3.933 --     7 O    0.979    36 H    0.977    37 H    0.974
                            35 H    0.973
     9   6 C    3.900 --    12 C    1.392     6 C    1.223    10 O    1.100
    10   8 O    2.250 --     9 C    1.100    11 C    0.978
    11   6 C    3.932 --    10 O    0.978    39 H    0.977    38 H    0.974
                            40 H    0.974
    12   6 C    3.962 --    13 C    1.404     9 C    1.392    41 H    0.964
    13   6 C    3.953 --     4 C    1.410    12 C    1.404    42 H    0.963
    14   6 C    3.973 --    15 C    0.980    44 H    0.972    43 H    0.968
                             3 C    0.955
    15   6 C    3.987 --    16 C    1.050    14 C    0.980    45 H    0.964
                            46 H    0.943
    16   6 C    3.674 --    17 N    1.339    15 C    1.050    48 H    0.959
                            18 C    0.220
    17   7 N    3.720 --    16 C    1.339    18 C    1.318    30 C    0.986
    18   6 C    3.640 --    17 N    1.318    19 C    1.047    49 H    0.961
                            16 C    0.220
    19   6 C    3.988 --    18 C    1.047    20 C    1.018    51 H    0.933
                            52 H    0.919
    20   6 C    3.785 --    21 C    1.594    29 C    1.032    19 C    1.018
    21   6 C    3.977 --    20 C    1.594    22 C    1.306    53 H    0.965
    22   6 C    3.744 --    23 C    1.329    21 C    1.306    54 H    0.964
    23   6 C    3.911 --    22 C    1.329    26 C    1.327    24 O    1.090
    24   8 O    2.243 --    23 C    1.090    25 C    0.976
    25   6 C    3.929 --    57 H    0.977    24 O    0.976    56 H    0.974
                            55 H    0.974
    26   6 C    3.675 --    23 C    1.327    27 O    1.146    29 C    1.031
    27   8 O    2.269 --    26 C    1.146    28 C    0.976
    28   6 C    3.925 --    27 O    0.976    58 H    0.975    59 H    0.969
                            60 H    0.968
    29   6 C    3.987 --    20 C    1.032    26 C    1.031    61 H    0.920
                            50 H    0.914
    30   6 C    3.956 --    17 N    0.986    64 H    0.977    62 H    0.970
                            63 H    0.963
    31   6 C    3.972 --    33 C    1.008    32 C    1.008    65 H    0.960
                             3 C    0.942
    32   6 C    3.980 --    31 C    1.008    67 H    0.982    68 H    0.982
                            66 H    0.974
    33   6 C    3.981 --    31 C    1.008    70 H    0.983    71 H    0.980
                            69 H    0.975
    34   1 H    0.996 --     5 C    0.958
    35   1 H    0.993 --     8 C    0.973
    36   1 H    0.993 --     8 C    0.977
    37   1 H    0.994 --     8 C    0.974
    38   1 H    0.993 --    11 C    0.974
    39   1 H    0.993 --    11 C    0.977
    40   1 H    0.993 --    11 C    0.974
    41   1 H    0.996 --    12 C    0.964
    42   1 H    0.998 --    13 C    0.963
    43   1 H    0.995 --    14 C    0.968
    44   1 H    0.996 --    14 C    0.972
    45   1 H    0.996 --    15 C    0.964
    46   1 H    0.978 --    15 C    0.943
    47   1 H    0.983 --     2 C    0.920
    48   1 H    0.997 --    16 C    0.959
    49   1 H    0.997 --    18 C    0.961
    50   1 H    0.955 --    29 C    0.914
    51   1 H    0.976 --    19 C    0.933
    52   1 H    0.967 --    19 C    0.919
    53   1 H    0.997 --    21 C    0.965
    54   1 H    0.994 --    22 C    0.964
    55   1 H    0.994 --    25 C    0.974
    56   1 H    0.994 --    25 C    0.974
    57   1 H    0.993 --    25 C    0.977
    58   1 H    0.991 --    28 C    0.975
    59   1 H    0.991 --    28 C    0.969
    60   1 H    0.990 --    28 C    0.968
    61   1 H    0.959 --    29 C    0.920
    62   1 H    0.993 --    30 C    0.970
    63   1 H    0.992 --    30 C    0.963
    64   1 H    0.994 --    30 C    0.977
    65   1 H    0.992 --    31 C    0.960
    66   1 H    0.991 --    32 C    0.974
    67   1 H    0.997 --    32 C    0.982
    68   1 H    0.994 --    32 C    0.982
    69   1 H    0.992 --    33 C    0.975
    70   1 H    0.997 --    33 C    0.983
    71   1 H    0.994 --    33 C    0.980
    72   1 H    0.971 --     1 N    0.944
 ---------------------------------------------------------------------------

molecular dipole:
                 x           y           z       tot (Debye)
 q only:        1.822      -0.735      -0.739
   full:        2.032      -0.915      -0.886       6.095

           -------------------------------------------------
          | TOTAL ENERGY              -99.348280351503 Eh   |
          | GRADIENT NORM               0.001912739057 Eh/α |
          | HOMO-LUMO GAP               0.901998704612 eV   |
           -------------------------------------------------

 * finished run on 2024/04/06 at 11:13:31.543
