   * xtb version 6.6.1 (8d0f1dd) compiled by 'conda@1efc2f54142f' on 2023-08-01
          program call               : xtb struc.xyz --opt loose --input .xc1 --gfn2

   ID    Z sym.   atoms
    1    6 C      1, 3, 5-7, 10, 11, 14
    2    7 N      2, 4, 9, 13
    3    8 O      8, 12
    4    1 H      15-25
constraining bond 9 12 to    4.6800000 Å, actual value:    2.2666725 Å

          :  Hamiltonian                  GFN2-xTB          :
 * total energy  :    -0.6510332 Eh     change       -0.6650680E-10 Eh
 * total energy  :   -20.5251900 Eh     change       -0.1987416E+02 Eh
 * total energy  :   -32.0906060 Eh     change       -0.1156542E+02 Eh
 * total energy  :   -38.6532710 Eh     change       -0.6562665E+01 Eh
 * total energy  :   -41.2840488 Eh     change       -0.2630778E+01 Eh
 * total energy  :   -41.6223388 Eh     change       -0.3382900E+00 Eh
 * total energy  :   -41.6460373 Eh     change       -0.2369852E-01 Eh
 * total energy  :   -41.6655052 Eh     change       -0.1946793E-01 Eh
 * total energy  :   -41.6835158 Eh     change       -0.1801060E-01 Eh
 * total energy  :   -41.7019356 Eh     change       -0.1841980E-01 Eh
 * total energy  :   -42.2187468 Eh     change       -0.2401010E-03 Eh
 * total energy  :   -42.2189088 Eh     change       -0.1619950E-03 Eh
 * total energy  :   -42.2190945 Eh     change       -0.1856319E-03 Eh
 * total energy  :   -42.2192763 Eh     change       -0.1818768E-03 Eh
 * total energy  :   -42.2194625 Eh     change       -0.1861951E-03 Eh
 * total energy  :   -42.2196456 Eh     change       -0.1831191E-03 Eh
 * total energy  :   -42.2197393 Eh     change       -0.9361413E-04 Eh
 * total energy  :   -42.2197939 Eh     change       -0.5466843E-04 Eh
 * total energy  :   -42.2198274 Eh     change       -0.3344270E-04 Eh
   *** GEOMETRY OPTIMIZATION CONVERGED AFTER 98 ITERATIONS ***

 final structure:
================
25
 xtb: 6.6.1 (8d0f1dd)
C            2.64589528800426        1.37402853905665        0.22895147687299
N            1.92132752816187        0.13999431231305        0.12815343395062
C            2.42927713049489       -1.08723604590999        0.09833901222937
N            1.42990061177979       -1.99123294421775       -0.02819340744840
C            0.25035257322039       -1.31052320656602       -0.08294752022219
C            0.55759695142390        0.03707904785305        0.01564256079024
C           -0.47793638089696        1.03318494529278        0.02530261299175
O           -1.76779326687722        0.43136344946057       -0.13196499970495
N           -0.21975516274169        2.26273276644968        0.15992327535820
C           -1.19579438681582        3.29824610029934        0.19511414943620
C           -2.09059128784303       -0.87984799774056       -0.26158223574821
O           -3.20138643934792       -1.29573104098367       -0.40900775443624
N           -1.00272073710660       -1.79256892555991       -0.21138906786867
C           -1.26738906089075       -3.21602414421700       -0.28612855500488
H            2.15121295922318        2.02409867501564        0.94939989255476
H            3.67137449787417        1.17824601206955        0.53196869546400
H            2.64340102525644        1.88722349190800       -0.73373244017783
H            3.46979329608573       -1.33264644362949        0.16655718516637
H           -0.80102866233175        4.14233489272227       -0.37259899079108
H           -2.17001926948709        2.99362135317093       -0.19377375754900
H           -1.31279926268110        3.62363108957627        1.23274952602754
H           -0.89304615403482       -3.71634836109314        0.60798457987097
H           -0.81191020840984       -3.64434359778765       -1.18035890953335
H           -2.34698480794539       -3.34828428035192       -0.34242019588833
H            1.54945473999045       -2.99275914552248       -0.07481694844372

          :  Hamiltonian                  GFN2-xTB          :
         :: total energy             -42.219827372804 Eh    ::
         :: gradient norm              0.002428312976 Eh/a0 ::
         :: HOMO-LUMO gap              2.793404102174 eV    ::
         :: SCC energy               -42.740141901294 Eh    ::
         :: -> dispersion             -0.021894685604 Eh    ::
         :: repulsion energy           0.520169846172 Eh    ::

    * Orbital Energies and Occupations

         #    Occupation            Energy/Eh            Energy/eV
      -------------------------------------------------------------
         1        2.0000           -0.9128742             -24.8406
       ...           ...                  ...                  ...
        25        2.0000           -0.6652697             -18.1029
        26        2.0000           -0.6603756             -17.9697
        27        1.9999           -0.6437562             -17.5175
        28        1.9999           -0.6399391             -17.4136
        29        1.9998           -0.6239998             -16.9799
        30        1.9998           -0.6236569             -16.9706
        31        1.9997           -0.6206996             -16.8901
        32        1.9997           -0.6185560             -16.8318
        33        1.9993           -0.6038799             -16.4324
        34        1.9970           -0.5816641             -15.8279
        35        1.9953           -0.5746239             -15.6363
        36        1.9584           -0.5397931             -14.6885
        37        1.9381           -0.5333547             -14.5133 (HOMO)
        38        0.0914           -0.4306990             -11.7199 (LUMO)
        39        0.0192           -0.4054205             -11.0321
        40        0.0025           -0.3727417             -10.1428
        41        0.0000           -0.2947214              -8.0198
        42                         -0.2088659              -5.6835
        43                         -0.1951074              -5.3091
        44                         -0.1668265              -4.5396
        45                         -0.1437162              -3.9107
        46                         -0.0819578              -2.2302
        47                         -0.0621654              -1.6916
        48                         -0.0441592              -1.2016
       ...                                ...                  ...
        67                          0.5313486              14.4587
      -------------------------------------------------------------
                  HL-Gap            0.1026557 Eh            2.7934 eV

     #   Z          covCN         q      C6AA      α(0)
     1   6 C        3.693    -0.097    22.544     6.794
     2   7 N        2.834     0.081    19.828     6.614
     3   6 C        3.057     0.047    26.894     8.505
     4   7 N        2.797    -0.062    22.429     7.034
     5   6 C        3.041     0.121    25.309     8.251
     6   6 C        3.121    -0.007    28.022     8.669
     7   6 C        2.769     0.219    23.383     7.919
     8   8 O        1.703    -0.254    18.216     5.763
     9   7 N        1.830    -0.195    26.061     7.565
    10   6 C        3.702    -0.041    21.472     6.626
    11   6 C        2.646     0.407    20.141     7.342
    12   8 O        0.858    -0.326    20.254     6.034
    13   7 N        2.734    -0.077    22.738     7.082
    14   6 C        3.695    -0.072    22.050     6.717
    15   1 H        0.925     0.127     1.560     1.953
    16   1 H        0.925     0.107     1.724     2.053
    17   1 H        0.924     0.118     1.631     1.997
    18   1 H        0.926     0.125     1.577     1.964
    19   1 H        0.924     0.093     1.851     2.128
    20   1 H        0.924     0.073     2.054     2.241
    21   1 H        0.924     0.095     1.831     2.116
    22   1 H        0.924     0.081     1.972     2.196
    23   1 H        0.924     0.082     1.955     2.186
    24   1 H        0.925     0.126     1.567     1.957
    25   1 H        0.860     0.231     0.961     1.535

Wiberg/Mayer (AO) data.
largest (>0.10) Wiberg bond orders for each atom

     #   Z sym  total        # sym  WBO       # sym  WBO       # sym  WBO
 ---------------------------------------------------------------------------
     1   6 C    3.920 --     2 N    0.990    16 H    0.973    15 H    0.956
                            17 H    0.952
     2   7 N    3.681 --     3 C    1.381     6 C    1.163     1 C    0.990
     3   6 C    3.847 --     2 N    1.381     4 N    1.267    18 H    0.953
     4   7 N    3.587 --     3 C    1.267     5 C    1.193    25 H    0.918
     5   6 C    3.937 --     6 C    1.353    13 N    1.198     4 N    1.193
     6   6 C    3.916 --     5 C    1.353     2 N    1.163     7 C    1.104
     7   6 C    3.906 --     9 N    1.746     6 C    1.104     8 O    0.923
     8   8 O    2.342 --    11 C    1.077     7 C    0.923    12 O    0.136
                             9 N    0.110
     9   7 N    3.069 --     7 C    1.746    10 C    1.042     8 O    0.110
    10   6 C    3.942 --     9 N    1.042    20 H    0.963    19 H    0.953
                            21 H    0.936
    11   6 C    3.935 --    12 O    1.761     8 O    1.077    13 N    1.023
    12   8 O    2.111 --    11 C    1.761     8 O    0.136    13 N    0.126
    13   7 N    3.530 --     5 C    1.198    11 C    1.023    14 C    0.975
                            12 O    0.126
    14   6 C    3.926 --    13 N    0.975    22 H    0.972    23 H    0.971
                            24 H    0.964
    15   1 H    0.982 --     1 C    0.956
    16   1 H    0.988 --     1 C    0.973
    17   1 H    0.983 --     1 C    0.952
    18   1 H    0.983 --     3 C    0.953
    19   1 H    0.979 --    10 C    0.953
    20   1 H    0.978 --    10 C    0.963
    21   1 H    0.974 --    10 C    0.936
    22   1 H    0.990 --    14 C    0.972
    23   1 H    0.990 --    14 C    0.971
    24   1 H    0.984 --    14 C    0.964
    25   1 H    0.946 --     4 N    0.918
 ---------------------------------------------------------------------------

molecular dipole:
                 x           y           z       tot (Debye)
 q only:        3.258      -1.069       0.225
   full:        3.320      -1.488       0.207       9.262

           -------------------------------------------------
          | TOTAL ENERGY              -42.219827372804 Eh   |
          | GRADIENT NORM               0.002428312976 Eh/α |
          | HOMO-LUMO GAP               2.793404102174 eV   |
           -------------------------------------------------

 * finished run on 2024/06/05 at 20:00:17.930
