   * xtb version 6.6.1 (8d0f1dd) compiled by 'conda@1efc2f54142f' on 2023-08-01
          program call               : xtb xtbopt.xyz --opt crude --input .xc2 --gfn2

   ID    Z sym.   atoms
    1    6 C      1, 3, 5-7, 10, 11, 14
    2    7 N      2, 4, 9, 13
    3    8 O      8, 12
    4    1 H      15-25
########################################################################
[WARNING] Please study the warnings concerning your input carefully
-1- readin_getIntValue: could not parse ''
########################################################################

          :  Hamiltonian                  GFN2-xTB          :
 * total energy  :   -42.2198822 Eh     change       -0.4973799E-13 Eh
 * total energy  :   -42.2218909 Eh     change       -0.2008756E-02 Eh
 * total energy  :   -42.2224485 Eh     change       -0.5575329E-03 Eh
 * total energy  :   -42.2225351 Eh     change       -0.8662335E-04 Eh
   *** GEOMETRY OPTIMIZATION CONVERGED AFTER 4 ITERATIONS ***

 final structure:
================
25
 xtb: 6.6.1 (8d0f1dd)
C            2.66247692952798        1.36887057706487        0.23422880910566
N            1.94327321093608        0.13176027886885        0.13158460620801
C            2.44968746754079       -1.09693631864220        0.09715385593693
N            1.44786728403889       -2.00028426295729       -0.03068077242184
C            0.27003181843120       -1.31689896145670       -0.07958514314306
C            0.58114342785681        0.02871946635944        0.02233970820512
C           -0.46170252538220        1.01693208007623        0.02643100466015
O           -1.73352347674575        0.45200907745740       -0.12386917326822
N           -0.25265687935279        2.24532950462258        0.15599369889416
C           -1.24349105210138        3.26504733055358        0.18354833111824
C           -2.05307767037471       -0.84036374547971       -0.24511984308974
O           -3.17921751376366       -1.19117034710613       -0.37748593672421
N           -0.99128590145789       -1.78126929899452       -0.20284870522651
C           -1.28561200981935       -3.19786603236668       -0.29147724874864
H            2.16439859959461        2.01519398862494        0.95597878529549
H            3.68893278222252        1.17851299316135        0.53794443618771
H            2.65569864096094        1.88383939768986       -0.72762692263144
H            3.48966017855156       -1.34542140049666        0.16253846388022
H           -0.86538695968455        4.10268349139945       -0.40304648906515
H           -2.21741482885506        2.94376941679874       -0.18931787144644
H           -1.34730169354396        3.60640055038545        1.21547940474250
H           -0.92514260989357       -3.71588320032937        0.59792712614129
H           -0.83450131751203       -3.62672603421325       -1.18693641207154
H           -2.36738836723235       -3.30587365316953       -0.35352180708470
H            1.56496398016291       -3.00213635624249       -0.07846028755782

          :  Hamiltonian                  GFN2-xTB          :
         :: total energy             -42.222535104193 Eh    ::
         :: gradient norm              0.004018675426 Eh/a0 ::
         :: HOMO-LUMO gap              2.703440208778 eV    ::
         :: SCC energy               -42.753718542940 Eh    ::
         :: -> dispersion             -0.021948980066 Eh    ::
         :: repulsion energy           0.531092220422 Eh    ::

    * Orbital Energies and Occupations

         #    Occupation            Energy/Eh            Energy/eV
      -------------------------------------------------------------
         1        2.0000           -0.9127068             -24.8360
       ...           ...                  ...                  ...
        25        2.0000           -0.6659525             -18.1215
        26        2.0000           -0.6615162             -18.0008
        27        1.9999           -0.6427365             -17.4898
        28        1.9999           -0.6392941             -17.3961
        29        1.9998           -0.6244101             -16.9911
        30        1.9998           -0.6232176             -16.9586
        31        1.9998           -0.6212530             -16.9052
        32        1.9997           -0.6188500             -16.8398
        33        1.9994           -0.6044366             -16.4476
        34        1.9974           -0.5819317             -15.8352
        35        1.9957           -0.5739218             -15.6172
        36        1.9627           -0.5395410             -14.6817
        37        1.9281           -0.5288657             -14.3912 (HOMO)
        38        0.0962           -0.4295161             -11.6877 (LUMO)
        39        0.0193           -0.4034573             -10.9786
        40        0.0023           -0.3694457             -10.0531
        41        0.0000           -0.2893528              -7.8737
        42                         -0.1989183              -5.4128
        43                         -0.1904438              -5.1822
        44                         -0.1493177              -4.0631
        45                         -0.1365003              -3.7144
        46                         -0.0808942              -2.2012
        47                         -0.0616374              -1.6772
        48                         -0.0425718              -1.1584
       ...                                ...                  ...
        67                          0.5552252              15.1084
      -------------------------------------------------------------
                  HL-Gap            0.0993496 Eh            2.7034 eV

     #   Z          covCN         q      C6AA      α(0)
     1   6 C        3.692    -0.096    22.532     6.792
     2   7 N        2.833     0.081    19.833     6.614
     3   6 C        3.059     0.046    26.914     8.508
     4   7 N        2.797    -0.062    22.437     7.035
     5   6 C        3.044     0.120    25.319     8.253
     6   6 C        3.125    -0.010    28.080     8.677
     7   6 C        2.777     0.221    23.341     7.913
     8   8 O        1.707    -0.238    17.946     5.720
     9   7 N        1.829    -0.200    26.175     7.581
    10   6 C        3.702    -0.042    21.478     6.627
    11   6 C        2.653     0.408    20.127     7.340
    12   8 O        0.858    -0.329    20.318     6.043
    13   7 N        2.734    -0.081    22.814     7.094
    14   6 C        3.695    -0.070    22.025     6.714
    15   1 H        0.925     0.126     1.567     1.958
    16   1 H        0.925     0.107     1.724     2.053
    17   1 H        0.924     0.117     1.634     1.999
    18   1 H        0.926     0.124     1.581     1.966
    19   1 H        0.924     0.093     1.848     2.126
    20   1 H        0.924     0.073     2.057     2.243
    21   1 H        0.924     0.095     1.830     2.115
    22   1 H        0.924     0.081     1.969     2.195
    23   1 H        0.924     0.082     1.959     2.189
    24   1 H        0.925     0.124     1.580     1.966
    25   1 H        0.860     0.230     0.963     1.537

Wiberg/Mayer (AO) data.
largest (>0.10) Wiberg bond orders for each atom

     #   Z sym  total        # sym  WBO       # sym  WBO       # sym  WBO
 ---------------------------------------------------------------------------
     1   6 C    3.921 --     2 N    0.990    16 H    0.973    15 H    0.957
                            17 H    0.952
     2   7 N    3.678 --     3 C    1.378     6 C    1.165     1 C    0.990
     3   6 C    3.842 --     2 N    1.378     4 N    1.264    18 H    0.953
     4   7 N    3.585 --     3 C    1.264     5 C    1.194    25 H    0.919
     5   6 C    3.938 --     6 C    1.357    13 N    1.194     4 N    1.194
     6   6 C    3.916 --     5 C    1.357     2 N    1.165     7 C    1.096
     7   6 C    3.910 --     9 N    1.739     6 C    1.096     8 O    0.944
     8   8 O    2.366 --    11 C    1.084     7 C    0.944    12 O    0.134
                             9 N    0.107
     9   7 N    3.058 --     7 C    1.739    10 C    1.041     8 O    0.107
    10   6 C    3.941 --     9 N    1.041    20 H    0.962    19 H    0.953
                            21 H    0.937
    11   6 C    3.936 --    12 O    1.757     8 O    1.084    13 N    1.021
    12   8 O    2.105 --    11 C    1.757     8 O    0.134    13 N    0.126
    13   7 N    3.526 --     5 C    1.194    11 C    1.021    14 C    0.975
                            12 O    0.126
    14   6 C    3.926 --    13 N    0.975    22 H    0.972    23 H    0.971
                            24 H    0.966
    15   1 H    0.983 --     1 C    0.957
    16   1 H    0.988 --     1 C    0.973
    17   1 H    0.983 --     1 C    0.952
    18   1 H    0.984 --     3 C    0.953
    19   1 H    0.978 --    10 C    0.953
    20   1 H    0.977 --    10 C    0.962
    21   1 H    0.975 --    10 C    0.937
    22   1 H    0.990 --    14 C    0.972
    23   1 H    0.990 --    14 C    0.971
    24   1 H    0.984 --    14 C    0.966
    25   1 H    0.946 --     4 N    0.919
 ---------------------------------------------------------------------------

molecular dipole:
                 x           y           z       tot (Debye)
 q only:        3.227      -1.103       0.204
   full:        3.320      -1.557       0.182       9.333

           -------------------------------------------------
          | TOTAL ENERGY              -42.222535104193 Eh   |
          | GRADIENT NORM               0.004018675426 Eh/α |
          | HOMO-LUMO GAP               2.703440208778 eV   |
           -------------------------------------------------

 * finished run on 2024/06/05 at 20:00:18.154
