   * xtb version 6.6.1 (8d0f1dd) compiled by 'conda@1efc2f54142f' on 2023-08-01
          program call               : xtb struc.xyz --opt loose --input .xc1 --gfn2

   ID    Z sym.   atoms
    1    7 N      1, 17
    2    6 C      2-6, 8, 9, 11-16, 18-23, 25, 26, 28-33
    3    8 O      7, 10, 24, 27
    4    1 H      34-72
constraining bond 9 40 to    5.1400000 Å, actual value:    2.7327451 Å

          :  Hamiltonian                  GFN2-xTB          :
 * total energy  :   -98.3694372 Eh     change       -0.4035485E-08 Eh
 * total energy  :   -98.7083671 Eh     change       -0.3389299E+00 Eh
 * total energy  :   -98.9319316 Eh     change       -0.2235646E+00 Eh
 * total energy  :   -99.0551587 Eh     change       -0.1232271E+00 Eh
 * total energy  :   -99.1238413 Eh     change       -0.6868260E-01 Eh
 * total energy  :   -99.1698398 Eh     change       -0.4599851E-01 Eh
 * total energy  :   -99.2100268 Eh     change       -0.4018695E-01 Eh
 * total energy  :   -99.2414616 Eh     change       -0.3143482E-01 Eh
 * total energy  :   -99.2546155 Eh     change       -0.1315387E-01 Eh
 * total energy  :   -99.2607632 Eh     change       -0.6147680E-02 Eh
 * total energy  :   -99.2684429 Eh     change       -0.1044379E-03 Eh
 * total energy  :   -99.2685791 Eh     change       -0.1361972E-03 Eh
 * total energy  :   -99.2687109 Eh     change       -0.1318069E-03 Eh
 * total energy  :   -99.2686688 Eh     change        0.4205286E-04 Eh
 * total energy  :   -99.2687786 Eh     change       -0.1098095E-03 Eh
 * total energy  :   -99.2688405 Eh     change       -0.6186671E-04 Eh
 * total energy  :   -99.2689248 Eh     change       -0.8428103E-04 Eh
 * total energy  :   -99.2689770 Eh     change       -0.5225302E-04 Eh
 * total energy  :   -99.2690099 Eh     change       -0.3288121E-04 Eh
   *** GEOMETRY OPTIMIZATION CONVERGED AFTER 29 ITERATIONS ***

 final structure:
================
72
 xtb: 6.6.1 (8d0f1dd)
N           -1.91077552940008        2.86773929076745        2.23439073172790
C           -1.84435573002746        2.16930904125750        1.20077456972125
C           -2.98392680030532        1.96227386155574        0.23905665096681
C           -3.47099894008940        0.52510440064976        0.32667982956963
C           -4.40796756226074        0.05658743945302       -0.59698737048609
C           -4.90959607752108       -1.23320285451019       -0.53365093409907
O           -5.82718565763641       -1.75752167760386       -1.36678944947344
C           -6.41684176058920       -0.93490402734933       -2.34947311119724
C           -4.44532634636190       -2.10314002136181        0.49058888826945
O           -4.97462716946807       -3.34937128246413        0.47308697505076
C           -4.81752093995031       -4.25475840000781        1.40039408669975
C           -3.50192533027202       -1.63745135552562        1.40367694394265
C           -3.02787832422458       -0.34028453579105        1.32122354273788
C           -2.41281983940421        2.24536943732547       -1.17552098503926
C           -1.48616031124886        1.14654946412540       -1.72653677284175
C           -0.15066887102028        1.12634718835816       -1.08906598688171
N            0.50421410104749        0.03735429553638       -0.70168224953648
C            1.88361122431320        0.12194374626719       -0.28341738401241
C            2.85099390155554       -0.33965735928699       -1.39052547890304
C            4.27061632326220       -0.13788214098424       -0.93910407914019
C            4.91038156270015        1.07305794462163       -1.14877097745694
C            6.20888986861819        1.27611174787205       -0.70814471029016
C            6.89366575547258        0.26989338309985       -0.04197585071763
O            8.15233213989447        0.35283342483361        0.42609411190633
C            8.88511951632625        1.53939746711787        0.22422921759155
C            6.24330343538617       -0.97543167423497        0.18283655244758
O            6.98038895808748       -1.89565329565571        0.83489132978225
C            6.43561334238218       -3.17046388516871        1.07901548719411
C            4.94416847665115       -1.15435686281349       -0.26613688077783
C           -0.09313901869130       -1.27533526673270       -0.75482091349253
C           -4.19717539455930        2.90247288727907        0.51326461264473
C           -4.86173191377576        2.58599683920057        1.85104883920886
C           -3.83306986125180        4.38348628274858        0.45706254622640
H           -4.76162781171731        0.71816416308730       -1.36955966473289
H           -6.92005316047224       -0.07449366734583       -1.89912527774296
H           -7.15242325214489       -1.56113987055823       -2.84989198136302
H           -5.67897983165380       -0.59074023060280       -3.08052752739869
H           -4.26237889832898       -4.09048380839191        2.30749602111468
H           -5.28991217951784       -5.19761319581064        1.19751061659058
H           -3.35686367522656       -6.86601631524286        2.06467736455246
H           -3.13098809825163       -2.28501624625779        2.18172187980936
H           -2.32083293749133        0.00099113355708        2.06075215837604
H           -3.24342138500458        2.36753692211029       -1.86989334293067
H           -1.86632905501714        3.18876978068567       -1.14922819009833
H           -1.98025416522837        0.17888534662004       -1.65878453057176
H           -1.33613790362873        1.36899645338588       -2.79136944296162
H           -0.92369860756213        1.65790482044443        0.85985091013741
H            0.39772484465138        2.05616311232469       -1.05608961592286
H            2.02784747402008       -0.49766168093406        0.60588959700555
H            2.11795768792978        1.15556041811295       -0.02100050797521
H            2.66002482289589        0.24744010199768       -2.29048850966665
H            2.67367887569633       -1.39106681644843       -1.61908847202527
H            4.40268246885167        1.86894223074137       -1.67232031985682
H            6.68281270018763        2.22600073793981       -0.89328126697013
H            8.41270096822746        2.39180158932607        0.72188110849881
H            9.00651557132665        1.75856727666099       -0.84077103515805
H            9.86167492078494        1.35824285266770        0.66901598923938
H            7.21739457159084       -3.72894741959912        1.59005403641449
H            5.55285350620375       -3.11301736259945        1.72395630086536
H            6.17648611804917       -3.68161120524876        0.14669373190950
H            4.44544846222532       -2.09776741035592       -0.10780983661420
H           -0.24545988473955       -1.59973778106044       -1.78667457420232
H           -1.05681382398529       -1.27723734294234       -0.23993661970274
H            0.56265896615036       -1.98813950725308       -0.26153836134807
H           -4.92736933334308        2.70544040295031       -0.27996755315436
H           -4.17268480900312        2.78564341117147        2.66508335612094
H           -5.17519680810065        1.54589272537069        1.90017808563437
H           -5.73966113441874        3.21395288257269        1.97775990106635
H           -3.09139707271279        4.61951673576693        1.21372553433008
H           -3.45523349066054        4.67308348351657       -0.51989084103373
H           -4.72219295992857        4.97549834607149        0.65791785793991
H           -1.07164331129651        2.95942095348892        2.79862608308363

          :  Hamiltonian                  GFN2-xTB          :
         :: total energy             -99.269009900814 Eh    ::
         :: gradient norm              0.001596753115 Eh/a0 ::
         :: HOMO-LUMO gap              0.462566581084 eV    ::
         :: SCC energy              -100.643402863136 Eh    ::
         :: -> dispersion             -0.074876452440 Eh    ::
         :: repulsion energy           1.373178243192 Eh    ::

    * Orbital Energies and Occupations

         #    Occupation            Energy/Eh            Energy/eV
      -------------------------------------------------------------
         1        2.0000           -0.8492125             -23.1082
       ...           ...                  ...                  ...
        78        1.9986           -0.5324926             -14.4899
        79        1.9985           -0.5311309             -14.4528
        80        1.9983           -0.5289919             -14.3946
        81        1.9977           -0.5241959             -14.2641
        82        1.9970           -0.5204143             -14.1612
        83        1.9962           -0.5165008             -14.0547
        84        1.9958           -0.5150881             -14.0163
        85        1.9934           -0.5078318             -13.8188
        86        1.9785           -0.4889625             -13.3053
        87        1.9784           -0.4888496             -13.3023
        88        1.9463           -0.4741910             -12.9034
        89        1.8415           -0.4561900             -12.4136
        90        1.1799           -0.4231179             -11.5136 (HOMO)
        91        0.6593           -0.4061189             -11.0511 (LUMO)
        92        0.4128           -0.3960320             -10.7766
        93        0.0174           -0.3424059              -9.3173
        94        0.0073           -0.3284390              -8.9373
        95        0.0052           -0.3229966              -8.7892
        96        0.0027           -0.3127855              -8.5113
        97        0.0023           -0.3105203              -8.4497
        98        0.0000           -0.2042802              -5.5587
        99        0.0000           -0.1880199              -5.1163
       100                         -0.1377934              -3.7495
       101                         -0.0762940              -2.0761
       ...                                ...                  ...
       171                          0.5760941              15.6763
      -------------------------------------------------------------
                  HL-Gap            0.0169990 Eh            0.4626 eV

     #   Z          covCN         q      C6AA      α(0)
     1   7 N        1.774    -0.270    27.817     7.810
     2   6 C        2.826     0.100    25.783     8.320
     3   6 C        3.907     0.006    20.418     6.423
     4   6 C        2.974     0.009    27.803     8.649
     5   6 C        2.920    -0.079    29.986     8.980
     6   6 C        2.860     0.136    25.022     8.199
     7   8 O        1.706    -0.231    17.833     5.702
     8   6 C        3.645     0.025    20.489     6.506
     9   6 C        2.869     0.101    25.756     8.319
    10   8 O        1.710    -0.101    15.843     5.374
    11   6 C        2.733     0.036    27.173     8.534
    12   6 C        2.911    -0.062    29.553     8.914
    13   6 C        2.920    -0.052    29.285     8.874
    14   6 C        3.812    -0.066    21.748     6.638
    15   6 C        3.802    -0.069    21.814     6.650
    16   6 C        2.843     0.004    27.920     8.660
    17   7 N        2.729     0.010    21.078     6.819
    18   6 C        3.756    -0.017    20.924     6.522
    19   6 C        3.808    -0.071    21.844     6.653
    20   6 C        2.969    -0.000    28.032     8.685
    21   6 C        2.922    -0.049    29.214     8.864
    22   6 C        2.914    -0.067    29.680     8.934
    23   6 C        2.865     0.134    25.077     8.208
    24   8 O        1.706    -0.221    17.672     5.676
    25   6 C        3.645     0.025    20.491     6.506
    26   6 C        2.863     0.133    25.082     8.209
    27   8 O        1.706    -0.224    17.714     5.683
    28   6 C        3.645     0.027    20.459     6.501
    29   6 C        2.919    -0.079    29.987     8.980
    30   6 C        3.699    -0.070    22.002     6.708
    31   6 C        3.853    -0.007    20.673     6.467
    32   6 C        3.756    -0.119    22.841     6.814
    33   6 C        3.755    -0.119    22.833     6.813
    34   1 H        0.926     0.058     2.225     2.333
    35   1 H        0.924     0.056     2.243     2.342
    36   1 H        0.925     0.084     1.939     2.177
    37   1 H        0.924     0.050     2.314     2.379
    38   1 H        0.926     0.074     2.038     2.233
    39   1 H        0.926     0.107     1.726     2.055
    40   1 H        0.000    -0.148    18.925     7.955
    41   1 H        0.926     0.058     2.217     2.328
    42   1 H        0.926     0.046     2.369     2.407
    43   1 H        0.925     0.060     2.204     2.322
    44   1 H        0.924     0.055     2.254     2.348
    45   1 H        0.925     0.063     2.161     2.299
    46   1 H        0.923     0.080     1.983     2.202
    47   1 H        0.922     0.005     2.971     2.696
    48   1 H        0.926     0.069     2.095     2.263
    49   1 H        0.924     0.068     2.113     2.273
    50   1 H        0.924     0.068     2.112     2.273
    51   1 H        0.924     0.055     2.255     2.349
    52   1 H        0.924     0.056     2.248     2.345
    53   1 H        0.926     0.045     2.384     2.414
    54   1 H        0.926     0.059     2.215     2.328
    55   1 H        0.924     0.054     2.266     2.354
    56   1 H        0.924     0.056     2.245     2.343
    57   1 H        0.925     0.083     1.952     2.185
    58   1 H        0.925     0.082     1.955     2.187
    59   1 H        0.924     0.049     2.331     2.387
    60   1 H        0.924     0.053     2.283     2.363
    61   1 H        0.926     0.048     2.349     2.397
    62   1 H        0.924     0.076     2.018     2.222
    63   1 H        0.924     0.076     2.020     2.223
    64   1 H        0.925     0.081     1.966     2.193
    65   1 H        0.924     0.036     2.503     2.474
    66   1 H        0.925     0.070     2.082     2.256
    67   1 H        0.925     0.033     2.546     2.495
    68   1 H        0.925     0.052     2.296     2.370
    69   1 H        0.925     0.061     2.185     2.312
    70   1 H        0.925     0.035     2.518     2.482
    71   1 H        0.925     0.055     2.257     2.349
    72   1 H        0.860     0.157     1.353     1.822

Wiberg/Mayer (AO) data.
largest (>0.10) Wiberg bond orders for each atom

     #   Z sym  total        # sym  WBO       # sym  WBO       # sym  WBO
 ---------------------------------------------------------------------------
     1   7 N    3.037 --     2 C    1.957    72 H    0.942
     2   6 C    3.929 --     1 N    1.957     3 C    0.994    47 H    0.903
     3   6 C    3.978 --     2 C    0.994     4 C    0.974    14 C    0.957
                            31 C    0.941
     4   6 C    3.913 --    13 C    1.392     5 C    1.373     3 C    0.974
     5   6 C    3.961 --     6 C    1.395     4 C    1.373    34 H    0.957
     6   6 C    3.894 --     5 C    1.395     9 C    1.224     7 O    1.110
     7   8 O    2.271 --     6 C    1.110     8 C    0.973
     8   6 C    3.929 --    36 H    0.977    37 H    0.975    35 H    0.975
                             7 O    0.973
     9   6 C    3.891 --    12 C    1.355     6 C    1.224    10 O    1.056
    10   8 O    2.429 --    11 C    1.275     9 C    1.056
    11   6 C    3.343 --    10 O    1.275    38 H    0.965    39 H    0.962
    12   6 C    3.913 --    13 C    1.437     9 C    1.355    41 H    0.961
    13   6 C    3.973 --    12 C    1.437     4 C    1.392    42 H    0.962
    14   6 C    3.972 --    15 C    0.982    44 H    0.972    43 H    0.969
                             3 C    0.957
    15   6 C    3.987 --    16 C    1.059    14 C    0.982    45 H    0.962
                            46 H    0.928
    16   6 C    3.580 --    17 N    1.397    15 C    1.059    48 H    0.957
    17   7 N    3.472 --    16 C    1.397    30 C    0.999    18 C    0.988
    18   6 C    3.955 --    17 N    0.988    50 H    0.968    19 C    0.967
                            49 H    0.964
    19   6 C    3.976 --    20 C    1.008    52 H    0.972    51 H    0.972
                            18 C    0.967
    20   6 C    3.944 --    21 C    1.409    29 C    1.380    19 C    1.008
    21   6 C    3.949 --    22 C    1.417    20 C    1.409    53 H    0.968
    22   6 C    3.959 --    21 C    1.417    23 C    1.383    54 H    0.963
    23   6 C    3.895 --    22 C    1.383    26 C    1.219    24 O    1.111
    24   8 O    2.255 --    23 C    1.111    25 C    0.976
    25   6 C    3.928 --    57 H    0.977    24 O    0.976    56 H    0.973
                            55 H    0.973
    26   6 C    3.898 --    29 C    1.394    23 C    1.219    27 O    1.105
    27   8 O    2.255 --    26 C    1.105    28 C    0.978
    28   6 C    3.931 --    27 O    0.978    58 H    0.977    59 H    0.973
                            60 H    0.973
    29   6 C    3.959 --    26 C    1.394    20 C    1.380    61 H    0.962
    30   6 C    3.958 --    17 N    0.999    64 H    0.977    62 H    0.966
                            63 H    0.963
    31   6 C    3.974 --    33 C    1.009    32 C    1.009    65 H    0.961
                             3 C    0.941
    32   6 C    3.981 --    31 C    1.009    67 H    0.982    68 H    0.982
                            66 H    0.974
    33   6 C    3.984 --    31 C    1.009    70 H    0.983    71 H    0.980
                            69 H    0.977
    34   1 H    0.996 --     5 C    0.957
    35   1 H    0.994 --     8 C    0.975
    36   1 H    0.992 --     8 C    0.977
    37   1 H    0.995 --     8 C    0.975
    38   1 H    0.994 --    11 C    0.965
    39   1 H    0.988 --    11 C    0.962
    40   1 H    0.017
    41   1 H    0.995 --    12 C    0.961
    42   1 H    0.997 --    13 C    0.962
    43   1 H    0.995 --    14 C    0.969
    44   1 H    0.996 --    14 C    0.972
    45   1 H    0.995 --    15 C    0.962
    46   1 H    0.969 --    15 C    0.928
    47   1 H    0.989 --     2 C    0.903
    48   1 H    0.995 --    16 C    0.957
    49   1 H    0.990 --    18 C    0.964
    50   1 H    0.994 --    18 C    0.968
    51   1 H    0.996 --    19 C    0.972
    52   1 H    0.996 --    19 C    0.972
    53   1 H    0.997 --    21 C    0.968
    54   1 H    0.995 --    22 C    0.963
    55   1 H    0.992 --    25 C    0.973
    56   1 H    0.991 --    25 C    0.973
    57   1 H    0.992 --    25 C    0.977
    58   1 H    0.993 --    28 C    0.977
    59   1 H    0.993 --    28 C    0.973
    60   1 H    0.993 --    28 C    0.973
    61   1 H    0.996 --    29 C    0.962
    62   1 H    0.984 --    30 C    0.966
    63   1 H    0.987 --    30 C    0.963
    64   1 H    0.993 --    30 C    0.977
    65   1 H    0.994 --    31 C    0.961
    66   1 H    0.991 --    32 C    0.974
    67   1 H    0.997 --    32 C    0.982
    68   1 H    0.994 --    32 C    0.982
    69   1 H    0.994 --    33 C    0.977
    70   1 H    0.997 --    33 C    0.983
    71   1 H    0.994 --    33 C    0.980
    72   1 H    0.971 --     1 N    0.942
 ---------------------------------------------------------------------------

molecular dipole:
                 x           y           z       tot (Debye)
 q only:        0.232       1.031      -1.265
   full:        0.498       0.913      -1.445       4.526

           -------------------------------------------------
          | TOTAL ENERGY              -99.269009900814 Eh   |
          | GRADIENT NORM               0.001596753115 Eh/α |
          | HOMO-LUMO GAP               0.462566581084 eV   |
           -------------------------------------------------

 * finished run on 2024/04/06 at 11:12:52.746
