   * xtb version 6.6.1 (8d0f1dd) compiled by 'conda@1efc2f54142f' on 2023-08-01
          program call               : xtb xtbopt.xyz --opt crude --input .xc2 --gfn2

   ID    Z sym.   atoms
    1    6 C      1, 3, 5-7, 10, 11, 14
    2    7 N      2, 4, 9, 13
    3    8 O      8, 12
    4    1 H      15-25
########################################################################
[WARNING] Please study the warnings concerning your input carefully
-1- readin_getIntValue: could not parse ''
########################################################################

          :  Hamiltonian                  GFN2-xTB          :
 * total energy  :   -39.8328957 Eh     change       -0.2072653E-10 Eh
 * total energy  :   -42.1086758 Eh     change       -0.2275780E+01 Eh
 * total energy  :   -42.1179034 Eh     change       -0.9227620E-02 Eh
 * total energy  :   -42.1229402 Eh     change       -0.5036727E-02 Eh
 * total energy  :   -42.1254538 Eh     change       -0.2513695E-02 Eh
 * total energy  :   -42.1263984 Eh     change       -0.9445460E-03 Eh
 * total energy  :   -42.1274858 Eh     change       -0.1087361E-02 Eh
 * total energy  :   -42.1284024 Eh     change       -0.9166883E-03 Eh
 * total energy  :   -42.1292821 Eh     change       -0.8796780E-03 Eh
 * total energy  :   -42.1298189 Eh     change       -0.5367362E-03 Eh
 * total energy  :   -42.1299955 Eh     change       -0.1766644E-03 Eh
   *** GEOMETRY OPTIMIZATION CONVERGED AFTER 11 ITERATIONS ***

 final structure:
================
25
 xtb: 6.6.1 (8d0f1dd)
C            3.30777907891112        0.98225606738928       -0.13671648350934
N            2.41372029491910       -0.00361227017100       -0.08950087342023
C            2.63208164486270       -1.32906443630736       -0.28857927315585
N            1.45738869187538       -1.99469958732149       -0.22165650595949
C            0.46384958902926       -1.08452347300339        0.03044237698458
C            1.05992500163312        0.14756960188898        0.14331537589162
C            0.28833659630328        1.43014835091515        0.30414736519570
O            0.69186674759912        2.40957300508182       -0.44168556042387
N           -1.15829355682443        1.06615138026698        0.11548164849110
C           -2.02845596020049        2.20836520167040       -0.01872823245590
C           -1.73046083785852       -0.16547239297487        0.12163990781767
O           -2.92281435262772       -0.33854575592266        0.10295204700011
N           -0.86527280755915       -1.29444394459973        0.11856971891489
C           -1.44705572738065       -2.61681101541872        0.06885993505828
H            0.32946096718380        1.74804623846781        1.39203760637429
H            4.34061171609867        0.75562384114124       -0.32050509589872
H            2.94847097937590        1.99335759788672       -0.05360273047607
H            3.58818074451924       -1.77381451955461       -0.47534613150630
H           -1.47446951988091        2.98562321004797       -0.54907034005049
H           -2.92575496264662        1.92425877841952       -0.56517201398883
H           -2.32376210295389        2.59170567576267        0.96229341981259
H           -1.04119867943976       -3.24030950086019        0.86582869496207
H           -1.27063253743951       -3.08621310233977       -0.90111247146123
H           -2.52203884548694       -2.50564966850388        0.21053009672457
H            1.34896935208789       -2.99128074036471       -0.34325086302170

          :  Hamiltonian                  GFN2-xTB          :
         :: total energy             -42.129995521821 Eh    ::
         :: gradient norm              0.006009444191 Eh/a0 ::
         :: HOMO-LUMO gap              0.329516171432 eV    ::
         :: SCC energy               -42.631893506861 Eh    ::
         :: -> dispersion             -0.022861882502 Eh    ::
         :: repulsion energy           0.501755629262 Eh    ::

    * Orbital Energies and Occupations

         #    Occupation            Energy/Eh            Energy/eV
      -------------------------------------------------------------
         1        2.0000           -0.9155304             -24.9129
       ...           ...                  ...                  ...
        25        1.9999           -0.6715089             -18.2727
        26        1.9998           -0.6640859             -18.0707
        27        1.9998           -0.6569858             -17.8775
        28        1.9994           -0.6419489             -17.4683
        29        1.9990           -0.6347492             -17.2724
        30        1.9983           -0.6268041             -17.0562
        31        1.9975           -0.6203611             -16.8809
        32        1.9919           -0.6017907             -16.3756
        33        1.9698           -0.5807525             -15.8031
        34        1.9046           -0.5619891             -15.2925
        35        1.8506           -0.5544269             -15.0867
        36        1.7766           -0.5474075             -14.8957
        37        1.4313           -0.5291935             -14.4001 (HOMO)
        38        1.0790           -0.5170840             -14.0706 (LUMO)
        39        0.0022           -0.4068991             -11.0723
        40        0.0004           -0.3800757             -10.3424
        41        0.0000           -0.3354001              -9.1267
        42                         -0.2106142              -5.7311
        43                         -0.1984897              -5.4012
        44                         -0.1618895              -4.4052
        45                         -0.1418598              -3.8602
        46                         -0.0919303              -2.5016
        47                         -0.0674837              -1.8363
        48                         -0.0417987              -1.1374
       ...                                ...                  ...
        67                          0.5081195              13.8266
      -------------------------------------------------------------
                  HL-Gap            0.0121095 Eh            0.3295 eV

     #   Z          covCN         q      C6AA      α(0)
     1   6 C        2.790    -0.056    29.374     8.878
     2   7 N        2.820     0.130    19.031     6.479
     3   6 C        3.038     0.033    27.227     8.559
     4   7 N        2.786    -0.054    22.291     7.012
     5   6 C        3.022     0.114    25.459     8.277
     6   6 C        3.105    -0.019    28.351     8.725
     7   6 C        3.661     0.216    17.462     5.995
     8   8 O        0.856    -0.418    22.043     6.295
     9   7 N        2.733    -0.095    23.101     7.138
    10   6 C        3.705    -0.060    21.805     6.676
    11   6 C        2.720     0.318    21.597     7.608
    12   8 O        0.860    -0.353    20.769     6.110
    13   7 N        2.738    -0.057    22.346     7.021
    14   6 C        3.696    -0.072    22.051     6.718
    15   1 H        0.916     0.100     1.791     2.093
    16   1 H        0.926     0.119     1.625     1.993
    17   1 H        0.926     0.148     1.404     1.853
    18   1 H        0.926     0.128     1.551     1.947
    19   1 H        0.924     0.125     1.573     1.961
    20   1 H        0.925     0.115     1.655     2.012
    21   1 H        0.924     0.104     1.745     2.066
    22   1 H        0.924     0.086     1.920     2.167
    23   1 H        0.924     0.087     1.907     2.160
    24   1 H        0.925     0.130     1.532     1.936
    25   1 H        0.860     0.232     0.955     1.531

Wiberg/Mayer (AO) data.
largest (>0.10) Wiberg bond orders for each atom

     #   Z sym  total        # sym  WBO       # sym  WBO       # sym  WBO
 ---------------------------------------------------------------------------
     1   6 C    3.331 --     2 N    1.314    16 H    0.964    17 H    0.952
     2   7 N    3.763 --     1 C    1.314     3 C    1.228     6 C    1.122
     3   6 C    3.643 --     4 N    1.281     2 N    1.228    18 H    0.953
     4   7 N    3.519 --     3 C    1.281     5 C    1.162    25 H    0.917
     5   6 C    3.927 --     6 C    1.408    13 N    1.195     4 N    1.162
     6   6 C    3.748 --     5 C    1.408     2 N    1.122     7 C    0.946
     7   6 C    3.932 --     8 O    1.229     6 C    0.946     9 N    0.875
                            15 H    0.822
     8   8 O    1.374 --     7 C    1.229
     9   7 N    3.329 --    11 C    1.199    10 C    0.999     7 C    0.875
                            12 O    0.140
    10   6 C    3.872 --     9 N    0.999    20 H    0.956    19 H    0.945
                            21 H    0.931
    11   6 C    3.952 --    12 O    1.662     9 N    1.199    13 N    1.007
    12   8 O    1.979 --    11 C    1.662     9 N    0.140
    13   7 N    3.444 --     5 C    1.195    11 C    1.007    14 C    0.982
    14   6 C    3.913 --    13 N    0.982    22 H    0.966    23 H    0.961
                            24 H    0.961
    15   1 H    0.843 --     7 C    0.822
    16   1 H    0.984 --     1 C    0.964
    17   1 H    0.977 --     1 C    0.952
    18   1 H    0.982 --     3 C    0.953
    19   1 H    0.966 --    10 C    0.945
    20   1 H    0.972 --    10 C    0.956
    21   1 H    0.946 --    10 C    0.931
    22   1 H    0.981 --    14 C    0.966
    23   1 H    0.977 --    14 C    0.961
    24   1 H    0.981 --    14 C    0.961
    25   1 H    0.945 --     4 N    0.917
 ---------------------------------------------------------------------------

molecular dipole:
                 x           y           z       tot (Debye)
 q only:        2.405      -2.065       0.325
   full:        2.664      -2.476       0.438       9.310

           -------------------------------------------------
          | TOTAL ENERGY              -42.129995521821 Eh   |
          | GRADIENT NORM               0.006009444191 Eh/α |
          | HOMO-LUMO GAP               0.329516171432 eV   |
           -------------------------------------------------

 * finished run on 2024/06/05 at 20:00:27.369
