   * xtb version 6.6.1 (8d0f1dd) compiled by 'conda@1efc2f54142f' on 2023-08-01
          program call               : xtb struc.xyz --opt loose --input .xc1 --gfn2

   ID    Z sym.   atoms
    1    7 N      1, 17
    2    6 C      2-6, 8, 9, 11-16, 18-23, 25, 26, 28-33
    3    8 O      7, 10, 24, 27
    4    1 H      34-72
constraining bond 17 45 to    5.0600000 Å, actual value:    2.6555746 Å

          :  Hamiltonian                  GFN2-xTB          :
 * total energy  :   -98.3718681 Eh     change       -0.4035485E-08 Eh
 * total energy  :   -98.7151063 Eh     change       -0.3432381E+00 Eh
 * total energy  :   -98.9347892 Eh     change       -0.2196829E+00 Eh
 * total energy  :   -99.0595487 Eh     change       -0.1247595E+00 Eh
 * total energy  :   -99.1302783 Eh     change       -0.7072956E-01 Eh
 * total energy  :   -99.1717059 Eh     change       -0.4142765E-01 Eh
 * total energy  :   -99.1995940 Eh     change       -0.2788802E-01 Eh
 * total energy  :   -99.2187264 Eh     change       -0.1913248E-01 Eh
 * total energy  :   -99.2314340 Eh     change       -0.1270759E-01 Eh
 * total energy  :   -99.2453657 Eh     change       -0.1393163E-01 Eh
 * total energy  :   -99.3255033 Eh     change       -0.2312800E-03 Eh
 * total energy  :   -99.3257116 Eh     change       -0.2083278E-03 Eh
 * total energy  :   -99.3259234 Eh     change       -0.2117767E-03 Eh
 * total energy  :   -99.3260932 Eh     change       -0.1698249E-03 Eh
 * total energy  :   -99.3262559 Eh     change       -0.1627274E-03 Eh
 * total energy  :   -99.3263781 Eh     change       -0.1221928E-03 Eh
 * total energy  :   -99.3264461 Eh     change       -0.6793152E-04 Eh
 * total energy  :   -99.3264967 Eh     change       -0.5060911E-04 Eh
 * total energy  :   -99.3265461 Eh     change       -0.4939230E-04 Eh
   *** GEOMETRY OPTIMIZATION CONVERGED AFTER 46 ITERATIONS ***

 final structure:
================
72
 xtb: 6.6.1 (8d0f1dd)
N           -2.37902285649304        3.06060704152297        2.62371909806539
C           -2.20138111052756        2.19387709571575        1.74121927066051
C           -3.13275268024282        1.97516041830122        0.57872935438899
C           -3.67880359273791        0.55894841363611        0.63561499924559
C           -4.34171979698765        0.02741176442462       -0.46839243639299
C           -4.81574633937303       -1.27586229069423       -0.46820176841991
O           -5.42564121197560       -1.87807047716344       -1.51031190373747
C           -5.68733791530189       -1.16184102728508       -2.66893135563309
C           -4.64059128123573       -2.08784459497624        0.68473952847515
O           -5.10902021731128       -3.34505191353929        0.58598760513758
C           -4.97146167747159       -4.21694453259629        1.68234021065843
C           -4.01544850754538       -1.53634498390809        1.79395760918947
C           -3.54394296753801       -0.23297742635974        1.76823698011441
C           -2.22745036756553        2.13727545373437       -0.68969369924026
C           -1.38053109766117        0.93458122327101       -0.93839275509476
C           -0.08290869336074        0.86308879429208       -0.58448413738693
N            0.71116362620706       -0.23133082539920       -0.68561657632685
C            2.10534282150128       -0.17369347751325       -0.34701265419141
C            3.02875657491557       -0.19779557958066       -1.58422509955453
C            4.45459026766782       -0.03158326691157       -1.14771110694237
C            5.11409239852460        1.17905933968609       -1.30514465051503
C            6.41411072283607        1.34574529032694       -0.85629423027119
C            7.08271976873025        0.30560800891666       -0.22389831778955
O            8.33254583225007        0.35789473678907        0.26533409567095
C            9.06872351208092        1.55491699600811        0.15621994108910
C            6.41599229887662       -0.94313153788098       -0.05880551015575
O            7.13456679883343       -1.89593121246173        0.56212027952423
C            6.56296955008094       -3.16373537785564        0.78209496919810
C            5.11854400171036       -1.08694924051361       -0.52608241362035
C            0.19345494100852       -1.46059540825904       -1.22793233888091
C           -4.32225482035508        2.97243592624282        0.52972363031192
C           -5.24110977175293        2.79976863781617        1.73713820353658
C           -3.88143690245671        4.42837360723045        0.41718949282006
H           -4.47384466505589        0.63698251477534       -1.34611786954024
H           -6.25620049238234       -0.24609620413655       -2.49202297566858
H           -6.21329129420537       -1.83161990143095       -3.34513101045220
H           -4.67981420442366       -0.84892717407783       -3.18002751128639
H           -5.51417450084853       -3.84937323489476        2.55687262495914
H           -5.40346596008529       -5.16283850889597        1.36113998403791
H           -3.92017424376764       -4.36775289547194        1.94226046295843
H           -3.89082339948279       -2.11834640100651        2.69195838703890
H           -3.07747352217766        0.16503957309235        2.65541034167768
H           -2.87137893804976        2.31206094248727       -1.55166359347216
H           -1.59812765998537        3.01569913227800       -0.54712619778172
H           -3.44540096718569       -0.46786699806770       -3.55829501724690
H           -1.87612214522056        0.09016807567707       -1.38863457760966
H           -1.32832298458138        1.52474209858342        1.70685452066680
H            0.40641591528246        1.73202033845739       -0.16099059043753
H            2.35445735868432       -1.02429081461517        0.29538531908297
H            2.29895013511710        0.74172106870597        0.21478273044064
H            2.74348034361460        0.61186700942973       -2.25611470436356
H            2.90315997735270       -1.14349922277369       -2.11252185703301
H            4.61586480290456        2.00368689643282       -1.79091815272717
H            6.90190274261711        2.29545038033812       -1.00275659198613
H            8.56856907023155        2.38031272183775        0.67175525744162
H            9.23824955792663        1.82571086816178       -0.89017636219289
H           10.02471415854036        1.35493592332912        0.63686574558710
H            7.32770851064629       -3.74373769801069        1.29484339576465
H            5.67348287004250       -3.09736302051811        1.41666746959642
H            6.30556598503170       -3.65695528893533       -0.16001845108361
H            4.61092311430175       -2.03250236172978       -0.41657299209957
H           -0.05604843514352       -1.35554062329291       -2.28743173311240
H           -0.71144069993571       -1.75646346817599       -0.69068045869871
H            0.93443087208421       -2.24839914571442       -1.11871938666347
H           -4.89867394117945        2.72210624843685       -0.36903461981912
H           -4.70911685884652        3.05512385992402        2.64842830859143
H           -5.60212977786482        1.77678058836046        1.81281419169591
H           -6.09832718526500        3.46055987424923        1.64095299163137
H           -3.29263465913434        4.70984043750796        1.28452240785451
H           -3.30133050647522        4.60713408870403       -0.48404791900469
H           -4.76107232981873        5.06634356410962        0.38045276374578
H           -1.68098175357990        3.15235670428395        3.35506619812165

          :  Hamiltonian                  GFN2-xTB          :
         :: total energy             -99.326546075725 Eh    ::
         :: gradient norm              0.003649866491 Eh/a0 ::
         :: HOMO-LUMO gap              0.693082164657 eV    ::
         :: SCC energy              -100.712691386928 Eh    ::
         :: -> dispersion             -0.074161071814 Eh    ::
         :: repulsion energy           1.384926145869 Eh    ::

    * Orbital Energies and Occupations

         #    Occupation            Energy/Eh            Energy/eV
      -------------------------------------------------------------
         1        2.0000           -0.8219634             -22.3668
       ...           ...                  ...                  ...
        78        1.9968           -0.5310794             -14.4514
        79        1.9966           -0.5302140             -14.4279
        80        1.9955           -0.5257534             -14.3065
        81        1.9948           -0.5234601             -14.2441
        82        1.9920           -0.5167216             -14.0607
        83        1.9908           -0.5144129             -13.9979
        84        1.9892           -0.5118641             -13.9285
        85        1.9731           -0.4972870             -13.5319
        86        1.9649           -0.4930105             -13.4155
        87        1.8785           -0.4726106             -12.8604
        88        1.8483           -0.4688479             -12.7580
        89        1.7816           -0.4624942             -12.5851
        90        1.6433           -0.4534482             -12.3390 (HOMO)
        91        0.9596           -0.4279779             -11.6459 (LUMO)
        92        0.0068           -0.3392912              -9.2326
        93        0.0021           -0.3209774              -8.7342
        94        0.0018           -0.3178474              -8.6491
        95        0.0017           -0.3174589              -8.6385
        96        0.0014           -0.3146161              -8.5611
        97        0.0004           -0.2940292              -8.0009
        98        0.0000           -0.1956218              -5.3231
        99        0.0000           -0.1920784              -5.2267
       100                         -0.1101402              -2.9971
       101                         -0.0658275              -1.7913
       ...                                ...                  ...
       171                          0.5706806              15.5290
      -------------------------------------------------------------
                  HL-Gap            0.0254703 Eh            0.6931 eV

     #   Z          covCN         q      C6AA      α(0)
     1   7 N        1.774    -0.260    27.583     7.777
     2   6 C        2.829     0.104    25.687     8.305
     3   6 C        3.908     0.011    20.340     6.410
     4   6 C        2.975     0.011    27.769     8.644
     5   6 C        2.920    -0.070    29.742     8.943
     6   6 C        2.866     0.128    25.198     8.228
     7   8 O        1.707    -0.199    17.321     5.619
     8   6 C        3.628     0.026    20.551     6.529
     9   6 C        2.864     0.134    25.068     8.207
    10   8 O        1.706    -0.220    17.658     5.674
    11   6 C        3.646     0.024    20.493     6.505
    12   6 C        2.914    -0.068    29.696     8.936
    13   6 C        2.922    -0.043    29.077     8.843
    14   6 C        3.816    -0.060    21.643     6.621
    15   6 C        2.891    -0.066    29.645     8.927
    16   6 C        2.842     0.009    27.799     8.641
    17   7 N        2.733    -0.034    21.901     6.950
    18   6 C        3.752    -0.008    20.779     6.501
    19   6 C        3.807    -0.072    21.872     6.658
    20   6 C        2.969     0.008    27.832     8.653
    21   6 C        2.922    -0.044    29.085     8.844
    22   6 C        2.913    -0.065    29.616     8.924
    23   6 C        2.864     0.136    25.028     8.200
    24   8 O        1.706    -0.214    17.549     5.656
    25   6 C        3.645     0.023    20.527     6.512
    26   6 C        2.862     0.136    25.031     8.201
    27   8 O        1.706    -0.217    17.608     5.665
    28   6 C        3.645     0.025    20.488     6.506
    29   6 C        2.919    -0.077    29.928     8.971
    30   6 C        3.699    -0.060    21.819     6.680
    31   6 C        3.852    -0.007    20.664     6.465
    32   6 C        3.756    -0.118    22.809     6.810
    33   6 C        3.755    -0.119    22.843     6.815
    34   1 H        0.926     0.063     2.165     2.301
    35   1 H        0.924     0.063     2.166     2.302
    36   1 H        0.925     0.089     1.884     2.146
    37   1 H        0.903     0.106     1.738     2.062
    38   1 H        0.924     0.059     2.211     2.325
    39   1 H        0.925     0.084     1.940     2.178
    40   1 H        0.924     0.053     2.279     2.361
    41   1 H        0.926     0.060     2.201     2.320
    42   1 H        0.926     0.049     2.330     2.387
    43   1 H        0.925     0.064     2.151     2.293
    44   1 H        0.925     0.052     2.292     2.367
    45   1 H        0.000    -0.139    17.821     7.719
    46   1 H        0.926     0.049     2.328     2.386
    47   1 H        0.923     0.018     2.762     2.599
    48   1 H        0.925     0.051     2.311     2.377
    49   1 H        0.924     0.057     2.240     2.341
    50   1 H        0.924     0.060     2.200     2.319
    51   1 H        0.925     0.058     2.226     2.333
    52   1 H        0.924     0.058     2.218     2.329
    53   1 H        0.926     0.054     2.265     2.353
    54   1 H        0.926     0.063     2.169     2.303
    55   1 H        0.924     0.058     2.222     2.331
    56   1 H        0.924     0.060     2.195     2.317
    57   1 H        0.925     0.085     1.925     2.170
    58   1 H        0.925     0.085     1.932     2.174
    59   1 H        0.924     0.052     2.293     2.368
    60   1 H        0.924     0.057     2.240     2.340
    61   1 H        0.926     0.051     2.305     2.374
    62   1 H        0.924     0.069     2.098     2.265
    63   1 H        0.924     0.064     2.155     2.296
    64   1 H        0.925     0.069     2.101     2.267
    65   1 H        0.924     0.041     2.435     2.440
    66   1 H        0.925     0.069     2.094     2.263
    67   1 H        0.925     0.036     2.506     2.476
    68   1 H        0.925     0.054     2.266     2.354
    69   1 H        0.925     0.067     2.119     2.277
    70   1 H        0.925     0.040     2.447     2.446
    71   1 H        0.925     0.056     2.248     2.345
    72   1 H        0.860     0.162     1.319     1.799

Wiberg/Mayer (AO) data.
largest (>0.10) Wiberg bond orders for each atom

     #   Z sym  total        # sym  WBO       # sym  WBO       # sym  WBO
 ---------------------------------------------------------------------------
     1   7 N    3.006 --     2 C    1.954    72 H    0.938
     2   6 C    3.937 --     1 N    1.954     3 C    0.991    47 H    0.926
     3   6 C    3.946 --     2 C    0.991     4 C    0.974    31 C    0.947
                            14 C    0.915
     4   6 C    3.936 --    13 C    1.397     5 C    1.380     3 C    0.974
     5   6 C    3.944 --     6 C    1.390     4 C    1.380    34 H    0.956
     6   6 C    3.893 --     5 C    1.390     9 C    1.218     7 O    1.093
     7   8 O    2.279 --     6 C    1.093     8 C    1.014
     8   6 C    3.731 --     7 O    1.014    36 H    0.968    35 H    0.962
                            37 H    0.738
     9   6 C    3.883 --    12 C    1.378     6 C    1.218    10 O    1.112
    10   8 O    2.251 --     9 C    1.112    11 C    0.975
    11   6 C    3.926 --    39 H    0.976    10 O    0.975    40 H    0.973
                            38 H    0.972
    12   6 C    3.954 --    13 C    1.420     9 C    1.378    41 H    0.962
    13   6 C    3.931 --    12 C    1.420     4 C    1.397    42 H    0.961
    14   6 C    3.979 --    15 C    1.041    44 H    0.968    43 H    0.956
                             3 C    0.915
    15   6 C    3.782 --    16 C    1.652    14 C    1.041    46 H    0.959
    16   6 C    3.924 --    15 C    1.652    17 N    1.223    48 H    0.954
    17   7 N    3.366 --    16 C    1.223    30 C    1.007    18 C    1.006
    18   6 C    3.960 --    17 N    1.006    50 H    0.969    19 C    0.963
                            49 H    0.962
    19   6 C    3.971 --    20 C    1.014    51 H    0.973    52 H    0.966
                            18 C    0.963
    20   6 C    3.925 --    21 C    1.394    29 C    1.380    19 C    1.014
    21   6 C    3.929 --    22 C    1.423    20 C    1.394    53 H    0.967
    22   6 C    3.948 --    21 C    1.423    23 C    1.374    54 H    0.962
    23   6 C    3.873 --    22 C    1.374    26 C    1.206    24 O    1.119
    24   8 O    2.249 --    23 C    1.119    25 C    0.974
    25   6 C    3.923 --    57 H    0.976    24 O    0.974    55 H    0.971
                            56 H    0.971
    26   6 C    3.880 --    29 C    1.390    23 C    1.206    27 O    1.112
    27   8 O    2.250 --    26 C    1.112    28 C    0.977
    28   6 C    3.928 --    27 O    0.977    58 H    0.976    59 H    0.972
                            60 H    0.972
    29   6 C    3.950 --    26 C    1.390    20 C    1.380    61 H    0.962
    30   6 C    3.964 --    17 N    1.007    64 H    0.979    63 H    0.969
                            62 H    0.967
    31   6 C    3.966 --    33 C    1.008    32 C    1.005    65 H    0.956
                             3 C    0.947
    32   6 C    3.969 --    31 C    1.005    67 H    0.981    68 H    0.980
                            66 H    0.971
    33   6 C    3.971 --    31 C    1.008    70 H    0.981    71 H    0.978
                            69 H    0.971
    34   1 H    0.994 --     5 C    0.956
    35   1 H    0.985 --     8 C    0.962
    36   1 H    0.987 --     8 C    0.968
    37   1 H    0.982 --     8 C    0.738    45 H    0.230
    38   1 H    0.990 --    11 C    0.972
    39   1 H    0.992 --    11 C    0.976
    40   1 H    0.991 --    11 C    0.973
    41   1 H    0.994 --    12 C    0.962
    42   1 H    0.996 --    13 C    0.961
    43   1 H    0.987 --    14 C    0.956
    44   1 H    0.994 --    14 C    0.968
    45   1 H    0.299 --    37 H    0.230
    46   1 H    0.997 --    15 C    0.959
    47   1 H    0.973 --     2 C    0.926
    48   1 H    0.997 --    16 C    0.954
    49   1 H    0.987 --    18 C    0.962
    50   1 H    0.996 --    18 C    0.969
    51   1 H    0.995 --    19 C    0.973
    52   1 H    0.993 --    19 C    0.966
    53   1 H    0.996 --    21 C    0.967
    54   1 H    0.994 --    22 C    0.962
    55   1 H    0.989 --    25 C    0.971
    56   1 H    0.988 --    25 C    0.971
    57   1 H    0.992 --    25 C    0.976
    58   1 H    0.992 --    28 C    0.976
    59   1 H    0.991 --    28 C    0.972
    60   1 H    0.990 --    28 C    0.972
    61   1 H    0.996 --    29 C    0.962
    62   1 H    0.982 --    30 C    0.967
    63   1 H    0.986 --    30 C    0.969
    64   1 H    0.995 --    30 C    0.979
    65   1 H    0.986 --    31 C    0.956
    66   1 H    0.988 --    32 C    0.971
    67   1 H    0.995 --    32 C    0.981
    68   1 H    0.992 --    32 C    0.980
    69   1 H    0.989 --    33 C    0.971
    70   1 H    0.995 --    33 C    0.981
    71   1 H    0.991 --    33 C    0.978
    72   1 H    0.964 --     1 N    0.938
 ---------------------------------------------------------------------------

molecular dipole:
                 x           y           z       tot (Debye)
 q only:        0.896      -0.282       0.216
   full:        1.144      -0.439       0.233       3.170

           -------------------------------------------------
          | TOTAL ENERGY              -99.326546075725 Eh   |
          | GRADIENT NORM               0.003649866491 Eh/α |
          | HOMO-LUMO GAP               0.693082164657 eV   |
           -------------------------------------------------

 * finished run on 2024/04/06 at 11:13:32.030
