   * xtb version 6.6.1 (8d0f1dd) compiled by 'conda@1efc2f54142f' on 2023-08-01
          program call               : xtb struc.xyz --opt loose --input .xc1 --gfn2

   ID    Z sym.   atoms
    1    6 C      1, 3, 5-7, 10, 11, 14
    2    7 N      2, 4, 9, 13
    3    8 O      8, 12
    4    1 H      15-25
constraining bond 11 23 to    3.7133300 Å, actual value:    3.1827480 Å

          :  Hamiltonian                  GFN2-xTB          :
 * total energy  :   -42.7505167 Eh     change       -0.6650680E-10 Eh
 * total energy  :   -44.9377463 Eh     change       -0.2187230E+01 Eh
 * total energy  :   -48.7864559 Eh     change       -0.3848710E+01 Eh
 * total energy  :   -54.4705775 Eh     change       -0.5684122E+01 Eh
 * total energy  :   -58.0751425 Eh     change       -0.3604565E+01 Eh
 * total energy  :   -57.9497515 Eh     change        0.1253910E+00 Eh
 * total energy  :   -58.9030129 Eh     change       -0.9532614E+00 Eh
 * total energy  :   -58.0581791 Eh     change        0.8448338E+00 Eh
 * total energy  :   -59.2927713 Eh     change       -0.1234592E+01 Eh
 * total energy  :   -59.3734971 Eh     change       -0.8072575E-01 Eh
 * total energy  :   -59.7389025 Eh     change       -0.1320403E-03 Eh
 * total energy  :   -59.7389392 Eh     change       -0.3661589E-04 Eh
 * total energy  :   -59.7389997 Eh     change       -0.6054778E-04 Eh
 * total energy  :   -59.7390281 Eh     change       -0.2838622E-04 Eh
 * total energy  :   -59.7390589 Eh     change       -0.3081488E-04 Eh
 * total energy  :   -59.7390175 Eh     change        0.4146173E-04 Eh
 * total energy  :   -59.7390632 Eh     change       -0.4576638E-04 Eh
 * total energy  :   -59.7391174 Eh     change       -0.5415035E-04 Eh
 * total energy  :   -59.7391368 Eh     change       -0.1945674E-04 Eh
   *** GEOMETRY OPTIMIZATION CONVERGED AFTER 71 ITERATIONS ***

 final structure:
================
25
 xtb: 6.6.1 (8d0f1dd)
C            2.98544823726020        1.09592542982185       -0.24498730651005
N            2.15312431472645       -0.05797844128330       -0.02832749722333
C            2.59196670843826       -1.29907051931067        0.11201502296634
N            1.55285159219880       -2.12345346794784        0.28791909670535
C            0.38590109044275       -1.38639520250309        0.22969630597139
C            0.77807110555801       -0.06568088778140        0.00577604860178
C           -0.03436284101699        1.17784897911029        0.10623330083127
O            0.43057676838918        2.17782384806258        0.60922389310978
N           -1.32715516782363        1.08237055389533       -0.33195026573246
C           -2.27109361449267        2.12182149545645        0.01597166604495
C           -1.74591334992036        0.02455180760912       -1.24959989861146
O           -2.94332360726733        0.05505945434695       -1.52167696960749
N           -0.86959056281271       -1.86131613295748        0.27553344915945
C           -1.30345510219249       -2.87192498027086        0.90870629233209
H            3.98645389409167        0.90337022562269        0.13456923030932
H            3.04466819371941        1.32296399381608       -1.31110566440507
H            2.55216740561730        1.95478048496834        0.26889730480991
H            3.62228381010588       -1.59892662896606        0.08567343691227
H           -1.82419284160615        2.77967514776638        0.75645602273675
H           -2.54253353528157        2.69371333341858       -0.87215869554253
H           -3.17489299572810        1.65490993994523        0.40696548405313
H           -0.72360190372054       -3.46578446734465        1.61356865061241
H           -1.43550757046142       -0.23165390931001       -1.38412150406059
H           -2.33776533476920       -3.13852522428633        0.75530855303865
H            1.61030682064637       -3.12586629027899        0.40258566139862

          :  Hamiltonian                  GFN2-xTB          :
         :: total energy             -59.739136824213 Eh    ::
         :: gradient norm              0.001426442892 Eh/a0 ::
         :: HOMO-LUMO gap              2.423901762821 eV    ::
         :: SCC energy               -42.700792669080 Eh    ::
         :: -> dispersion             -0.022381134413 Eh    ::
         :: repulsion energy           2.276036136460 Eh    ::

    * Orbital Energies and Occupations

         #    Occupation            Energy/Eh            Energy/eV
      -------------------------------------------------------------
         1        2.0000           -0.9127209             -24.8364
       ...           ...                  ...                  ...
        25        2.0000           -0.6652668             -18.1028
        26        1.9999           -0.6615757             -18.0024
        27        1.9999           -0.6549931             -17.8233
        28        1.9999           -0.6481785             -17.6378
        29        1.9997           -0.6379024             -17.3582
        30        1.9994           -0.6259452             -17.0328
        31        1.9990           -0.6171344             -16.7931
        32        1.9963           -0.5963627             -16.2279
        33        1.9959           -0.5948505             -16.1867
        34        1.9812           -0.5706750             -15.5289
        35        1.9607           -0.5588434             -15.2069
        36        1.9492           -0.5546825             -15.0937
        37        1.9196           -0.5471654             -14.8891 (HOMO)
        38        0.1584           -0.4580887             -12.4652 (LUMO)
        39        0.0341           -0.4327198             -11.7749
        40        0.0063           -0.4057563             -11.0412
        41        0.0006           -0.3687996             -10.0355
        42        0.0000           -0.3225806              -8.7779
        43                         -0.1914670              -5.2101
        44                         -0.1743863              -4.7453
        45                         -0.1369106              -3.7255
        46                         -0.0807364              -2.1969
        47                         -0.0542935              -1.4774
        48                         -0.0456656              -1.2426
       ...                                ...                  ...
        67                         10.6206041             289.0013
      -------------------------------------------------------------
                  HL-Gap            0.0890768 Eh            2.4239 eV

     #   Z          covCN         q      C6AA      α(0)
     1   6 C        3.693    -0.096    22.524     6.791
     2   7 N        2.844     0.089    19.706     6.593
     3   6 C        3.030     0.061    26.601     8.460
     4   7 N        2.802    -0.060    22.401     7.029
     5   6 C        3.019     0.122    25.298     8.250
     6   6 C        3.090    -0.016    28.300     8.720
     7   6 C        2.762     0.273    22.380     7.747
     8   8 O        0.859    -0.358    20.868     6.125
     9   7 N        2.739    -0.087    22.944     7.114
    10   6 C        3.696    -0.061    21.856     6.687
    11   6 C        2.703     0.191    23.918     8.005
    12   8 O        0.867    -0.301    19.805     5.967
    13   7 N        1.825    -0.159    25.234     7.443
    14   6 C        2.792     0.038    27.131     8.532
    15   1 H        0.925     0.103     1.759     2.074
    16   1 H        0.924     0.109     1.704     2.041
    17   1 H        0.924     0.142     1.447     1.881
    18   1 H        0.926     0.125     1.575     1.963
    19   1 H        0.925     0.104     1.752     2.070
    20   1 H        0.924     0.100     1.781     2.087
    21   1 H        0.925     0.105     1.742     2.064
    22   1 H        0.925     0.069     2.096     2.264
    23   1 H        0.946     0.164     1.299     1.781
    24   1 H        0.926     0.118     1.632     1.998
    25   1 H        0.860     0.227     0.977     1.548

Wiberg/Mayer (AO) data.
largest (>0.10) Wiberg bond orders for each atom

     #   Z sym  total        # sym  WBO       # sym  WBO       # sym  WBO
 ---------------------------------------------------------------------------
     1   6 C    3.913 --     2 N    0.985    15 H    0.972    16 H    0.953
                            17 H    0.949
     2   7 N    3.712 --     3 C    1.393     6 C    1.186     1 C    0.985
     3   6 C    3.906 --     2 N    1.393     4 N    1.321    18 H    0.950
     4   7 N    3.596 --     3 C    1.321     5 C    1.148    25 H    0.920
     5   6 C    3.917 --     6 C    1.376    13 N    1.211     4 N    1.148
     6   6 C    3.881 --     5 C    1.376     2 N    1.186     7 C    0.996
     7   6 C    3.940 --     8 O    1.687     9 N    1.171     6 C    0.996
     8   8 O    2.019 --     7 C    1.687     9 N    0.142
     9   7 N    3.532 --     7 C    1.171    11 C    1.043    10 C    0.986
                            12 O    0.150     8 O    0.142
    10   6 C    3.911 --     9 N    0.986    19 H    0.969    21 H    0.955
                            20 H    0.954
    11   6 C    3.904 --    12 O    1.823     9 N    1.043    23 H    0.956
    12   8 O    2.061 --    11 C    1.823     9 N    0.150
    13   7 N    3.159 --    14 C    1.782     5 C    1.211
    14   6 C    3.806 --    13 N    1.782    24 H    0.956    22 H    0.949
    15   1 H    0.988 --     1 C    0.972
    16   1 H    0.986 --     1 C    0.953
    17   1 H    0.979 --     1 C    0.949
    18   1 H    0.984 --     3 C    0.950
    19   1 H    0.986 --    10 C    0.969
    20   1 H    0.976 --    10 C    0.954
    21   1 H    0.977 --    10 C    0.955
    22   1 H    0.984 --    14 C    0.949
    23   1 H    0.969 --    11 C    0.956
    24   1 H    0.981 --    14 C    0.956
    25   1 H    0.948 --     4 N    0.920
 ---------------------------------------------------------------------------

molecular dipole:
                 x           y           z       tot (Debye)
 q only:        2.501      -1.982       0.201
   full:        2.940      -2.610       0.370      10.037

           -------------------------------------------------
          | TOTAL ENERGY              -59.739136824213 Eh   |
          | GRADIENT NORM               0.001426442892 Eh/α |
          | HOMO-LUMO GAP               2.423901762821 eV   |
           -------------------------------------------------

 * finished run on 2024/06/05 at 20:00:19.839
