   * xtb version 6.6.1 (8d0f1dd) compiled by 'conda@1efc2f54142f' on 2023-08-01
          program call               : xtb struc.xyz --opt loose --input .xc1 --gfn2

   ID    Z sym.   atoms
    1    6 C      1, 3, 5-7, 10, 11, 14
    2    7 N      2, 4, 9, 13
    3    8 O      8, 12
    4    1 H      15-25
constraining bond 2 15 to    2.6866700 Å, actual value:    2.0850972 Å

          :  Hamiltonian                  GFN2-xTB          :
 * total energy  :   -42.8914494 Eh     change       -0.6633627E-10 Eh
 * total energy  :   -45.2123134 Eh     change       -0.2320864E+01 Eh
 * total energy  :   -48.8920457 Eh     change       -0.3679732E+01 Eh
 * total energy  :   -18.8789812 Eh     change        0.3001306E+02 Eh
 * total energy  :   -47.8865106 Eh     change       -0.2900753E+02 Eh
 * total energy  :   -47.9521807 Eh     change       -0.6567015E-01 Eh
 * total energy  :   -48.1825030 Eh     change       -0.2303223E+00 Eh
 * total energy  :   -48.4163106 Eh     change       -0.2338077E+00 Eh
 * total energy  :   -48.9537479 Eh     change       -0.5374372E+00 Eh
 * total energy  :   -49.2062976 Eh     change       -0.2525497E+00 Eh
 * total energy  :   -49.6325529 Eh     change       -0.7812382E-04 Eh
 * total energy  :   -49.6326577 Eh     change       -0.1048784E-03 Eh
 * total energy  :   -49.6327457 Eh     change       -0.8795932E-04 Eh
 * total energy  :   -49.6328748 Eh     change       -0.1290787E-03 Eh
 * total energy  :   -49.6329354 Eh     change       -0.6062330E-04 Eh
 * total energy  :   -49.6329971 Eh     change       -0.6172109E-04 Eh
 * total energy  :   -49.6322702 Eh     change        0.7269130E-03 Eh
 * total energy  :   -49.6330389 Eh     change       -0.7687221E-03 Eh
 * total energy  :   -49.6330499 Eh     change       -0.1093712E-04 Eh
   *** GEOMETRY OPTIMIZATION CONVERGED AFTER 70 ITERATIONS ***

 final structure:
================
25
 xtb: 6.6.1 (8d0f1dd)
C            2.96821325655626        1.59064921505888       -0.29776626277645
N            2.41903194336708        0.55535027742988        0.28518095108116
C            2.70471005590464       -1.89196302579981       -0.07071923000210
N            1.42397765702749       -2.06672086439218        0.05733316184322
C            0.54451280844573       -0.97596384081694        0.07478881175603
C            1.03600243348389        0.30632795542250        0.10149253652914
C            0.12735678664137        1.45976469923300        0.06326732064175
O            0.52576654423172        2.60037733518168        0.05683457760756
N           -1.20769895113018        1.12089258293978        0.07622476027420
C           -2.19380253303829        2.19555760236291        0.08656563982688
C           -1.72656026230552       -0.15192823853572        0.04671433219389
O           -2.90104719828005       -0.37792768841688        0.02983277333965
N           -0.78309239397943       -1.21042088944423        0.02575653540465
C           -1.33015244125486       -2.55358606553751       -0.08096259670765
H            2.67339720763740        0.26013249110414        0.59382506080018
H            3.98457566747953        1.83088554204640       -0.02147888759499
H            2.46313704077082        2.20365531365354       -1.02499383236438
H            3.27328176329212       -2.82345590962844       -0.04198504286114
H           -1.66368153283602        3.14151610890325        0.15791687691884
H           -2.78575358884293        2.16213252604273       -0.82725509894124
H           -2.86127245886448        2.06668215817993        0.93706809150823
H           -1.09854527831997       -3.14555194126897        0.80602320906441
H           -0.97809542441420       -3.05008321908393       -0.98572912612887
H           -2.41401449432870       -2.44962162466263       -0.14350081972271
H            0.96018490685708       -2.97846195837070        0.12673787621219

          :  Hamiltonian                  GFN2-xTB          :
         :: total energy             -49.633049876335 Eh    ::
         :: gradient norm              0.002749787465 Eh/a0 ::
         :: HOMO-LUMO gap              1.471100830080 eV    ::
         :: SCC energy               -42.640300202346 Eh    ::
         :: -> dispersion             -0.022876096192 Eh    ::
         :: repulsion energy           1.567270810889 Eh    ::

    * Orbital Energies and Occupations

         #    Occupation            Energy/Eh            Energy/eV
      -------------------------------------------------------------
         1        2.0000           -0.8971895             -24.4138
       ...           ...                  ...                  ...
        25        2.0000           -0.6701767             -18.2364
        26        2.0000           -0.6630489             -18.0425
        27        2.0000           -0.6572329             -17.8842
        28        2.0000           -0.6498075             -17.6822
        29        2.0000           -0.6350918             -17.2817
        30        2.0000           -0.6327270             -17.2174
        31        2.0000           -0.6220241             -16.9261
        32        2.0000           -0.6028924             -16.4055
        33        1.9999           -0.5847010             -15.9105
        34        1.9995           -0.5721299             -15.5684
        35        1.9990           -0.5669561             -15.4277
        36        1.9988           -0.5654696             -15.3872
        37        1.9366           -0.5338118             -14.5258 (HOMO)
        38        0.0640           -0.4797498             -13.0547 (LUMO)
        39        0.0022           -0.4528005             -12.3213
        40        0.0000           -0.3968290             -10.7983
        41        0.0000           -0.3819400             -10.3931
        42                         -0.2973733              -8.0919
        43                         -0.2089624              -5.6862
        44                         -0.1726954              -4.6993
        45                         -0.1327377              -3.6120
        46                         -0.1277650              -3.4767
        47                         -0.0899036              -2.4464
        48                         -0.0354051              -0.9634
       ...                                ...                  ...
        67                          3.8212443             103.9814
      -------------------------------------------------------------
                  HL-Gap            0.0540620 Eh            1.4711 eV

     #   Z          covCN         q      C6AA      α(0)
     1   6 C        2.853    -0.006    28.172     8.699
     2   7 N        2.689     0.009    21.099     6.822
     3   6 C        1.867    -0.140    35.094     9.569
     4   7 N        2.688    -0.018    21.599     6.902
     5   6 C        2.861     0.125    25.248     8.236
     6   6 C        2.938    -0.035    28.868     8.812
     7   6 C        2.769     0.269    22.453     7.760
     8   8 O        0.859    -0.370    21.088     6.157
     9   7 N        2.741    -0.074    22.682     7.073
    10   6 C        3.709    -0.064    21.877     6.685
    11   6 C        2.723     0.318    21.599     7.608
    12   8 O        0.859    -0.353    20.766     6.110
    13   7 N        2.745    -0.058    22.358     7.023
    14   6 C        3.698    -0.074    22.096     6.723
    15   1 H        0.941     0.271     0.799     1.397
    16   1 H        0.926     0.140     1.464     1.892
    17   1 H        0.926     0.159     1.333     1.806
    18   1 H        0.924     0.085     1.926     2.170
    19   1 H        0.925     0.113     1.671     2.022
    20   1 H        0.925     0.099     1.792     2.093
    21   1 H        0.925     0.101     1.780     2.086
    22   1 H        0.924     0.086     1.922     2.168
    23   1 H        0.924     0.085     1.924     2.169
    24   1 H        0.924     0.134     1.508     1.920
    25   1 H        0.859     0.198     1.115     1.654

Wiberg/Mayer (AO) data.
largest (>0.10) Wiberg bond orders for each atom

     #   Z sym  total        # sym  WBO       # sym  WBO       # sym  WBO
 ---------------------------------------------------------------------------
     1   6 C    3.830 --     2 N    1.598    16 H    0.956    17 H    0.956
     2   7 N    3.663 --     1 C    1.598     6 C    1.053    15 H    0.897
     3   6 C    2.829 --     4 N    1.595    18 H    0.949
     4   7 N    3.660 --     3 C    1.595     5 C    1.082    25 H    0.892
     5   6 C    3.954 --     6 C    1.444    13 N    1.243     4 N    1.082
     6   6 C    3.920 --     5 C    1.444     2 N    1.053     7 C    1.043
     7   6 C    3.965 --     8 O    1.685     9 N    1.132     6 C    1.043
     8   8 O    2.088 --     7 C    1.685     9 N    0.148
     9   7 N    3.589 --     7 C    1.132    11 C    1.129    10 C    0.962
                             8 O    0.148    12 O    0.141
    10   6 C    3.917 --    19 H    0.970    21 H    0.967    20 H    0.966
                             9 N    0.962
    11   6 C    3.960 --    12 O    1.722     9 N    1.129    13 N    1.021
    12   8 O    2.083 --    11 C    1.722     9 N    0.141    13 N    0.118
    13   7 N    3.586 --     5 C    1.243    11 C    1.021    14 C    0.975
                            12 O    0.118
    14   6 C    3.922 --    13 N    0.975    23 H    0.969    22 H    0.965
                            24 H    0.957
    15   1 H    0.926 --     2 N    0.897
    16   1 H    0.980 --     1 C    0.956
    17   1 H    0.975 --     1 C    0.956
    18   1 H    0.982 --     3 C    0.949
    19   1 H    0.987 --    10 C    0.970
    20   1 H    0.989 --    10 C    0.966
    21   1 H    0.989 --    10 C    0.967
    22   1 H    0.989 --    14 C    0.965
    23   1 H    0.990 --    14 C    0.969
    24   1 H    0.981 --    14 C    0.957
    25   1 H    0.954 --     4 N    0.892
 ---------------------------------------------------------------------------

molecular dipole:
                 x           y           z       tot (Debye)
 q only:        2.293      -0.980       0.048
   full:        2.335      -1.755       0.172       7.437

           -------------------------------------------------
          | TOTAL ENERGY              -49.633049876335 Eh   |
          | GRADIENT NORM               0.002749787465 Eh/α |
          | HOMO-LUMO GAP               1.471100830080 eV   |
           -------------------------------------------------

 * finished run on 2024/06/05 at 19:58:10.541
