   * xtb version 6.6.1 (8d0f1dd) compiled by 'conda@1efc2f54142f' on 2023-08-01
          program call               : xtb xtbopt.xyz --opt crude --input .xc2 --gfn2

   ID    Z sym.   atoms
    1    6 C      1, 3, 5-7, 10, 11, 14
    2    7 N      2, 4, 9, 13
    3    8 O      8, 12
    4    1 H      15-25
########################################################################
[WARNING] Please study the warnings concerning your input carefully
-1- readin_getIntValue: could not parse ''
########################################################################

          :  Hamiltonian                  GFN2-xTB          :
 * total energy  :   -41.0728853 Eh     change        0.1563194E-12 Eh
 * total energy  :   -42.0626466 Eh     change       -0.9897612E+00 Eh
 * total energy  :   -42.0806504 Eh     change       -0.1800380E-01 Eh
 * total energy  :   -42.0842988 Eh     change       -0.3648461E-02 Eh
 * total energy  :   -42.0857044 Eh     change       -0.1405559E-02 Eh
 * total energy  :   -42.0862444 Eh     change       -0.5400237E-03 Eh
 * total energy  :   -42.0870664 Eh     change       -0.8220282E-03 Eh
 * total energy  :   -42.0882050 Eh     change       -0.1138617E-02 Eh
 * total energy  :   -42.0900130 Eh     change       -0.1807976E-02 Eh
 * total energy  :   -42.0922667 Eh     change       -0.2253692E-02 Eh
 * total energy  :   -42.1300606 Eh     change       -0.9588981E-03 Eh
 * total energy  :   -42.1330889 Eh     change       -0.3028276E-02 Eh
 * total energy  :   -42.1348998 Eh     change       -0.1810922E-02 Eh
 * total energy  :   -42.1359665 Eh     change       -0.1066678E-02 Eh
 * total energy  :   -42.1370102 Eh     change       -0.1043679E-02 Eh
 * total energy  :   -42.1377535 Eh     change       -0.7432602E-03 Eh
 * total energy  :   -42.1382615 Eh     change       -0.5079999E-03 Eh
 * total energy  :   -42.1385157 Eh     change       -0.2542698E-03 Eh
 * total energy  :   -42.1389773 Eh     change       -0.4616150E-03 Eh
   *** GEOMETRY OPTIMIZATION CONVERGED AFTER 29 ITERATIONS ***

 final structure:
================
25
 xtb: 6.6.1 (8d0f1dd)
C            2.96051819149810        1.73965636232931       -0.09954414913149
N            2.32197719246356        0.68982040842426        0.18170771921904
C            2.69944134644238       -1.96045667509409       -0.17198218061269
N            1.41627004113451       -1.95372611484767        0.06815055024706
C            0.54851222060906       -0.88965997016945        0.01822640135625
C            1.01889369354543        0.41302051548747        0.04897733685458
C            0.04666896665151        1.53553055382217        0.12941950062362
O            0.41663566595695        2.68244000855551        0.19206017843671
N           -1.27107259666792        1.15884208881180        0.07800256685161
C           -2.28999934694394        2.20174590128868        0.03774827378329
C           -1.75433379949831       -0.13338922234858        0.02899399091699
O           -2.92467146108117       -0.38526796139204       -0.01325401699062
N           -0.79063486815001       -1.15575414044856        0.03284872732818
C           -1.28704063385599       -2.51945661030703       -0.00511295532378
H            3.19270350188134       -1.14629304231417       -0.66288326669475
H            3.95608246620312        1.84788634874486        0.31564783487125
H            2.58103297355311        2.53562629838852       -0.74102845433710
H            3.27203527813414       -2.82655670404619        0.11937589819571
H           -1.80107184289705        3.16492395934132        0.15417606639507
H           -2.81862102389833        2.15800287507899       -0.91420783914704
H           -3.00823508852621        2.03832775922175        0.83925940689816
H           -1.09249562814632       -3.03715443767426        0.93683913041792
H           -0.86608565515761       -3.06862248714399       -0.84751867574197
H           -2.36841282380638       -2.45967498702105       -0.13492108825005
H            1.00233474465654       -2.81157218508683        0.44019066173625

          :  Hamiltonian                  GFN2-xTB          :
         :: total energy             -42.138977337946 Eh    ::
         :: gradient norm              0.006500250604 Eh/a0 ::
         :: HOMO-LUMO gap              1.233064971174 eV    ::
         :: SCC energy               -42.681450846721 Eh    ::
         :: -> dispersion             -0.022614519582 Eh    ::
         :: repulsion energy           0.542342500071 Eh    ::

    * Orbital Energies and Occupations

         #    Occupation            Energy/Eh            Energy/eV
      -------------------------------------------------------------
         1        2.0000           -0.8932864             -24.3076
       ...           ...                  ...                  ...
        25        2.0000           -0.6685194             -18.1913
        26        2.0000           -0.6652519             -18.1024
        27        2.0000           -0.6612486             -17.9935
        28        2.0000           -0.6379185             -17.3586
        29        2.0000           -0.6310746             -17.1724
        30        2.0000           -0.6294659             -17.1286
        31        2.0000           -0.6192284             -16.8501
        32        2.0000           -0.6013604             -16.3638
        33        1.9999           -0.5914103             -16.0931
        34        1.9993           -0.5753920             -15.6572
        35        1.9967           -0.5628375             -15.3156
        36        1.9967           -0.5627175             -15.3123
        37        1.8955           -0.5350568             -14.5596 (HOMO)
        38        0.1119           -0.4897425             -13.3266 (LUMO)
        39        0.0001           -0.4312567             -11.7351
        40        0.0000           -0.3985923             -10.8462
        41                         -0.3662088              -9.9650
        42                         -0.2859601              -7.7814
        43                         -0.1974522              -5.3729
        44                         -0.1686846              -4.5901
        45                         -0.1301482              -3.5415
        46                         -0.1051806              -2.8621
        47                         -0.0742208              -2.0197
        48                         -0.0304402              -0.8283
       ...                                ...                  ...
        67                          0.5618586              15.2890
      -------------------------------------------------------------
                  HL-Gap            0.0453143 Eh            1.2331 eV

     #   Z          covCN         q      C6AA      α(0)
     1   6 C        2.789     0.038    27.132     8.532
     2   7 N        1.833    -0.096    23.861     7.239
     3   6 C        2.777    -0.022    28.539     8.750
     4   7 N        2.691     0.012    21.047     6.814
     5   6 C        2.848     0.098    25.829     8.329
     6   6 C        2.916     0.028    27.371     8.579
     7   6 C        2.771     0.269    22.453     7.761
     8   8 O        0.859    -0.351    20.734     6.105
     9   7 N        2.740    -0.077    22.734     7.081
    10   6 C        3.710    -0.061    21.818     6.676
    11   6 C        2.722     0.319    21.576     7.604
    12   8 O        0.860    -0.363    20.946     6.136
    13   7 N        2.744    -0.068    22.563     7.055
    14   6 C        3.699    -0.078    22.165     6.733
    15   1 H        0.926     0.136     1.489     1.908
    16   1 H        0.925     0.119     1.625     1.994
    17   1 H        0.924     0.120     1.610     1.984
    18   1 H        0.926     0.130     1.533     1.936
    19   1 H        0.925     0.110     1.698     2.038
    20   1 H        0.925     0.096     1.820     2.110
    21   1 H        0.925     0.101     1.772     2.081
    22   1 H        0.924     0.080     1.979     2.200
    23   1 H        0.925     0.080     1.976     2.199
    24   1 H        0.924     0.135     1.496     1.913
    25   1 H        0.859     0.243     0.910     1.494

Wiberg/Mayer (AO) data.
largest (>0.10) Wiberg bond orders for each atom

     #   Z sym  total        # sym  WBO       # sym  WBO       # sym  WBO
 ---------------------------------------------------------------------------
     1   6 C    3.889 --     2 N    1.810    16 H    0.948    17 H    0.921
     2   7 N    3.334 --     1 C    1.810     6 C    1.274     3 C    0.115
     3   6 C    3.793 --     4 N    1.524    18 H    0.961    15 H    0.951
                             2 N    0.115
     4   7 N    3.668 --     3 C    1.524     5 C    1.135    25 H    0.890
     5   6 C    3.933 --     6 C    1.354    13 N    1.179     4 N    1.135
     6   6 C    3.933 --     5 C    1.354     2 N    1.274     7 C    0.984
     7   6 C    3.954 --     8 O    1.701     9 N    1.149     6 C    0.984
     8   8 O    2.088 --     7 C    1.701     9 N    0.153
     9   7 N    3.580 --     7 C    1.149    11 C    1.109    10 C    0.962
                             8 O    0.153    12 O    0.130
    10   6 C    3.916 --    19 H    0.971    20 H    0.966    21 H    0.966
                             9 N    0.962
    11   6 C    3.961 --    12 O    1.709     9 N    1.109    13 N    1.052
    12   8 O    2.061 --    11 C    1.709     9 N    0.130    13 N    0.127
    13   7 N    3.539 --     5 C    1.179    11 C    1.052    14 C    0.979
                            12 O    0.127
    14   6 C    3.927 --    13 N    0.979    23 H    0.971    22 H    0.964
                            24 H    0.957
    15   1 H    0.981 --     3 C    0.951
    16   1 H    0.980 --     1 C    0.948
    17   1 H    0.971 --     1 C    0.921
    18   1 H    0.982 --     3 C    0.961
    19   1 H    0.987 --    10 C    0.971
    20   1 H    0.988 --    10 C    0.966
    21   1 H    0.987 --    10 C    0.966
    22   1 H    0.989 --    14 C    0.964
    23   1 H    0.990 --    14 C    0.971
    24   1 H    0.981 --    14 C    0.957
    25   1 H    0.940 --     4 N    0.890
 ---------------------------------------------------------------------------

molecular dipole:
                 x           y           z       tot (Debye)
 q only:        2.498      -2.228      -0.111
   full:        2.633      -2.328      -0.139       8.941

           -------------------------------------------------
          | TOTAL ENERGY              -42.138977337946 Eh   |
          | GRADIENT NORM               0.006500250604 Eh/α |
          | HOMO-LUMO GAP               1.233064971174 eV   |
           -------------------------------------------------

 * finished run on 2024/06/05 at 19:58:11.552
