   * xtb version 6.6.1 (8d0f1dd) compiled by 'conda@1efc2f54142f' on 2023-08-01
          program call               : xtb struc.xyz --opt loose --input .xc1 --gfn2

   ID    Z sym.   atoms
    1    7 N      1, 17
    2    6 C      2-6, 8, 9, 11-16, 18-23, 25, 26, 28-33
    3    8 O      7, 10, 24, 27
    4    1 H      34-72
constraining bond 16 64 to    3.7133300 Å, actual value:    3.2814435 Å

          :  Hamiltonian                  GFN2-xTB          :
 * total energy  :   -99.4374357 Eh     change       -0.4035485E-08 Eh
 * total energy  :   -99.5081932 Eh     change       -0.7075745E-01 Eh
 * total energy  :   -99.5812463 Eh     change       -0.7305310E-01 Eh
 * total energy  :   -99.7223504 Eh     change       -0.1411042E+00 Eh
 * total energy  :   -99.9664659 Eh     change       -0.2441155E+00 Eh
 * total energy  :  -100.3509010 Eh     change       -0.3844351E+00 Eh
 * total energy  :   -99.7189741 Eh     change        0.6319269E+00 Eh
 * total energy  :  -100.5272167 Eh     change       -0.8082426E+00 Eh
 * total energy  :  -100.5876619 Eh     change       -0.6044517E-01 Eh
 * total energy  :  -100.6620225 Eh     change       -0.7436056E-01 Eh
 * total energy  :  -100.8155543 Eh     change       -0.1309916E-03 Eh
 * total energy  :  -100.8156714 Eh     change       -0.1171627E-03 Eh
 * total energy  :  -100.8157767 Eh     change       -0.1052948E-03 Eh
 * total energy  :  -100.8158681 Eh     change       -0.9131140E-04 Eh
 * total energy  :  -100.8159496 Eh     change       -0.8149990E-04 Eh
 * total energy  :  -100.8160276 Eh     change       -0.7808348E-04 Eh
 * total energy  :  -100.8160964 Eh     change       -0.6878360E-04 Eh
 * total energy  :  -100.8161525 Eh     change       -0.5609167E-04 Eh
 * total energy  :  -100.8161947 Eh     change       -0.4219549E-04 Eh
   *** GEOMETRY OPTIMIZATION CONVERGED AFTER 89 ITERATIONS ***

 final structure:
================
72
 xtb: 6.6.1 (8d0f1dd)
N           -2.82205697378655        2.25597077765469        2.76419279447707
C           -2.33773396607374        2.49324414114761        1.63239575065682
C           -2.91172781945814        1.94937937237530        0.35150072192476
C           -3.49136698169763        0.54385854691938        0.43715042109763
C           -4.07688300409573       -0.00080111879224       -0.71002742215542
C           -4.60352271194534       -1.28116861870503       -0.72130047318653
O           -5.19358159673862       -1.87435341338068       -1.78029927482311
C           -5.39808137467751       -1.13683990564555       -2.96211757803036
C           -4.53761425973360       -2.07598411152850        0.45522444053534
O           -5.07136425757520       -3.30918303013065        0.35315886798834
C           -5.10235725992065       -4.13847076303808        1.49183988854677
C           -3.94642337995267       -1.53459580449307        1.58567636682996
C           -3.43284915081394       -0.24463992502707        1.57536696799015
C           -1.81271905062412        1.96491189141807       -0.73938233335486
C           -0.87800659906020        0.75206462759911       -0.70437601175712
C           -0.21689748327731        0.58436732119748        0.68767480489635
N            0.58500739381301       -0.63934757732795        0.73536500233378
C            2.02010326227372       -0.54619475650367        0.66240707326456
C            2.53658288847511       -0.31314741590879       -0.77099912632251
C            4.02109055251242       -0.08341246725550       -0.73446298549310
C            4.52494483200593        1.20087482925202       -0.60578526382406
C            5.89051332510619        1.42375168055782       -0.52238249932363
C            6.78224419039973        0.36135634898853       -0.56178570337881
O            8.12197587167425        0.45855145187028       -0.48210683607424
C            8.71258950837420        1.73257599451907       -0.36827251349593
C            6.27452423675165       -0.96116961961121       -0.69896828203580
O            7.20882936144241       -1.93044019584974       -0.73911811650036
C            6.80845233128635       -3.26969415296070       -0.90398575456684
C            4.90454227718649       -1.15909629390201       -0.77729055193550
C           -0.03270580638569       -1.80279561911904        0.80874015940310
C           -4.06830232131894        2.93904901636105       -0.03531912842671
C           -5.26649461627689        2.75891974235410        0.89145769751876
C           -3.62497803481332        4.40181046054668       -0.03637956484019
H           -4.13076829577033        0.58888657633050       -1.60976970047924
H           -5.99803492574461       -0.24086835045661       -2.77739164012957
H           -5.94223568350905       -1.80234742041249       -3.62981584676134
H           -4.44937557862064       -0.85385162030440       -3.43065464695281
H           -5.67262206027716       -3.68026246592499        2.30502530006466
H           -5.59825021829916       -5.05308019934694        1.17328777861878
H           -4.09308205789571       -4.37744288808545        1.84237119637292
H           -3.88884073756646       -2.10733769194576        2.49741660227543
H           -3.01537087546278        0.15097725880550        2.48598946029111
H           -2.27881377168761        1.99471644977751       -1.72443290836757
H           -1.21568419515735        2.87309054520302       -0.63990577959080
H           -1.44475712283975       -0.15303727818706       -0.92666320745055
H           -0.12347192590580        0.87222033821015       -1.48151771565740
H           -1.49531546455370        3.18240282189154        1.47544641068820
H            0.48823175996556        1.42011569298099        0.81829398650458
H            2.45781918427367       -1.46642867027925        1.05249357580301
H            2.35047419696063        0.28350189398711        1.29314249562418
H            2.04917320796730        0.56446097439785       -1.19507041963448
H            2.29176623079267       -1.17988135970754       -1.38573642519588
H            3.85284118037784        2.04537558237800       -0.57856585686899
H            6.25147863071404        2.43461185373457       -0.42832848520958
H            8.39116411428419        2.24418212439254        0.54474591189653
H            8.48488850001588        2.35799444549687       -1.23712807244644
H            9.78550234729697        1.55437121732254       -0.32260679780215
H            7.72937495685186       -3.84964762091204       -0.92460134589263
H            6.18659645124957       -3.60878910467235       -0.06883669015860
H            6.26853853470801       -3.41432557312425       -1.84540094790508
H            4.50894643265730       -2.15674652191882       -0.88507237690188
H            0.53431716639324       -2.71288377623109        0.83924460408577
H           -1.10512366727288       -1.82980144540452        0.86177046601979
H           -0.77386986571053        0.57063392705002        1.24257848644097
H           -4.37804627493882        2.68670361080388       -1.05389004063052
H           -4.96114996980161        2.84976945386022        1.93100902404150
H           -5.72178706261094        1.78121621723424        0.75798587779950
H           -6.01333646788965        3.51952480397288        0.68128869896448
H           -3.39663757751229        4.74356175872311        0.97040165369281
H           -2.75666071420837        4.56209600117731       -0.67064984377280
H           -4.43394598510698        5.01902207357037       -0.42033405732531
H           -2.40315018223833        2.73208447448902        3.55735458056696

          :  Hamiltonian                  GFN2-xTB          :
         :: total energy            -100.816194713146 Eh    ::
         :: gradient norm              0.002663229180 Eh/a0 ::
         :: HOMO-LUMO gap              1.528538492911 eV    ::
         :: SCC energy              -100.798599374385 Eh    ::
         :: -> dispersion             -0.075663544567 Eh    ::
         :: repulsion energy           1.510890193676 Eh    ::

    * Orbital Energies and Occupations

         #    Occupation            Energy/Eh            Energy/eV
      -------------------------------------------------------------
         1        2.0000           -0.8081823             -21.9918
       ...           ...                  ...                  ...
        78        1.9986           -0.5346463             -14.5485
        79        1.9982           -0.5303930             -14.4327
        80        1.9982           -0.5298729             -14.4186
        81        1.9970           -0.5221132             -14.2074
        82        1.9969           -0.5214077             -14.1882
        83        1.9959           -0.5172087             -14.0740
        84        1.9955           -0.5157965             -14.0355
        85        1.9935           -0.5098330             -13.8733
        86        1.9770           -0.4897342             -13.3263
        87        1.9735           -0.4875166             -13.2660
        88        1.9268           -0.4710237             -12.8172
        89        1.8336           -0.4572403             -12.4421
        90        1.8303           -0.4568920             -12.4327 (HOMO)
        91        0.4738           -0.4007192             -10.9041 (LUMO)
        92        0.0113           -0.3374108              -9.1814
        93        0.0026           -0.3138593              -8.5405
        94        0.0026           -0.3137746              -8.5382
        95        0.0022           -0.3115407              -8.4775
        96        0.0019           -0.3091851              -8.4134
        97        0.0000           -0.1891441              -5.1469
        98        0.0000           -0.1874992              -5.1021
        99                         -0.1461699              -3.9775
       100                         -0.0747241              -2.0333
       101                         -0.0621967              -1.6925
       ...                                ...                  ...
       171                          1.1049586              30.0675
      -------------------------------------------------------------
                  HL-Gap            0.0561728 Eh            1.5285 eV

     #   Z          covCN         q      C6AA      α(0)
     1   7 N        1.774    -0.286    28.236     7.869
     2   6 C        2.826     0.096    25.855     8.332
     3   6 C        3.906     0.003    20.467     6.431
     4   6 C        2.969     0.011    27.776     8.645
     5   6 C        2.922    -0.078    29.961     8.976
     6   6 C        2.861     0.129    25.167     8.223
     7   8 O        1.706    -0.230    17.807     5.697
     8   6 C        3.644     0.028    20.446     6.500
     9   6 C        2.864     0.129    25.162     8.222
    10   8 O        1.706    -0.227    17.767     5.691
    11   6 C        3.645     0.026    20.463     6.501
    12   6 C        2.914    -0.073    29.810     8.953
    13   6 C        2.921    -0.053    29.315     8.879
    14   6 C        3.809    -0.069    21.807     6.647
    15   6 C        3.799    -0.069    21.826     6.652
    16   6 C        3.755    -0.044    21.409     6.598
    17   7 N        2.728     0.028    20.759     6.767
    18   6 C        3.753    -0.020    20.982     6.532
    19   6 C        3.808    -0.069    21.823     6.650
    20   6 C        2.970     0.000    28.018     8.682
    21   6 C        2.922    -0.049    29.215     8.864
    22   6 C        2.914    -0.067    29.679     8.933
    23   6 C        2.865     0.134    25.071     8.207
    24   8 O        1.706    -0.220    17.654     5.673
    25   6 C        3.645     0.025    20.493     6.506
    26   6 C        2.863     0.134    25.069     8.207
    27   8 O        1.706    -0.222    17.692     5.679
    28   6 C        3.645     0.026    20.466     6.502
    29   6 C        2.919    -0.079    29.974     8.978
    30   6 C        2.794    -0.058    29.420     8.885
    31   6 C        3.858    -0.007    20.669     6.466
    32   6 C        3.755    -0.116    22.784     6.806
    33   6 C        3.754    -0.112    22.695     6.793
    34   1 H        0.926     0.051     2.312     2.378
    35   1 H        0.924     0.054     2.274     2.358
    36   1 H        0.925     0.081     1.970     2.195
    37   1 H        0.924     0.048     2.348     2.396
    38   1 H        0.924     0.057     2.236     2.338
    39   1 H        0.925     0.081     1.968     2.194
    40   1 H        0.924     0.049     2.333     2.389
    41   1 H        0.926     0.053     2.279     2.361
    42   1 H        0.926     0.067     2.114     2.274
    43   1 H        0.925     0.055     2.257     2.349
    44   1 H        0.924     0.046     2.367     2.406
    45   1 H        0.924     0.051     2.313     2.378
    46   1 H        0.925     0.050     2.325     2.384
    47   1 H        0.923     0.013     2.844     2.637
    48   1 H        0.923     0.064     2.154     2.295
    49   1 H        0.924     0.073     2.048     2.238
    50   1 H        0.924     0.071     2.074     2.252
    51   1 H        0.925     0.056     2.245     2.343
    52   1 H        0.924     0.056     2.241     2.341
    53   1 H        0.926     0.044     2.391     2.418
    54   1 H        0.926     0.059     2.212     2.326
    55   1 H        0.924     0.055     2.262     2.352
    56   1 H        0.924     0.056     2.243     2.342
    57   1 H        0.925     0.083     1.948     2.183
    58   1 H        0.925     0.083     1.951     2.184
    59   1 H        0.924     0.050     2.317     2.380
    60   1 H        0.924     0.053     2.277     2.360
    61   1 H        0.926     0.050     2.323     2.383
    62   1 H        0.926     0.082     1.957     2.188
    63   1 H        0.926     0.082     1.954     2.186
    64   1 H        0.930     0.117     1.633     1.998
    65   1 H        0.924     0.042     2.417     2.431
    66   1 H        0.925     0.059     2.208     2.324
    67   1 H        0.925     0.043     2.414     2.430
    68   1 H        0.925     0.053     2.288     2.365
    69   1 H        0.925     0.042     2.419     2.432
    70   1 H        0.925     0.038     2.473     2.459
    71   1 H        0.925     0.053     2.286     2.365
    72   1 H        0.860     0.157     1.357     1.825

Wiberg/Mayer (AO) data.
largest (>0.10) Wiberg bond orders for each atom

     #   Z sym  total        # sym  WBO       # sym  WBO       # sym  WBO
 ---------------------------------------------------------------------------
     1   7 N    3.012 --     2 C    1.933    72 H    0.942
     2   6 C    3.943 --     1 N    1.933     3 C    1.003    47 H    0.934
     3   6 C    3.978 --     2 C    1.003     4 C    0.979    14 C    0.970
                            31 C    0.914
     4   6 C    3.938 --    13 C    1.414     5 C    1.367     3 C    0.979
     5   6 C    3.957 --     6 C    1.402     4 C    1.367    34 H    0.957
     6   6 C    3.895 --     5 C    1.402     9 C    1.218     7 O    1.098
     7   8 O    2.246 --     6 C    1.098     8 C    0.979
     8   6 C    3.932 --     7 O    0.979    36 H    0.977    35 H    0.973
                            37 H    0.973
     9   6 C    3.890 --    12 C    1.388     6 C    1.218    10 O    1.103
    10   8 O    2.247 --     9 C    1.103    11 C    0.977
    11   6 C    3.930 --    10 O    0.977    39 H    0.977    40 H    0.973
                            38 H    0.973
    12   6 C    3.957 --    13 C    1.407     9 C    1.388    41 H    0.963
    13   6 C    3.939 --     4 C    1.414    12 C    1.407    42 H    0.952
    14   6 C    3.987 --    15 C    1.006     3 C    0.970    44 H    0.970
                            43 H    0.969
    15   6 C    3.974 --    14 C    1.006    16 C    0.976    46 H    0.975
                            45 H    0.971
    16   6 C    3.948 --    15 C    0.976    17 N    0.972    48 H    0.970
                            64 H    0.963
    17   7 N    3.465 --    30 C    1.462    18 C    0.994    16 C    0.972
    18   6 C    3.955 --    17 N    0.994    49 H    0.967    19 C    0.963
                            50 H    0.961
    19   6 C    3.974 --    20 C    1.008    52 H    0.972    51 H    0.968
                            18 C    0.963
    20   6 C    3.943 --    21 C    1.408    29 C    1.381    19 C    1.008
    21   6 C    3.947 --    22 C    1.417    20 C    1.408    53 H    0.968
    22   6 C    3.958 --    21 C    1.417    23 C    1.383    54 H    0.963
    23   6 C    3.893 --    22 C    1.383    26 C    1.217    24 O    1.112
    24   8 O    2.255 --    23 C    1.112    25 C    0.976
    25   6 C    3.927 --    57 H    0.977    24 O    0.976    55 H    0.972
                            56 H    0.972
    26   6 C    3.897 --    29 C    1.394    23 C    1.217    27 O    1.107
    27   8 O    2.255 --    26 C    1.107    28 C    0.978
    28   6 C    3.930 --    27 O    0.978    58 H    0.977    59 H    0.973
                            60 H    0.973
    29   6 C    3.958 --    26 C    1.394    20 C    1.381    61 H    0.962
    30   6 C    3.498 --    17 N    1.462    62 H    0.970    63 H    0.968
    31   6 C    3.978 --    32 C    1.012    33 C    1.009    65 H    0.957
                             3 C    0.914
    32   6 C    3.984 --    31 C    1.012    67 H    0.982    68 H    0.980
                            66 H    0.975
    33   6 C    3.989 --    31 C    1.009    70 H    0.983    69 H    0.983
                            71 H    0.982
    34   1 H    0.996 --     5 C    0.957
    35   1 H    0.993 --     8 C    0.973
    36   1 H    0.993 --     8 C    0.977
    37   1 H    0.993 --     8 C    0.973
    38   1 H    0.992 --    11 C    0.973
    39   1 H    0.993 --    11 C    0.977
    40   1 H    0.992 --    11 C    0.973
    41   1 H    0.995 --    12 C    0.963
    42   1 H    0.993 --    13 C    0.952
    43   1 H    0.995 --    14 C    0.969
    44   1 H    0.997 --    14 C    0.970
    45   1 H    0.997 --    15 C    0.971
    46   1 H    0.997 --    15 C    0.975
    47   1 H    0.983 --     2 C    0.934
    48   1 H    0.995 --    16 C    0.970
    49   1 H    0.993 --    18 C    0.967
    50   1 H    0.989 --    18 C    0.961
    51   1 H    0.996 --    19 C    0.968
    52   1 H    0.995 --    19 C    0.972
    53   1 H    0.997 --    21 C    0.968
    54   1 H    0.995 --    22 C    0.963
    55   1 H    0.991 --    25 C    0.972
    56   1 H    0.991 --    25 C    0.972
    57   1 H    0.992 --    25 C    0.977
    58   1 H    0.992 --    28 C    0.977
    59   1 H    0.992 --    28 C    0.973
    60   1 H    0.992 --    28 C    0.973
    61   1 H    0.996 --    29 C    0.962
    62   1 H    0.993 --    30 C    0.970
    63   1 H    0.993 --    30 C    0.968
    64   1 H    0.983 --    16 C    0.963
    65   1 H    0.994 --    31 C    0.957
    66   1 H    0.994 --    32 C    0.975
    67   1 H    0.996 --    32 C    0.982
    68   1 H    0.995 --    32 C    0.980
    69   1 H    0.997 --    33 C    0.983
    70   1 H    0.997 --    33 C    0.983
    71   1 H    0.995 --    33 C    0.982
    72   1 H    0.969 --     1 N    0.942
 ---------------------------------------------------------------------------

molecular dipole:
                 x           y           z       tot (Debye)
 q only:        0.917      -0.251       0.138
   full:        1.090       0.080       0.167       2.810

           -------------------------------------------------
          | TOTAL ENERGY             -100.816194713146 Eh   |
          | GRADIENT NORM               0.002663229180 Eh/α |
          | HOMO-LUMO GAP               1.528538492911 eV   |
           -------------------------------------------------

 * finished run on 2024/04/06 at 11:16:50.349
