   * xtb version 6.6.1 (8d0f1dd) compiled by 'conda@1efc2f54142f' on 2023-08-01
          program call               : xtb xtbopt.xyz --opt crude --input .xc2 --gfn2

   ID    Z sym.   atoms
    1    7 N      1, 17
    2    6 C      2-6, 8, 9, 11-16, 18-23, 25, 26, 28-33
    3    8 O      7, 10, 24, 27
    4    1 H      34-72
########################################################################
[WARNING] Please study the warnings concerning your input carefully
-1- readin_getIntValue: could not parse ''
########################################################################

          :  Hamiltonian                  GFN2-xTB          :
 * total energy  :   -99.2864774 Eh     change       -0.7105427E-13 Eh
 * total energy  :   -99.3958812 Eh     change       -0.1094038E+00 Eh
 * total energy  :   -99.3972709 Eh     change       -0.1389670E-02 Eh
 * total energy  :   -99.3979974 Eh     change       -0.7265044E-03 Eh
 * total energy  :   -99.3981075 Eh     change       -0.1100892E-03 Eh
   *** GEOMETRY OPTIMIZATION CONVERGED AFTER 5 ITERATIONS ***

 final structure:
================
72
 xtb: 6.6.1 (8d0f1dd)
N           -2.83316949668046        2.26176984180930        2.76493171503865
C           -2.34335572019736        2.49279736833340        1.63339374105670
C           -2.91728490808840        1.94866085437121        0.35232023724634
C           -3.49798883866305        0.54360216689304        0.43865519610927
C           -4.07697282439621       -0.00433049897958       -0.71026293898146
C           -4.60274634660689       -1.28521202125031       -0.72283324618279
O           -5.19099706232827       -1.87657906569452       -1.78387870697431
C           -5.39395715155922       -1.13579251872985       -2.96358458639672
C           -4.53805151856840       -2.08018310351668        0.45363544729729
O           -5.06403223690366       -3.31679837058389        0.35135081239744
C           -5.10321464540968       -4.14041604578852        1.49340706738049
C           -3.95746523260061       -1.53422768973690        1.58723253279602
C           -3.44997551743108       -0.24174507967993        1.57953229776435
C           -1.81770117474454        1.96424789552585       -0.73903550050222
C           -0.88303394221075        0.75212115311099       -0.71246670526303
C           -0.16937592702956        0.59246171692247        0.63766848116155
N            0.59527406450459       -0.63202963026490        0.72236050151977
C            2.03255289757132       -0.55255373923026        0.65706573565412
C            2.55055293283284       -0.31067766979661       -0.77490828912046
C            4.03482679911857       -0.08199080741540       -0.73740037384317
C            4.53982948249189        1.20151934006363       -0.60552773205755
C            5.90534147387318        1.42260334259408       -0.52429389320453
C            6.79538835093229        0.35902724029029       -0.56759008343197
O            8.13485825427317        0.45545562055332       -0.49227937121126
C            8.72521848855629        1.72937059545173       -0.37170115522093
C            6.28630864105962       -0.96292321098428       -0.70430475289544
O            7.21844707869913       -1.93416149308432       -0.74404627927901
C            6.81309068454561       -3.27280673472582       -0.90530142621100
C            4.91616425407053       -1.15871902067754       -0.78236119362227
C           -0.03017754466282       -1.79024860386828        0.80057724474131
C           -4.07297737328637        2.93779636904746       -0.03599314959880
C           -5.27172041050113        2.75864053829165        0.89032663378612
C           -3.62994653230061        4.40043854923952       -0.03670417915958
H           -4.12857552025731        0.58430610013939       -1.61088307129767
H           -5.99547777933964       -0.24093335472005       -2.77708897824508
H           -5.93542599124466       -1.79934334668111       -3.63500489499521
H           -4.44467071265611       -0.84972984509729       -3.42825771501910
H           -5.67558634013407       -3.67681760482808        2.30219880825767
H           -5.60063479822089       -5.05516922753751        1.17712941870147
H           -4.09643531824640       -4.38069514724789        1.84995719935641
H           -3.90461356833970       -2.10560245600626        2.49986722626172
H           -3.04975177807325        0.15764305842108        2.49652116312580
H           -2.28658432386229        1.99849472729597       -1.72288256982098
H           -1.22037618652629        2.87193478390952       -0.63743378028945
H           -1.45355298532501       -0.15512650038014       -0.91550448450961
H           -0.14981240143813        0.86738211080396       -1.51390786318354
H           -1.49787503259643        3.17767779417202        1.47625991425799
H            0.50445165674224        1.43391620637659        0.80578588165536
H            2.46202088437560       -1.48000074192443        1.04065997015645
H            2.36972245070470        0.26906242369110        1.29580885597851
H            2.06196038876314        0.56912936367144       -1.19325921560161
H            2.30551778091588       -1.17391798732061       -1.39510268346174
H            3.86847708548754        2.04636524833332       -0.57471698631665
H            6.26794109100918        2.43275139625279       -0.42898515643843
H            8.40578213382346        2.23370018461835        0.54534843820469
H            8.49458679390153        2.36003112350679       -1.23552667388061
H            9.79788753071961        1.55150501056886       -0.33054314585682
H            7.73189440539881       -3.85539885607204       -0.92683380790533
H            6.19263359850532       -3.60790277394396       -0.06805290370671
H            6.27072536471818       -3.41700777141143       -1.84475755418238
H            4.51819299456532       -2.15533258022852       -0.89072473139969
H            0.53300091412795       -2.70212727760295        0.84574176458449
H           -1.10266521451037       -1.81214904641842        0.84815100178385
H           -0.92987990572320        0.57480973541657        1.42153234048507
H           -4.38221238658501        2.68467383506582       -1.05464954947598
H           -4.96743697846591        2.85374282950681        1.92997000656108
H           -5.72476385867558        1.77963300581872        0.75948254638538
H           -6.02016268929907        3.51708731221056        0.67661036963582
H           -3.40782450976380        4.74289983647106        0.97081664135211
H           -2.75802436040185        4.56025950693153       -0.66564616267797
H           -4.43647369538017        5.01704911697729       -0.42627556166509
H           -2.41317214005221        2.73822204122504        3.55747670494801

          :  Hamiltonian                  GFN2-xTB          :
         :: total energy             -99.398107468469 Eh    ::
         :: gradient norm              0.002583727587 Eh/a0 ::
         :: HOMO-LUMO gap              1.529551468594 eV    ::
         :: SCC energy              -100.775173461548 Eh    ::
         :: -> dispersion             -0.075637642841 Eh    ::
         :: repulsion energy           1.375831178806 Eh    ::

    * Orbital Energies and Occupations

         #    Occupation            Energy/Eh            Energy/eV
      -------------------------------------------------------------
         1        2.0000           -0.8081908             -21.9920
       ...           ...                  ...                  ...
        78        1.9986           -0.5346392             -14.5483
        79        1.9982           -0.5302891             -14.4299
        80        1.9982           -0.5299382             -14.4204
        81        1.9970           -0.5219387             -14.2027
        82        1.9969           -0.5214486             -14.1893
        83        1.9958           -0.5169159             -14.0660
        84        1.9955           -0.5155733             -14.0295
        85        1.9934           -0.5097575             -13.8712
        86        1.9771           -0.4898291             -13.3289
        87        1.9735           -0.4874593             -13.2644
        88        1.9267           -0.4709907             -12.8163
        89        1.8337           -0.4572403             -12.4421
        90        1.8306           -0.4569269             -12.4336 (HOMO)
        91        0.4738           -0.4007169             -10.9041 (LUMO)
        92        0.0113           -0.3373264              -9.1791
        93        0.0026           -0.3138329              -8.5398
        94        0.0026           -0.3137797              -8.5384
        95        0.0022           -0.3115115              -8.4767
        96        0.0019           -0.3092909              -8.4162
        97        0.0000           -0.1889275              -5.1410
        98        0.0000           -0.1876306              -5.1057
        99                         -0.1345517              -3.6613
       100                         -0.0746713              -2.0319
       101                         -0.0619922              -1.6869
       ...                                ...                  ...
       171                          0.5774764              15.7139
      -------------------------------------------------------------
                  HL-Gap            0.0562100 Eh            1.5296 eV

     #   Z          covCN         q      C6AA      α(0)
     1   7 N        1.774    -0.287    28.267     7.873
     2   6 C        2.826     0.097    25.831     8.328
     3   6 C        3.906     0.004    20.461     6.430
     4   6 C        2.969     0.011    27.764     8.643
     5   6 C        2.922    -0.079    29.965     8.977
     6   6 C        2.862     0.129    25.167     8.223
     7   8 O        1.706    -0.229    17.805     5.697
     8   6 C        3.644     0.028    20.444     6.499
     9   6 C        2.864     0.129    25.163     8.222
    10   8 O        1.706    -0.227    17.766     5.691
    11   6 C        3.645     0.027    20.461     6.501
    12   6 C        2.914    -0.073    29.818     8.954
    13   6 C        2.921    -0.052    29.297     8.876
    14   6 C        3.808    -0.068    21.804     6.647
    15   6 C        3.800    -0.067    21.778     6.644
    16   6 C        3.756    -0.027    21.100     6.550
    17   7 N        2.729     0.039    20.561     6.735
    18   6 C        3.754    -0.020    20.992     6.533
    19   6 C        3.808    -0.069    21.813     6.648
    20   6 C        2.970     0.000    28.020     8.683
    21   6 C        2.922    -0.049    29.214     8.864
    22   6 C        2.914    -0.067    29.681     8.934
    23   6 C        2.865     0.134    25.070     8.207
    24   8 O        1.706    -0.220    17.654     5.673
    25   6 C        3.646     0.025    20.494     6.506
    26   6 C        2.863     0.134    25.069     8.207
    27   8 O        1.706    -0.223    17.694     5.679
    28   6 C        3.645     0.026    20.467     6.502
    29   6 C        2.919    -0.079    29.976     8.978
    30   6 C        2.796    -0.059    29.450     8.890
    31   6 C        3.858    -0.007    20.669     6.466
    32   6 C        3.755    -0.116    22.785     6.806
    33   6 C        3.754    -0.112    22.697     6.793
    34   1 H        0.926     0.051     2.311     2.377
    35   1 H        0.924     0.054     2.275     2.359
    36   1 H        0.925     0.081     1.970     2.195
    37   1 H        0.924     0.048     2.348     2.396
    38   1 H        0.924     0.057     2.238     2.339
    39   1 H        0.925     0.081     1.968     2.194
    40   1 H        0.924     0.049     2.332     2.388
    41   1 H        0.926     0.053     2.277     2.360
    42   1 H        0.926     0.068     2.110     2.271
    43   1 H        0.924     0.055     2.259     2.350
    44   1 H        0.924     0.046     2.368     2.406
    45   1 H        0.924     0.051     2.305     2.374
    46   1 H        0.924     0.050     2.315     2.379
    47   1 H        0.923     0.013     2.843     2.637
    48   1 H        0.924     0.068     2.102     2.267
    49   1 H        0.924     0.074     2.046     2.237
    50   1 H        0.924     0.071     2.071     2.250
    51   1 H        0.925     0.056     2.242     2.342
    52   1 H        0.924     0.056     2.246     2.344
    53   1 H        0.926     0.044     2.392     2.419
    54   1 H        0.926     0.059     2.212     2.326
    55   1 H        0.924     0.055     2.260     2.351
    56   1 H        0.924     0.056     2.242     2.342
    57   1 H        0.925     0.083     1.947     2.182
    58   1 H        0.925     0.083     1.951     2.184
    59   1 H        0.924     0.050     2.316     2.380
    60   1 H        0.924     0.054     2.276     2.359
    61   1 H        0.926     0.050     2.324     2.384
    62   1 H        0.926     0.083     1.949     2.183
    63   1 H        0.926     0.083     1.952     2.185
    64   1 H        0.924     0.079     1.992     2.207
    65   1 H        0.924     0.042     2.418     2.432
    66   1 H        0.925     0.060     2.205     2.322
    67   1 H        0.925     0.043     2.414     2.430
    68   1 H        0.925     0.053     2.287     2.365
    69   1 H        0.925     0.042     2.416     2.431
    70   1 H        0.925     0.038     2.473     2.459
    71   1 H        0.925     0.053     2.285     2.364
    72   1 H        0.860     0.157     1.358     1.825

Wiberg/Mayer (AO) data.
largest (>0.10) Wiberg bond orders for each atom

     #   Z sym  total        # sym  WBO       # sym  WBO       # sym  WBO
 ---------------------------------------------------------------------------
     1   7 N    3.010 --     2 C    1.928    72 H    0.942
     2   6 C    3.942 --     1 N    1.928     3 C    1.002    47 H    0.934
     3   6 C    3.978 --     2 C    1.002     4 C    0.979    14 C    0.970
                            31 C    0.914
     4   6 C    3.938 --    13 C    1.413     5 C    1.367     3 C    0.979
     5   6 C    3.957 --     6 C    1.402     4 C    1.367    34 H    0.957
     6   6 C    3.895 --     5 C    1.402     9 C    1.218     7 O    1.098
     7   8 O    2.246 --     6 C    1.098     8 C    0.979
     8   6 C    3.932 --     7 O    0.979    36 H    0.977    35 H    0.973
                            37 H    0.973
     9   6 C    3.891 --    12 C    1.388     6 C    1.218    10 O    1.103
    10   8 O    2.247 --     9 C    1.103    11 C    0.977
    11   6 C    3.930 --    10 O    0.977    39 H    0.977    40 H    0.973
                            38 H    0.973
    12   6 C    3.957 --    13 C    1.406     9 C    1.388    41 H    0.963
    13   6 C    3.939 --     4 C    1.413    12 C    1.406    42 H    0.951
    14   6 C    3.987 --    15 C    1.005     3 C    0.970    44 H    0.970
                            43 H    0.969
    15   6 C    3.976 --    14 C    1.005    16 C    0.984    46 H    0.972
                            45 H    0.970
    16   6 C    3.957 --    15 C    0.984    17 N    0.984    48 H    0.970
                            64 H    0.949
    17   7 N    3.473 --    30 C    1.461    18 C    0.992    16 C    0.984
    18   6 C    3.954 --    17 N    0.992    49 H    0.968    19 C    0.964
                            50 H    0.961
    19   6 C    3.974 --    20 C    1.008    52 H    0.972    51 H    0.968
                            18 C    0.964
    20   6 C    3.943 --    21 C    1.407    29 C    1.381    19 C    1.008
    21   6 C    3.947 --    22 C    1.417    20 C    1.407    53 H    0.968
    22   6 C    3.958 --    21 C    1.417    23 C    1.382    54 H    0.963
    23   6 C    3.893 --    22 C    1.382    26 C    1.217    24 O    1.112
    24   8 O    2.255 --    23 C    1.112    25 C    0.976
    25   6 C    3.927 --    57 H    0.977    24 O    0.976    55 H    0.972
                            56 H    0.972
    26   6 C    3.897 --    29 C    1.393    23 C    1.217    27 O    1.107
    27   8 O    2.255 --    26 C    1.107    28 C    0.978
    28   6 C    3.930 --    27 O    0.978    58 H    0.977    59 H    0.973
                            60 H    0.973
    29   6 C    3.958 --    26 C    1.393    20 C    1.381    61 H    0.962
    30   6 C    3.499 --    17 N    1.461    62 H    0.970    63 H    0.968
    31   6 C    3.978 --    32 C    1.012    33 C    1.009    65 H    0.957
                             3 C    0.914
    32   6 C    3.984 --    31 C    1.012    67 H    0.982    68 H    0.980
                            66 H    0.975
    33   6 C    3.989 --    31 C    1.009    70 H    0.983    69 H    0.983
                            71 H    0.982
    34   1 H    0.996 --     5 C    0.957
    35   1 H    0.993 --     8 C    0.973
    36   1 H    0.993 --     8 C    0.977
    37   1 H    0.993 --     8 C    0.973
    38   1 H    0.992 --    11 C    0.973
    39   1 H    0.993 --    11 C    0.977
    40   1 H    0.992 --    11 C    0.973
    41   1 H    0.995 --    12 C    0.963
    42   1 H    0.993 --    13 C    0.951
    43   1 H    0.995 --    14 C    0.969
    44   1 H    0.997 --    14 C    0.970
    45   1 H    0.997 --    15 C    0.970
    46   1 H    0.997 --    15 C    0.972
    47   1 H    0.983 --     2 C    0.934
    48   1 H    0.994 --    16 C    0.970
    49   1 H    0.993 --    18 C    0.968
    50   1 H    0.989 --    18 C    0.961
    51   1 H    0.996 --    19 C    0.968
    52   1 H    0.995 --    19 C    0.972
    53   1 H    0.997 --    21 C    0.968
    54   1 H    0.995 --    22 C    0.963
    55   1 H    0.991 --    25 C    0.972
    56   1 H    0.991 --    25 C    0.972
    57   1 H    0.992 --    25 C    0.977
    58   1 H    0.992 --    28 C    0.977
    59   1 H    0.992 --    28 C    0.973
    60   1 H    0.992 --    28 C    0.973
    61   1 H    0.996 --    29 C    0.962
    62   1 H    0.993 --    30 C    0.970
    63   1 H    0.993 --    30 C    0.968
    64   1 H    0.986 --    16 C    0.949
    65   1 H    0.994 --    31 C    0.957
    66   1 H    0.994 --    32 C    0.975
    67   1 H    0.996 --    32 C    0.982
    68   1 H    0.995 --    32 C    0.980
    69   1 H    0.997 --    33 C    0.983
    70   1 H    0.997 --    33 C    0.983
    71   1 H    0.995 --    33 C    0.982
    72   1 H    0.969 --     1 N    0.942
 ---------------------------------------------------------------------------

molecular dipole:
                 x           y           z       tot (Debye)
 q only:        0.940      -0.262       0.117
   full:        1.110       0.074       0.155       2.856

           -------------------------------------------------
          | TOTAL ENERGY              -99.398107468469 Eh   |
          | GRADIENT NORM               0.002583727587 Eh/α |
          | HOMO-LUMO GAP               1.529551468594 eV   |
           -------------------------------------------------

 * finished run on 2024/04/06 at 11:16:51.460
