   * xtb version 6.6.1 (8d0f1dd) compiled by 'conda@1efc2f54142f' on 2023-08-01
          program call               : xtb struc.xyz --opt loose --input .xc1 --gfn2

   ID    Z sym.   atoms
    1    7 N      1, 17
    2    6 C      2-6, 8, 9, 11-16, 18-23, 25, 26, 28-33
    3    8 O      7, 10, 24, 27
    4    1 H      34-72
constraining bond 17 47 to    6.6866700 Å, actual value:    2.4287161 Å

          :  Hamiltonian                  GFN2-xTB          :
 * total energy  :  -102.6413311 Eh     change       -0.4035485E-08 Eh
 * total energy  :  -103.6667220 Eh     change       -0.1025391E+01 Eh
 * total energy  :  -104.7571492 Eh     change       -0.1090427E+01 Eh
 * total energy  :  -104.4122235 Eh     change        0.3449257E+00 Eh
 * total energy  :  -105.2221769 Eh     change       -0.8099533E+00 Eh
 * total energy  :  -105.3211663 Eh     change       -0.9898941E-01 Eh
 * total energy  :  -105.4446304 Eh     change       -0.1234641E+00 Eh
 * total energy  :  -105.4807314 Eh     change       -0.3610094E-01 Eh
 * total energy  :  -105.5006174 Eh     change       -0.1988600E-01 Eh
 * total energy  :  -105.5113786 Eh     change       -0.1076125E-01 Eh
 * total energy  :  -105.6283879 Eh     change       -0.6186002E-04 Eh
 * total energy  :  -105.6284466 Eh     change       -0.5863720E-04 Eh
 * total energy  :  -105.6285045 Eh     change       -0.5788098E-04 Eh
 * total energy  :  -105.6285679 Eh     change       -0.6341031E-04 Eh
 * total energy  :  -105.6286413 Eh     change       -0.7347204E-04 Eh
 * total energy  :  -105.6287205 Eh     change       -0.7911798E-04 Eh
 * total energy  :  -105.6287928 Eh     change       -0.7237251E-04 Eh
 * total energy  :  -105.6288483 Eh     change       -0.5545163E-04 Eh
 * total energy  :  -105.6288945 Eh     change       -0.4625924E-04 Eh
   *** GEOMETRY OPTIMIZATION CONVERGED AFTER 84 ITERATIONS ***

 final structure:
================
72
 xtb: 6.6.1 (8d0f1dd)
N           -1.51184457310160        2.00611797044410        2.00194656555760
C           -1.53907082287234        1.63198569766171        0.79651144812199
C           -2.76557505587808        1.61998748030409       -0.07706434760820
C           -3.50834762091143        0.29700598723486        0.09839818633974
C           -4.46303017449269       -0.08501048591790       -0.84506362351044
C           -5.15063717218598       -1.28152563358218       -0.73451260083330
O           -6.09895933836324       -1.71705946882050       -1.59103139069266
C           -6.53197692642013       -0.86842216169139       -2.62756346966856
C           -4.87034653694560       -2.15393584670497        0.34989466539746
O           -5.55852894123326       -3.31530387710526        0.35571059056867
C           -5.37938161545784       -4.20824829784432        1.42921210596666
C           -3.95105548113360       -1.75224322185845        1.30269535346027
C           -3.28597204078733       -0.53655512535192        1.18199088768876
C           -2.13195928199826        1.67584192659411       -1.48443924690855
C           -0.89770246408872        0.77590697377032       -1.38708821547855
C           -0.33335831851756        1.13034524148588       -0.01770990890100
N            0.36337737606456        0.03767649435468        0.79206418942261
C            1.86047013185702        0.12286177253250        0.70074853805609
C            2.46023819840969       -0.04669708648137       -0.69235093207093
C            3.95028978003864        0.17714984721607       -0.58245155345161
C            4.47616738109299        1.45209614362527       -0.67012834177761
C            5.83988759615989        1.66517057501540       -0.52633267459920
C            6.69866718942495        0.60416040264156       -0.28728516516627
O            8.03400989101536        0.69505808115085       -0.13077762515519
C            8.64981824554284        1.95804869551449       -0.23744446869507
C            6.16523669843202       -0.70918979645809       -0.19535446135303
O            7.07168793267611       -1.68268692530491        0.03584894463708
C            6.64244986695579       -3.02130431498375        0.09328378516810
C            4.80134592092626       -0.89954945684295       -0.33933312258147
C           -0.10044156464003       -1.33292003232821        0.47218322734245
C           -3.74322969096429        2.79781560576753        0.18615675468744
C           -4.51250045270008        2.59900559919366        1.48992805203064
C           -3.04373792345799        4.15475231233746        0.22003647770703
H           -4.69542201549769        0.57795310735211       -1.66189190792930
H           -6.92365413742937        0.07539305689984       -2.23559990538274
H           -7.33193150419838       -1.40802725208243       -3.13088845534996
H           -5.72989364575270       -0.66415575130018       -3.34447493159246
H           -5.64312000775070       -3.74637191893840        2.38553428849797
H           -6.05359322457527       -5.03973233536421        1.23316520858118
H           -4.35026002670707       -4.58063785764253        1.47428230235432
H           -3.75031660305377       -2.37125382863744        2.16237769055397
H           -2.63686031957747       -0.22574745294669        1.98624873710363
H           -2.80694822023393        1.33721088610957       -2.26418372521972
H           -1.83028474885480        2.69623744757263       -1.71524887390002
H           -1.22657433296932       -0.25916699745573       -1.43751504846179
H           -0.19355591597113        0.95760468941303       -2.19755433615253
H            0.19079032151476        0.16073483174740        1.43144457632228
H            0.38800790998386        1.94984306086771       -0.10347068553054
H            2.27168246373599       -0.64237621351939        1.36428362808519
H            2.15677051335432        1.09862540073572        1.09539601031315
H            2.03566159776270        0.68286953570637       -1.38144965634132
H            2.27124201955222       -1.04741058116086       -1.07966789975429
H            3.83141702719524        2.29604688957595       -0.86515359962909
H            6.22279114500386        2.66885206965576       -0.60674924504160
H            8.29293099267439        2.64522140127495        0.53592616042702
H            8.48696410109814        2.40107524378626       -1.22448467515548
H            9.71309585790777        1.77660247038235       -0.09489455314108
H            7.54346491036035       -3.60999940904398        0.25366182151057
H            5.95145383429055       -3.18764871015284        0.92647393116598
H            6.16973251166450       -3.33280063514280       -0.84368462008433
H            4.38654719515609       -1.89368196521081       -0.27875120420232
H            0.21334418933396       -1.63727485041026       -0.52151036817855
H           -1.18989466707555       -1.37258748849802        0.54702695795201
H            0.32446361437220       -2.02084904121977        1.20268988579324
H           -4.45563364518238        2.79690794272371       -0.64602624514363
H           -3.81441838456411        2.51054604086346        2.31657499251052
H           -5.13017577650901        1.70617811690522        1.45192502508789
H           -5.15822124932003        3.45458924507673        1.66840766305207
H           -2.35227241105669        4.20251588608069        1.05678712679376
H           -2.50454153030629        4.36813049674978       -0.69993285089511
H           -3.78777618134324        4.93558007560812        0.35188438814874
H           -0.61448627251013        2.01480884053609        2.47962861174430

          :  Hamiltonian                  GFN2-xTB          :
         :: total energy            -105.628894544868 Eh    ::
         :: gradient norm              0.002783098305 Eh/a0 ::
         :: HOMO-LUMO gap              2.607503719713 eV    ::
         :: SCC energy              -100.800199548110 Eh    ::
         :: -> dispersion             -0.077312953949 Eh    ::
         :: repulsion energy           1.626132945037 Eh    ::

    * Orbital Energies and Occupations

         #    Occupation            Energy/Eh            Energy/eV
      -------------------------------------------------------------
         1        2.0000           -0.8659457             -23.5636
       ...           ...                  ...                  ...
        78        1.9995           -0.5304235             -14.4336
        79        1.9994           -0.5285081             -14.3814
        80        1.9993           -0.5254161             -14.2973
        81        1.9990           -0.5195107             -14.1366
        82        1.9989           -0.5184718             -14.1083
        83        1.9987           -0.5157430             -14.0341
        84        1.9985           -0.5127107             -13.9516
        85        1.9980           -0.5082976             -13.8315
        86        1.9924           -0.4873709             -13.2620
        87        1.9914           -0.4852419             -13.2041
        88        1.9897           -0.4823877             -13.1264
        89        1.9407           -0.4543469             -12.3634
        90        1.9356           -0.4529969             -12.3267 (HOMO)
        91        0.1322           -0.3571729              -9.7192 (LUMO)
        92        0.0087           -0.3129956              -8.5170
        93        0.0071           -0.3099404              -8.4339
        94        0.0069           -0.3094964              -8.4218
        95        0.0066           -0.3086130              -8.3978
        96        0.0000           -0.2251909              -6.1278
        97        0.0000           -0.1885529              -5.1308
        98        0.0000           -0.1852997              -5.0423
        99        0.0000           -0.1594635              -4.3392
       100        0.0000           -0.1442898              -3.9263
       101                         -0.0794559              -2.1621
       ...                                ...                  ...
       171                          1.2499261              34.0122
      -------------------------------------------------------------
                  HL-Gap            0.0958240 Eh            2.6075 eV

     #   Z          covCN         q      C6AA      α(0)
     1   7 N        1.774    -0.325    29.252     8.009
     2   6 C        2.908     0.099    25.816     8.331
     3   6 C        3.923     0.005    20.434     6.424
     4   6 C        2.972    -0.002    28.067     8.690
     5   6 C        2.921    -0.080    30.011     8.984
     6   6 C        2.863     0.129    25.167     8.223
     7   8 O        1.706    -0.235    17.891     5.711
     8   6 C        3.644     0.029    20.421     6.495
     9   6 C        2.864     0.127    25.214     8.231
    10   8 O        1.706    -0.235    17.895     5.711
    11   6 C        3.645     0.029    20.416     6.494
    12   6 C        2.914    -0.079    29.970     8.977
    13   6 C        2.922    -0.065    29.623     8.925
    14   6 C        3.851    -0.070    21.797     6.641
    15   6 C        3.821    -0.072    21.853     6.653
    16   6 C        3.807    -0.008    20.717     6.479
    17   7 N        3.573     0.013    21.014     6.808
    18   6 C        3.747    -0.031    21.187     6.565
    19   6 C        3.807    -0.072    21.878     6.658
    20   6 C        2.973    -0.013    28.332     8.731
    21   6 C        2.922    -0.055    29.375     8.888
    22   6 C        2.915    -0.071    29.762     8.946
    23   6 C        2.865     0.131    25.125     8.216
    24   8 O        1.706    -0.230    17.812     5.698
    25   6 C        3.646     0.027    20.458     6.500
    26   6 C        2.864     0.130    25.148     8.220
    27   8 O        1.706    -0.232    17.853     5.705
    28   6 C        3.645     0.029    20.417     6.494
    29   6 C        2.919    -0.085    30.125     9.001
    30   6 C        3.693    -0.093    22.469     6.782
    31   6 C        3.851    -0.007    20.666     6.466
    32   6 C        3.757    -0.120    22.856     6.816
    33   6 C        3.756    -0.114    22.737     6.799
    34   1 H        0.926     0.049     2.328     2.386
    35   1 H        0.924     0.051     2.309     2.376
    36   1 H        0.925     0.079     1.991     2.207
    37   1 H        0.924     0.045     2.381     2.413
    38   1 H        0.924     0.051     2.303     2.373
    39   1 H        0.925     0.079     1.994     2.208
    40   1 H        0.924     0.043     2.403     2.424
    41   1 H        0.926     0.045     2.381     2.413
    42   1 H        0.926     0.032     2.552     2.498
    43   1 H        0.925     0.059     2.208     2.324
    44   1 H        0.925     0.053     2.280     2.361
    45   1 H        0.925     0.059     2.215     2.327
    46   1 H        0.925     0.054     2.270     2.356
    47   1 H        0.868     0.246     0.897     1.483
    48   1 H        0.924     0.076     2.020     2.223
    49   1 H        0.924     0.081     1.966     2.193
    50   1 H        0.924     0.081     1.968     2.194
    51   1 H        0.925     0.060     2.198     2.319
    52   1 H        0.925     0.058     2.228     2.334
    53   1 H        0.926     0.036     2.499     2.472
    54   1 H        0.926     0.056     2.247     2.344
    55   1 H        0.924     0.050     2.316     2.380
    56   1 H        0.924     0.052     2.293     2.368
    57   1 H        0.925     0.080     1.980     2.200
    58   1 H        0.925     0.080     1.981     2.201
    59   1 H        0.924     0.043     2.403     2.424
    60   1 H        0.924     0.048     2.341     2.393
    61   1 H        0.926     0.041     2.436     2.441
    62   1 H        0.925     0.101     1.775     2.083
    63   1 H        0.924     0.108     1.710     2.045
    64   1 H        0.925     0.092     1.863     2.134
    65   1 H        0.924     0.039     2.459     2.452
    66   1 H        0.925     0.066     2.125     2.279
    67   1 H        0.925     0.038     2.471     2.458
    68   1 H        0.925     0.050     2.320     2.382
    69   1 H        0.925     0.049     2.333     2.388
    70   1 H        0.925     0.030     2.584     2.514
    71   1 H        0.925     0.053     2.280     2.361
    72   1 H        0.860     0.128     1.562     1.958

Wiberg/Mayer (AO) data.
largest (>0.10) Wiberg bond orders for each atom

     #   Z sym  total        # sym  WBO       # sym  WBO       # sym  WBO
 ---------------------------------------------------------------------------
     1   7 N    2.948 --     2 C    1.834    72 H    0.950
     2   6 C    3.848 --     1 N    1.834     3 C    0.989    16 C    0.942
     3   6 C    3.983 --     2 C    0.989    14 C    0.970     4 C    0.956
                            31 C    0.945
     4   6 C    3.956 --    13 C    1.422     5 C    1.369     3 C    0.956
     5   6 C    3.968 --     6 C    1.405     4 C    1.369    34 H    0.957
     6   6 C    3.918 --     5 C    1.405     9 C    1.229     7 O    1.095
     7   8 O    2.261 --     6 C    1.095     8 C    0.979
     8   6 C    3.935 --     7 O    0.979    36 H    0.977    35 H    0.975
                            37 H    0.974
     9   6 C    3.917 --    12 C    1.401     6 C    1.229    10 O    1.094
    10   8 O    2.258 --     9 C    1.094    11 C    0.980
    11   6 C    3.936 --    10 O    0.980    39 H    0.977    40 H    0.975
                            38 H    0.974
    12   6 C    3.969 --     9 C    1.401    13 C    1.392    41 H    0.965
    13   6 C    3.966 --     4 C    1.422    12 C    1.392    42 H    0.963
    14   6 C    3.987 --    15 C    0.996     3 C    0.970    44 H    0.970
                            43 H    0.969
    15   6 C    3.987 --    16 C    1.005    14 C    0.996    46 H    0.974
                            45 H    0.968
    16   6 C    3.902 --    15 C    1.005    48 H    0.951     2 C    0.942
                            17 N    0.876
    17   7 N    3.726 --    30 C    0.955    18 C    0.919    47 H    0.911
                            16 C    0.876
    18   6 C    3.922 --    19 C    1.001    50 H    0.968    49 H    0.967
                            17 N    0.919
    19   6 C    3.984 --    18 C    1.001    20 C    0.992    52 H    0.970
                            51 H    0.968
    20   6 C    3.960 --    21 C    1.430    29 C    1.372    19 C    0.992
    21   6 C    3.971 --    20 C    1.430    22 C    1.405    53 H    0.969
    22   6 C    3.971 --    21 C    1.405    23 C    1.395    54 H    0.964
    23   6 C    3.921 --    22 C    1.395    26 C    1.230    24 O    1.103
    24   8 O    2.268 --    23 C    1.103    25 C    0.977
    25   6 C    3.933 --    57 H    0.977    24 O    0.977    55 H    0.974
                            56 H    0.974
    26   6 C    3.922 --    29 C    1.404    23 C    1.230    27 O    1.095
    27   8 O    2.264 --    26 C    1.095    28 C    0.980
    28   6 C    3.937 --    27 O    0.980    58 H    0.977    59 H    0.975
                            60 H    0.975
    29   6 C    3.969 --    26 C    1.404    20 C    1.372    61 H    0.963
    30   6 C    3.919 --    62 H    0.975    64 H    0.974    63 H    0.957
                            17 N    0.955
    31   6 C    3.983 --    33 C    1.010    32 C    1.009    65 H    0.964
                             3 C    0.945
    32   6 C    3.988 --    31 C    1.009    67 H    0.983    68 H    0.983
                            66 H    0.979
    33   6 C    3.991 --    31 C    1.010    69 H    0.983    71 H    0.982
                            70 H    0.980
    34   1 H    0.997 --     5 C    0.957
    35   1 H    0.995 --     8 C    0.975
    36   1 H    0.993 --     8 C    0.977
    37   1 H    0.996 --     8 C    0.974
    38   1 H    0.995 --    11 C    0.974
    39   1 H    0.993 --    11 C    0.977
    40   1 H    0.996 --    11 C    0.975
    41   1 H    0.997 --    12 C    0.965
    42   1 H    0.999 --    13 C    0.963
    43   1 H    0.996 --    14 C    0.969
    44   1 H    0.996 --    14 C    0.970
    45   1 H    0.996 --    15 C    0.968
    46   1 H    0.996 --    15 C    0.974
    47   1 H    0.939 --    17 N    0.911
    48   1 H    0.990 --    16 C    0.951
    49   1 H    0.993 --    18 C    0.967
    50   1 H    0.993 --    18 C    0.968
    51   1 H    0.996 --    19 C    0.968
    52   1 H    0.996 --    19 C    0.970
    53   1 H    0.998 --    21 C    0.969
    54   1 H    0.996 --    22 C    0.964
    55   1 H    0.995 --    25 C    0.974
    56   1 H    0.995 --    25 C    0.974
    57   1 H    0.993 --    25 C    0.977
    58   1 H    0.993 --    28 C    0.977
    59   1 H    0.996 --    28 C    0.975
    60   1 H    0.996 --    28 C    0.975
    61   1 H    0.997 --    29 C    0.963
    62   1 H    0.990 --    30 C    0.975
    63   1 H    0.988 --    30 C    0.957
    64   1 H    0.991 --    30 C    0.974
    65   1 H    0.997 --    31 C    0.964
    66   1 H    0.994 --    32 C    0.979
    67   1 H    0.998 --    32 C    0.983
    68   1 H    0.996 --    32 C    0.983
    69   1 H    0.997 --    33 C    0.983
    70   1 H    0.999 --    33 C    0.980
    71   1 H    0.996 --    33 C    0.982
    72   1 H    0.983 --     1 N    0.950
 ---------------------------------------------------------------------------

molecular dipole:
                 x           y           z       tot (Debye)
 q only:        0.898      -0.413       0.095
   full:        1.201      -0.404       0.135       3.239

           -------------------------------------------------
          | TOTAL ENERGY             -105.628894544868 Eh   |
          | GRADIENT NORM               0.002783098305 Eh/α |
          | HOMO-LUMO GAP               2.607503719713 eV   |
           -------------------------------------------------

 * finished run on 2024/04/06 at 11:16:51.633
