   * xtb version 6.6.1 (8d0f1dd) compiled by 'conda@1efc2f54142f' on 2023-08-01
          program call               : xtb xtbopt.xyz --opt crude --input .xc2 --gfn2

   ID    Z sym.   atoms
    1    7 N      1, 17
    2    6 C      2-6, 8, 9, 11-16, 18-23, 25, 26, 28-33
    3    8 O      7, 10, 24, 27
    4    1 H      34-72
########################################################################
[WARNING] Please study the warnings concerning your input carefully
-1- readin_getIntValue: could not parse ''
########################################################################

          :  Hamiltonian                  GFN2-xTB          :
 * total energy  :   -99.1729443 Eh     change       -0.2415845E-12 Eh
 * total energy  :   -99.4033635 Eh     change       -0.2304191E+00 Eh
 * total energy  :   -99.4080905 Eh     change       -0.4727027E-02 Eh
 * total energy  :   -99.4087001 Eh     change       -0.6096249E-03 Eh
 * total energy  :   -99.4087669 Eh     change       -0.6680126E-04 Eh
   *** GEOMETRY OPTIMIZATION CONVERGED AFTER 5 ITERATIONS ***

 final structure:
================
72
 xtb: 6.6.1 (8d0f1dd)
N           -1.49669903398887        1.97177881791028        1.99710776753800
C           -1.53495297760265        1.62144718718216        0.78379222518162
C           -2.76567236976087        1.61779502410217       -0.08165194867698
C           -3.50914034563467        0.29487394184004        0.09400364352868
C           -4.46250107674705       -0.08789717620071       -0.85021127748054
C           -5.15254070161806       -1.28296823706726       -0.73820095586419
O           -6.10082706324966       -1.71795614307058       -1.59503263297728
C           -6.52902368456594       -0.87035897873761       -2.63444648416266
C           -4.87576543692776       -2.15344633920526        0.34839830249074
O           -5.56544029334026       -3.31393779681978        0.35583708975775
C           -5.38711365128894       -4.20517963047545        1.43095884352808
C           -3.95795326676899       -1.75076933884290        1.30229094179973
C           -3.29123280358522       -0.53634815130250        1.18029324340450
C           -2.13854660874072        1.67840765813790       -1.49200907882736
C           -0.90706099798973        0.77491010277938       -1.40466507053101
C           -0.33195096312242        1.12495834946201       -0.03658472441066
N            0.37135804537360        0.03945972389196        0.74168860701501
C            1.85964368794311        0.12961730508440        0.68963054988110
C            2.46912715572173       -0.04615449471063       -0.70159132233877
C            3.95813645663382        0.17778347880253       -0.58865255399876
C            4.48454191624312        1.45261750401279       -0.67660964091689
C            5.84812841159821        1.66558004877351       -0.53077440217562
C            6.70630872605612        0.60437643400331       -0.29056268076040
O            8.04159900223167        0.69527653470897       -0.13255037409746
C            8.65696133721995        1.95860407680220       -0.23739076135141
C            6.17261994202897       -0.70889720310204       -0.19903606000947
O            7.07849822478614       -1.68294310164426        0.03265081361921
C            6.64685807474908       -3.02073401916607        0.09228727985199
C            4.80876611437243       -0.89886379553712       -0.34383018154342
C           -0.10422017555534       -1.33036417417345        0.47264019217840
C           -3.74164102385123        2.79533015655417        0.18968540377435
C           -4.51093078000236        2.59278241870892        1.49259688788849
C           -3.04033735872024        4.15118939872257        0.22956941937103
H           -4.69207935095795        0.57328785928233       -1.66908721482963
H           -6.91803954973769        0.07569125218593       -2.24547296460539
H           -7.32976624693201       -1.40855432454955       -3.13769087052263
H           -5.72493058390528       -0.67046903566346       -3.35021908730894
H           -5.65506433230692       -3.74293230487786        2.38578601828125
H           -6.05819215218499       -5.03872653555977        1.23385722009657
H           -4.35719665603643       -4.57448221182123        1.47969189990091
H           -3.75996148279201       -2.36801360135657        2.16375484678724
H           -2.64364067770431       -0.22482884089421        1.98529743656852
H           -2.81865155044485        1.34712497271296       -2.27057157325289
H           -1.83499832696428        2.69947326855106       -1.71801262382683
H           -1.23729888650825       -0.26021082725099       -1.45222472294005
H           -0.20708029189555        0.95579240168476       -2.21899357208025
H            0.10828527120900        0.23481306687139        1.71890555690568
H            0.38198321053399        1.95148462748280       -0.12548170531153
H            2.26764964131756       -0.63280046237746        1.35772419093101
H            2.15432987886371        1.10778673706200        1.07805002525990
H            2.04572846467255        0.68105412243990       -1.39433740724641
H            2.27903677706154       -1.04814230763312       -1.08531443551059
H            3.83999665448938        2.29639420491877       -0.87295190024938
H            6.23111491553410        2.66929476333508       -0.61055969719746
H            8.29840886012032        2.64488578922903        0.53605122427850
H            8.49508767551996        2.40230447229640       -1.22437595691949
H            9.72028287522127        1.77794886185106       -0.09338177981748
H            7.54663548488134       -3.61119873560658        0.25291492709958
H            5.95587031296018       -3.18432432304155        0.92610189901599
H            6.17277262728897       -3.33245851147338       -0.84382502467128
H            4.39293821828774       -1.89248168698703       -0.28286256201782
H            0.20083310570832       -1.65618895545237       -0.51844152764053
H           -1.19308603584620       -1.36577271969232        0.55133614406131
H            0.32483573231490       -2.00801996106491        1.20927536273838
H           -4.45450354327597        2.79869568609112       -0.64205365915988
H           -3.81413124564359        2.51033804554287        2.32074827086779
H           -5.12270513526021        1.69570622085804        1.45552809457552
H           -5.16273372721136        3.44422796993624        1.66775317737876
H           -2.35046569937793        4.19499063060636        1.06757795647596
H           -2.49913903293188        4.36675109083731       -0.68833155643020
H           -3.78343210790180        4.93259690697018        0.36252574988021
H           -0.59117397509446        1.98313233559892        2.46294362236248

          :  Hamiltonian                  GFN2-xTB          :
         :: total energy             -99.408766933825 Eh    ::
         :: gradient norm              0.003585124135 Eh/a0 ::
         :: HOMO-LUMO gap              2.598559815478 eV    ::
         :: SCC energy              -100.768342974594 Eh    ::
         :: -> dispersion             -0.077282831502 Eh    ::
         :: repulsion energy           1.358436501429 Eh    ::

    * Orbital Energies and Occupations

         #    Occupation            Energy/Eh            Energy/eV
      -------------------------------------------------------------
         1        2.0000           -0.8488789             -23.0992
       ...           ...                  ...                  ...
        78        1.9995           -0.5309351             -14.4475
        79        1.9994           -0.5279987             -14.3676
        80        1.9993           -0.5257974             -14.3077
        81        1.9990           -0.5190057             -14.1229
        82        1.9989           -0.5186528             -14.1133
        83        1.9988           -0.5161748             -14.0458
        84        1.9985           -0.5135389             -13.9741
        85        1.9980           -0.5087039             -13.8425
        86        1.9922           -0.4868912             -13.2490
        87        1.9920           -0.4866345             -13.2420
        88        1.9904           -0.4837374             -13.1632
        89        1.9385           -0.4538309             -12.3494
        90        1.9354           -0.4530319             -12.3276 (HOMO)
        91        0.1343           -0.3575366              -9.7291 (LUMO)
        92        0.0082           -0.3122829              -8.4976
        93        0.0071           -0.3099700              -8.4347
        94        0.0067           -0.3089359              -8.4066
        95        0.0065           -0.3086463              -8.3987
        96        0.0000           -0.2196807              -5.9778
        97        0.0000           -0.1860213              -5.0619
        98        0.0000           -0.1853142              -5.0427
        99        0.0000           -0.1433808              -3.9016
       100                         -0.1286741              -3.5014
       101                         -0.1204972              -3.2789
       ...                                ...                  ...
       171                          0.5805490              15.7975
      -------------------------------------------------------------
                  HL-Gap            0.0954953 Eh            2.5986 eV

     #   Z          covCN         q      C6AA      α(0)
     1   7 N        1.774    -0.328    29.319     8.018
     2   6 C        2.910     0.099    25.805     8.330
     3   6 C        3.922     0.005    20.425     6.423
     4   6 C        2.972    -0.002    28.061     8.689
     5   6 C        2.921    -0.080    30.007     8.983
     6   6 C        2.863     0.129    25.166     8.223
     7   8 O        1.706    -0.235    17.888     5.710
     8   6 C        3.645     0.029    20.422     6.495
     9   6 C        2.865     0.127    25.211     8.230
    10   8 O        1.706    -0.235    17.891     5.711
    11   6 C        3.646     0.029    20.417     6.494
    12   6 C        2.914    -0.079    29.965     8.976
    13   6 C        2.922    -0.065    29.613     8.924
    14   6 C        3.851    -0.070    21.799     6.641
    15   6 C        3.821    -0.070    21.826     6.648
    16   6 C        3.808    -0.006    20.674     6.473
    17   7 N        3.574     0.036    20.606     6.742
    18   6 C        3.746    -0.027    21.123     6.556
    19   6 C        3.807    -0.071    21.852     6.654
    20   6 C        2.973    -0.013    28.323     8.730
    21   6 C        2.922    -0.055    29.369     8.887
    22   6 C        2.915    -0.071    29.760     8.946
    23   6 C        2.866     0.131    25.126     8.217
    24   8 O        1.706    -0.230    17.813     5.698
    25   6 C        3.646     0.027    20.456     6.500
    26   6 C        2.864     0.130    25.148     8.220
    27   8 O        1.706    -0.232    17.853     5.705
    28   6 C        3.645     0.029    20.415     6.494
    29   6 C        2.919    -0.085    30.116     8.999
    30   6 C        3.690    -0.088    22.383     6.771
    31   6 C        3.851    -0.007    20.667     6.466
    32   6 C        3.757    -0.120    22.849     6.815
    33   6 C        3.756    -0.114    22.735     6.798
    34   1 H        0.926     0.050     2.326     2.385
    35   1 H        0.924     0.051     2.309     2.376
    36   1 H        0.925     0.079     1.990     2.206
    37   1 H        0.924     0.045     2.380     2.413
    38   1 H        0.924     0.051     2.303     2.373
    39   1 H        0.925     0.079     1.993     2.208
    40   1 H        0.924     0.044     2.402     2.424
    41   1 H        0.926     0.045     2.378     2.411
    42   1 H        0.926     0.032     2.557     2.501
    43   1 H        0.925     0.059     2.209     2.324
    44   1 H        0.925     0.053     2.283     2.363
    45   1 H        0.925     0.058     2.228     2.334
    46   1 H        0.925     0.053     2.278     2.360
    47   1 H        0.859     0.223     0.994     1.562
    48   1 H        0.924     0.076     2.026     2.226
    49   1 H        0.924     0.080     1.982     2.202
    50   1 H        0.924     0.079     1.987     2.204
    51   1 H        0.925     0.059     2.212     2.326
    52   1 H        0.925     0.056     2.241     2.341
    53   1 H        0.926     0.036     2.500     2.473
    54   1 H        0.926     0.056     2.249     2.345
    55   1 H        0.924     0.050     2.317     2.380
    56   1 H        0.924     0.052     2.293     2.368
    57   1 H        0.925     0.080     1.981     2.201
    58   1 H        0.925     0.080     1.982     2.202
    59   1 H        0.924     0.043     2.403     2.424
    60   1 H        0.924     0.048     2.341     2.392
    61   1 H        0.926     0.041     2.436     2.440
    62   1 H        0.925     0.099     1.792     2.093
    63   1 H        0.924     0.106     1.731     2.057
    64   1 H        0.925     0.089     1.884     2.147
    65   1 H        0.924     0.040     2.454     2.450
    66   1 H        0.925     0.066     2.135     2.285
    67   1 H        0.925     0.039     2.467     2.456
    68   1 H        0.925     0.050     2.317     2.380
    69   1 H        0.925     0.049     2.338     2.391
    70   1 H        0.925     0.031     2.579     2.511
    71   1 H        0.925     0.053     2.278     2.360
    72   1 H        0.860     0.127     1.565     1.960

Wiberg/Mayer (AO) data.
largest (>0.10) Wiberg bond orders for each atom

     #   Z sym  total        # sym  WBO       # sym  WBO       # sym  WBO
 ---------------------------------------------------------------------------
     1   7 N    2.947 --     2 C    1.824    72 H    0.942
     2   6 C    3.843 --     1 N    1.824     3 C    0.991    16 C    0.942
     3   6 C    3.983 --     2 C    0.991    14 C    0.970     4 C    0.955
                            31 C    0.944
     4   6 C    3.956 --    13 C    1.422     5 C    1.369     3 C    0.955
     5   6 C    3.968 --     6 C    1.404     4 C    1.369    34 H    0.957
     6   6 C    3.919 --     5 C    1.404     9 C    1.230     7 O    1.095
     7   8 O    2.261 --     6 C    1.095     8 C    0.979
     8   6 C    3.935 --     7 O    0.979    36 H    0.977    35 H    0.975
                            37 H    0.974
     9   6 C    3.917 --    12 C    1.401     6 C    1.230    10 O    1.094
    10   8 O    2.258 --     9 C    1.094    11 C    0.980
    11   6 C    3.936 --    10 O    0.980    39 H    0.977    40 H    0.975
                            38 H    0.974
    12   6 C    3.969 --     9 C    1.401    13 C    1.392    41 H    0.965
    13   6 C    3.966 --     4 C    1.422    12 C    1.392    42 H    0.962
    14   6 C    3.987 --    15 C    0.998     3 C    0.970    44 H    0.970
                            43 H    0.969
    15   6 C    3.988 --    16 C    1.001    14 C    0.998    46 H    0.975
                            45 H    0.969
    16   6 C    3.909 --    15 C    1.001    48 H    0.949     2 C    0.942
                            17 N    0.895
    17   7 N    3.755 --    30 C    0.963    18 C    0.930    47 H    0.897
                            16 C    0.895
    18   6 C    3.925 --    19 C    0.997    50 H    0.969    49 H    0.968
                            17 N    0.930
    19   6 C    3.985 --    18 C    0.997    20 C    0.994    52 H    0.970
                            51 H    0.968
    20   6 C    3.960 --    21 C    1.429    29 C    1.372    19 C    0.994
    21   6 C    3.971 --    20 C    1.429    22 C    1.405    53 H    0.969
    22   6 C    3.971 --    21 C    1.405    23 C    1.395    54 H    0.964
    23   6 C    3.921 --    22 C    1.395    26 C    1.230    24 O    1.103
    24   8 O    2.267 --    23 C    1.103    25 C    0.977
    25   6 C    3.933 --    57 H    0.977    24 O    0.977    55 H    0.974
                            56 H    0.974
    26   6 C    3.921 --    29 C    1.404    23 C    1.230    27 O    1.095
    27   8 O    2.263 --    26 C    1.095    28 C    0.980
    28   6 C    3.937 --    27 O    0.980    58 H    0.977    59 H    0.975
                            60 H    0.975
    29   6 C    3.969 --    26 C    1.404    20 C    1.372    61 H    0.963
    30   6 C    3.922 --    64 H    0.976    62 H    0.973    17 N    0.963
                            63 H    0.958
    31   6 C    3.982 --    33 C    1.010    32 C    1.009    65 H    0.964
                             3 C    0.944
    32   6 C    3.988 --    31 C    1.009    67 H    0.983    68 H    0.983
                            66 H    0.979
    33   6 C    3.991 --    31 C    1.010    69 H    0.983    71 H    0.982
                            70 H    0.980
    34   1 H    0.997 --     5 C    0.957
    35   1 H    0.995 --     8 C    0.975
    36   1 H    0.993 --     8 C    0.977
    37   1 H    0.996 --     8 C    0.974
    38   1 H    0.995 --    11 C    0.974
    39   1 H    0.993 --    11 C    0.977
    40   1 H    0.996 --    11 C    0.975
    41   1 H    0.997 --    12 C    0.965
    42   1 H    0.999 --    13 C    0.962
    43   1 H    0.996 --    14 C    0.969
    44   1 H    0.997 --    14 C    0.970
    45   1 H    0.997 --    15 C    0.969
    46   1 H    0.997 --    15 C    0.975
    47   1 H    0.950 --    17 N    0.897
    48   1 H    0.990 --    16 C    0.949
    49   1 H    0.993 --    18 C    0.968
    50   1 H    0.994 --    18 C    0.969
    51   1 H    0.996 --    19 C    0.968
    52   1 H    0.996 --    19 C    0.970
    53   1 H    0.998 --    21 C    0.969
    54   1 H    0.996 --    22 C    0.964
    55   1 H    0.995 --    25 C    0.974
    56   1 H    0.995 --    25 C    0.974
    57   1 H    0.993 --    25 C    0.977
    58   1 H    0.993 --    28 C    0.977
    59   1 H    0.996 --    28 C    0.975
    60   1 H    0.996 --    28 C    0.975
    61   1 H    0.997 --    29 C    0.963
    62   1 H    0.990 --    30 C    0.973
    63   1 H    0.988 --    30 C    0.958
    64   1 H    0.992 --    30 C    0.976
    65   1 H    0.997 --    31 C    0.964
    66   1 H    0.995 --    32 C    0.979
    67   1 H    0.998 --    32 C    0.983
    68   1 H    0.996 --    32 C    0.983
    69   1 H    0.997 --    33 C    0.983
    70   1 H    0.999 --    33 C    0.980
    71   1 H    0.996 --    33 C    0.982
    72   1 H    0.983 --     1 N    0.942
 ---------------------------------------------------------------------------

molecular dipole:
                 x           y           z       tot (Debye)
 q only:        0.845      -0.374       0.164
   full:        1.151      -0.359       0.192       3.103

           -------------------------------------------------
          | TOTAL ENERGY              -99.408766933825 Eh   |
          | GRADIENT NORM               0.003585124135 Eh/α |
          | HOMO-LUMO GAP               2.598559815478 eV   |
           -------------------------------------------------

 * finished run on 2024/04/06 at 11:16:52.726
