   * xtb version 6.6.1 (8d0f1dd) compiled by 'conda@1efc2f54142f' on 2023-08-01
          program call               : xtb struc.xyz --opt loose --input .xc1 --gfn2

   ID    Z sym.   atoms
    1    6 C      1, 3, 5-7, 10, 11, 14
    2    7 N      2, 4, 9, 13
    3    8 O      8, 12
    4    1 H      15-25
constraining bond 3 4 to    3.9200000 Å, actual value:    1.3504249 Å

          :  Hamiltonian                  GFN2-xTB          :
 * total energy  :   -30.4584974 Eh     change       -0.6650680E-10 Eh
 * total energy  :   -34.6560352 Eh     change       -0.4197538E+01 Eh
 * total energy  :   -38.2587381 Eh     change       -0.3602703E+01 Eh
 * total energy  :   -40.6623287 Eh     change       -0.2403591E+01 Eh
 * total energy  :   -41.6711398 Eh     change       -0.1008811E+01 Eh
 * total energy  :   -41.8344640 Eh     change       -0.1633241E+00 Eh
 * total energy  :   -41.8493372 Eh     change       -0.1487323E-01 Eh
 * total energy  :   -41.8722379 Eh     change       -0.2290068E-01 Eh
 * total energy  :   -41.8957333 Eh     change       -0.2349546E-01 Eh
 * total energy  :   -41.9131675 Eh     change       -0.1743414E-01 Eh
 * total energy  :   -42.0755621 Eh     change       -0.3924749E-03 Eh
 * total energy  :   -42.0757256 Eh     change       -0.1635324E-03 Eh
 * total energy  :   -42.0759360 Eh     change       -0.2104064E-03 Eh
 * total energy  :   -42.0761117 Eh     change       -0.1756402E-03 Eh
 * total energy  :   -42.0764336 Eh     change       -0.3218944E-03 Eh
 * total energy  :   -42.0765713 Eh     change       -0.1376992E-03 Eh
 * total energy  :   -42.0766427 Eh     change       -0.7146388E-04 Eh
 * total energy  :   -42.0767074 Eh     change       -0.6462708E-04 Eh
 * total energy  :   -42.0767490 Eh     change       -0.4161816E-04 Eh
   *** GEOMETRY OPTIMIZATION CONVERGED AFTER 72 ITERATIONS ***

 final structure:
================
25
 xtb: 6.6.1 (8d0f1dd)
C            3.13572085675646        0.18405678040441       -0.93532648317213
N            2.34951407996008        0.36446470950012        0.27610541302147
C            2.85657039737470        0.86238755027028        1.31643177846855
N            1.10456327808045       -2.27598376164798       -0.25002522899774
C            0.43759882690336       -1.18816465908932       -0.11511675634226
C            0.95407633332644        0.10318877953755        0.20859264813053
C            0.08950771428748        1.19375070804499        0.59517632068883
O            0.51427736987166        2.23067091540497        1.07124468222717
N           -1.25511238246270        0.98404787074983        0.34939072344170
C           -2.18320180013077        2.07017660990175        0.58788307783304
C           -1.80411521288798       -0.21387472228427       -0.08691802112112
O           -2.98831779261373       -0.32178116355253       -0.27398819834918
N           -0.93030562975801       -1.27285865796434       -0.26742967301460
C           -1.48725479506686       -2.55690088231483       -0.62952158042005
H            4.19059060801346        0.10727356398845       -0.67805418006081
H            2.81207791744294       -0.69716963317317       -1.48459446034903
H            2.99481318172483        1.05906491032506       -1.57442986092995
H            2.39687916495196        1.13030842454634        2.24905317865644
H           -1.61480839884050        2.95173097866690        0.87880800734165
H           -2.76088784770610        2.26524019872857       -0.31759853010956
H           -2.88613116111263        1.79783873526493        1.37813841972078
H           -1.14738206051666       -3.31565257708880        0.07726712001086
H           -1.14417424471340       -2.84753343645979       -1.62437484328480
H           -2.57337696486596       -2.48107822075338       -0.61982155544818
H            2.09931007608586       -2.31496447940228       -0.09972038003922

          :  Hamiltonian                  GFN2-xTB          :
         :: total energy             -42.076748990975 Eh    ::
         :: gradient norm              0.001524358616 Eh/a0 ::
         :: HOMO-LUMO gap              0.485766890607 eV    ::
         :: SCC energy               -42.595760567610 Eh    ::
         :: -> dispersion             -0.022598873525 Eh    ::
         :: repulsion energy           0.518812728526 Eh    ::

    * Orbital Energies and Occupations

         #    Occupation            Energy/Eh            Energy/eV
      -------------------------------------------------------------
         1        2.0000           -0.8964666             -24.3941
       ...           ...                  ...                  ...
        25        1.9996           -0.6778465             -18.4451
        26        1.9986           -0.6564498             -17.8629
        27        1.9981           -0.6520723             -17.7438
        28        1.9973           -0.6464702             -17.5913
        29        1.9952           -0.6369446             -17.3321
        30        1.9910           -0.6270309             -17.0624
        31        1.9881           -0.6226031             -16.9419
        32        1.9610           -0.6036139             -16.4252
        33        1.9321           -0.5946203             -16.1804
        34        1.9020           -0.5885608             -16.0156
        35        1.8098           -0.5772689             -15.7083
        36        1.7232           -0.5705564             -15.5256
        37        1.5872           -0.5629261             -15.3180 (HOMO)
        38        1.1093           -0.5450745             -14.8322 (LUMO)
        39        0.0078           -0.4537496             -12.3472
        40        0.0004           -0.4070598             -11.0767
        41        0.0002           -0.3961618             -10.7801
        42        0.0000           -0.3108134              -8.4577
        43                         -0.2164115              -5.8889
        44                         -0.1742611              -4.7419
        45                         -0.1401387              -3.8134
        46                         -0.1011534              -2.7525
        47                         -0.0854734              -2.3259
        48                         -0.0319052              -0.8682
       ...                                ...                  ...
        67                          0.5160180              14.0416
      -------------------------------------------------------------
                  HL-Gap            0.0178516 Eh            0.4858 eV

     #   Z          covCN         q      C6AA      α(0)
     1   6 C        3.712    -0.090    22.354     6.756
     2   7 N        2.731     0.143    18.822     6.444
     3   6 C        1.901    -0.013    31.451     9.057
     4   7 N        1.792    -0.267    27.757     7.804
     5   6 C        2.827     0.165    24.439     8.101
     6   6 C        2.936    -0.038    28.953     8.825
     7   6 C        2.769     0.267    22.498     7.768
     8   8 O        0.859    -0.353    20.757     6.108
     9   7 N        2.743    -0.062    22.445     7.036
    10   6 C        3.705    -0.061    21.831     6.679
    11   6 C        2.717     0.319    21.585     7.605
    12   8 O        0.860    -0.329    20.317     6.043
    13   7 N        2.758    -0.033    21.887     6.948
    14   6 C        3.706    -0.074    22.061     6.714
    15   1 H        0.925     0.123     1.593     1.974
    16   1 H        0.925     0.106     1.735     2.060
    17   1 H        0.924     0.120     1.611     1.985
    18   1 H        0.926     0.158     1.340     1.810
    19   1 H        0.925     0.123     1.592     1.973
    20   1 H        0.924     0.119     1.623     1.992
    21   1 H        0.924     0.119     1.624     1.993
    22   1 H        0.924     0.121     1.604     1.981
    23   1 H        0.924     0.118     1.631     1.997
    24   1 H        0.925     0.128     1.549     1.947
    25   1 H        0.860     0.193     1.140     1.673

Wiberg/Mayer (AO) data.
largest (>0.10) Wiberg bond orders for each atom

     #   Z sym  total        # sym  WBO       # sym  WBO       # sym  WBO
 ---------------------------------------------------------------------------
     1   6 C    3.889 --    15 H    0.967    16 H    0.963     2 N    0.954
                            17 H    0.947
     2   7 N    3.735 --     3 C    1.748     6 C    0.991     1 C    0.954
     3   6 C    2.877 --     2 N    1.748    18 H    0.914
     4   7 N    2.690 --     5 C    1.574    25 H    0.927
     5   6 C    3.953 --     4 N    1.574     6 C    1.157    13 N    1.122
     6   6 C    3.485 --     5 C    1.157     7 C    1.105     2 N    0.991
     7   6 C    3.939 --     8 O    1.624     9 N    1.108     6 C    1.105
     8   8 O    1.912 --     7 C    1.624     9 N    0.113
     9   7 N    3.469 --     7 C    1.108    11 C    1.090    10 C    0.982
                             8 O    0.113    12 O    0.107
    10   6 C    3.863 --     9 N    0.982    19 H    0.960    20 H    0.941
                            21 H    0.937
    11   6 C    3.956 --    12 O    1.677    13 N    1.104     9 N    1.090
    12   8 O    1.975 --    11 C    1.677    13 N    0.111     9 N    0.107
    13   7 N    3.474 --     5 C    1.122    11 C    1.104    14 C    0.984
                            12 O    0.111
    14   6 C    3.862 --    13 N    0.984    24 H    0.957    22 H    0.940
                            23 H    0.938
    15   1 H    0.982 --     1 C    0.967
    16   1 H    0.986 --     1 C    0.963
    17   1 H    0.982 --     1 C    0.947
    18   1 H    0.939 --     3 C    0.914
    19   1 H    0.978 --    10 C    0.960
    20   1 H    0.958 --    10 C    0.941
    21   1 H    0.953 --    10 C    0.937
    22   1 H    0.957 --    14 C    0.940
    23   1 H    0.955 --    14 C    0.938
    24   1 H    0.975 --    14 C    0.957
    25   1 H    0.952 --     4 N    0.927
 ---------------------------------------------------------------------------

molecular dipole:
                 x           y           z       tot (Debye)
 q only:        1.597      -0.698      -0.253
   full:        1.735      -0.551      -0.125       4.638

           -------------------------------------------------
          | TOTAL ENERGY              -42.076748990975 Eh   |
          | GRADIENT NORM               0.001524358616 Eh/α |
          | HOMO-LUMO GAP               0.485766890607 eV   |
           -------------------------------------------------

 * finished run on 2024/06/05 at 19:57:55.394
