   * xtb version 6.6.1 (8d0f1dd) compiled by 'conda@1efc2f54142f' on 2023-08-01
          program call               : xtb struc.xyz --opt loose --input .xc1 --gfn2

   ID    Z sym.   atoms
    1    6 C      1, 3, 5-7, 10, 11, 14
    2    7 N      2, 4, 9, 13
    3    8 O      8, 12
    4    1 H      15-25
constraining bond 4 7 to    5.9200000 Å, actual value:    3.5994291 Å

          :  Hamiltonian                  GFN2-xTB          :
 * total energy  :   -32.6326800 Eh     change       -0.6650680E-10 Eh
 * total energy  :   -36.3687590 Eh     change       -0.3736079E+01 Eh
 * total energy  :   -39.0644317 Eh     change       -0.2695673E+01 Eh
 * total energy  :   -40.9040984 Eh     change       -0.1839667E+01 Eh
 * total energy  :   -41.6820684 Eh     change       -0.7779700E+00 Eh
 * total energy  :   -41.7882868 Eh     change       -0.1062184E+00 Eh
 * total energy  :   -41.8110572 Eh     change       -0.2277032E-01 Eh
 * total energy  :   -41.8708729 Eh     change       -0.5981578E-01 Eh
 * total energy  :   -41.8925346 Eh     change       -0.2166165E-01 Eh
 * total energy  :   -41.9117673 Eh     change       -0.1923267E-01 Eh
 * total energy  :   -42.1047463 Eh     change       -0.4930294E-02 Eh
 * total energy  :   -42.1062774 Eh     change       -0.1531119E-02 Eh
 * total energy  :   -42.1071137 Eh     change       -0.8363125E-03 Eh
 * total energy  :   -42.1074305 Eh     change       -0.3167167E-03 Eh
 * total energy  :   -42.1075768 Eh     change       -0.1463171E-03 Eh
 * total energy  :   -42.1076549 Eh     change       -0.7807185E-04 Eh
 * total energy  :   -42.1077149 Eh     change       -0.6008577E-04 Eh
 * total energy  :   -42.1077702 Eh     change       -0.5522238E-04 Eh
 * total energy  :   -42.1078197 Eh     change       -0.4956625E-04 Eh
   *** GEOMETRY OPTIMIZATION CONVERGED AFTER 53 ITERATIONS ***

 final structure:
================
25
 xtb: 6.6.1 (8d0f1dd)
C            3.02799608579655        0.63237367577858        0.13043526973910
N            2.42155569641562       -0.69838904333292       -0.03525806892283
C            3.39864065071014       -1.75514619890145       -0.08525807236117
N            3.39536717353777       -3.00300246656502       -0.13766092737622
C           -0.06805303730636       -0.10457265406880       -0.05166665658586
C            1.11100832096667       -0.73523578327323       -0.07402075393706
C           -0.51122197571795        1.42814101119764       -0.08999496076873
O            0.24500189634484        2.35429027937000       -0.12310089612995
N           -1.85433605162934        1.38366842636085       -0.03716957488010
C           -2.70721065424379        2.55042893366182       -0.04215741450614
C           -2.36159945092127        0.08404196630495        0.02092134984703
O           -3.51154985288253       -0.23454778244796        0.06480722182205
N           -1.26918190098549       -0.77257217588228        0.02001812189766
C           -1.42816157088472       -2.19841458362605        0.07047578453963
H            3.56494132294931        0.68582199845770        1.07873336104187
H            3.71840404486600        0.82035712774005       -0.69347766009363
H            2.25664917888015        1.40411965760825        0.11529213871669
H            4.38431356941403       -1.29768405083818       -0.04844585637536
H           -2.08182667997160        3.44055276283027       -0.05591335261651
H           -3.35259207098144        2.53244464461773       -0.92129163921235
H           -3.33490907771577        2.54712612753729        0.85012146062787
H           -0.96645386081232       -2.60513628100087        0.97214304964901
H           -0.97161822872229       -2.66279034273696       -0.80566967928066
H           -2.49668757705068       -2.41368559030496        0.08271525804321
H            2.55195556404521       -3.56395111689139       -0.17340588497825

          :  Hamiltonian                  GFN2-xTB          :
         :: total energy             -42.107819736675 Eh    ::
         :: gradient norm              0.002856425933 Eh/a0 ::
         :: HOMO-LUMO gap              0.560615781804 eV    ::
         :: SCC energy               -42.638180841203 Eh    ::
         :: -> dispersion             -0.020402210283 Eh    ::
         :: repulsion energy           0.530032591079 Eh    ::

    * Orbital Energies and Occupations

         #    Occupation            Energy/Eh            Energy/eV
      -------------------------------------------------------------
         1        2.0000           -0.8988030             -24.4577
       ...           ...                  ...                  ...
        25        1.9995           -0.6566389             -17.8681
        26        1.9994           -0.6536409             -17.7865
        27        1.9992           -0.6497147             -17.6796
        28        1.9985           -0.6405271             -17.4296
        29        1.9984           -0.6395285             -17.4025
        30        1.9979           -0.6344707             -17.2648
        31        1.9964           -0.6262771             -17.0419
        32        1.9910           -0.6116456             -16.6437
        33        1.9865           -0.6052248             -16.4690
        34        1.9635           -0.5892294             -16.0337
        35        1.9441           -0.5823511             -15.8466
        36        1.8637           -0.5675544             -15.4439
        37        1.4341           -0.5408707             -14.7178 (HOMO)
        38        0.8165           -0.5202684             -14.1572 (LUMO)
        39        0.0111           -0.4439937             -12.0817
        40        0.0005           -0.3934255             -10.7057
        41        0.0000           -0.3476645              -9.4604
        42        0.0000           -0.3233728              -8.7994
        43                         -0.2167813              -5.8989
        44                         -0.1863431              -5.0707
        45                         -0.1763343              -4.7983
        46                         -0.0916524              -2.4940
        47                         -0.0910124              -2.4766
        48                         -0.0602622              -1.6398
       ...                                ...                  ...
        67                          0.6221133              16.9286
      -------------------------------------------------------------
                  HL-Gap            0.0206023 Eh            0.5606 eV

     #   Z          covCN         q      C6AA      α(0)
     1   6 C        3.717    -0.085    22.257     6.739
     2   7 N        2.725     0.047    20.425     6.712
     3   6 C        2.759     0.122    25.313     8.239
     4   7 N        1.771    -0.196    26.035     7.555
     5   6 C        2.931     0.020    27.572     8.611
     6   6 C        1.929     0.025    30.454     8.912
     7   6 C        2.815     0.281    22.252     7.729
     8   8 O        0.856    -0.305    19.869     5.976
     9   7 N        2.774    -0.055    22.293     7.012
    10   6 C        3.692    -0.060    21.843     6.687
    11   6 C        2.800     0.322    21.541     7.603
    12   8 O        0.857    -0.319    20.133     6.016
    13   7 N        2.780    -0.023    21.694     6.918
    14   6 C        3.692    -0.070    22.024     6.715
    15   1 H        0.924     0.107     1.723     2.053
    16   1 H        0.924     0.111     1.689     2.033
    17   1 H        0.924     0.117     1.636     2.000
    18   1 H        0.925     0.120     1.610     1.984
    19   1 H        0.925     0.110     1.693     2.035
    20   1 H        0.924     0.110     1.700     2.039
    21   1 H        0.924     0.110     1.698     2.038
    22   1 H        0.924     0.097     1.817     2.108
    23   1 H        0.924     0.096     1.824     2.112
    24   1 H        0.925     0.122     1.598     1.977
    25   1 H        0.860     0.198     1.117     1.656

Wiberg/Mayer (AO) data.
largest (>0.10) Wiberg bond orders for each atom

     #   Z sym  total        # sym  WBO       # sym  WBO       # sym  WBO
 ---------------------------------------------------------------------------
     1   6 C    3.849 --    17 H    0.959    15 H    0.956    16 H    0.952
                             2 N    0.933
     2   7 N    3.496 --     6 C    1.379     3 C    1.020     1 C    0.933
     3   6 C    3.918 --     4 N    1.922     2 N    1.020    18 H    0.923
     4   7 N    2.992 --     3 C    1.922    25 H    0.923
     5   6 C    3.761 --     6 C    1.588    13 N    1.148     7 C    0.815
     6   6 C    3.215 --     5 C    1.588     2 N    1.379
     7   6 C    3.861 --     8 O    1.743     9 N    1.210     5 C    0.815
     8   8 O    2.076 --     7 C    1.743     9 N    0.140
     9   7 N    3.538 --     7 C    1.210    11 C    1.050    10 C    0.969
                             8 O    0.140    12 O    0.105
    10   6 C    3.889 --    19 H    0.970     9 N    0.969    21 H    0.955
                            20 H    0.954
    11   6 C    3.941 --    12 O    1.723    13 N    1.081     9 N    1.050
    12   8 O    2.017 --    11 C    1.723    13 N    0.107     9 N    0.105
    13   7 N    3.421 --     5 C    1.148    11 C    1.081    14 C    0.992
                            12 O    0.107
    14   6 C    3.910 --    13 N    0.992    24 H    0.965    23 H    0.956
                            22 H    0.955
    15   1 H    0.972 --     1 C    0.956
    16   1 H    0.971 --     1 C    0.952
    17   1 H    0.983 --     1 C    0.959
    18   1 H    0.969 --     3 C    0.923
    19   1 H    0.983 --    10 C    0.970
    20   1 H    0.973 --    10 C    0.954
    21   1 H    0.974 --    10 C    0.955
    22   1 H    0.971 --    14 C    0.955
    23   1 H    0.972 --    14 C    0.956
    24   1 H    0.983 --    14 C    0.965
    25   1 H    0.950 --     4 N    0.923
 ---------------------------------------------------------------------------

molecular dipole:
                 x           y           z       tot (Debye)
 q only:        1.515      -0.757       0.044
   full:        1.304      -0.634       0.045       3.687

           -------------------------------------------------
          | TOTAL ENERGY              -42.107819736675 Eh   |
          | GRADIENT NORM               0.002856425933 Eh/α |
          | HOMO-LUMO GAP               0.560615781804 eV   |
           -------------------------------------------------

 * finished run on 2024/06/05 at 20:00:10.201
