   * xtb version 6.6.1 (8d0f1dd) compiled by 'conda@1efc2f54142f' on 2023-08-01
          program call               : xtb xtbopt.xyz --opt crude --input .xc2 --gfn2

   ID    Z sym.   atoms
    1    6 C      1, 3, 5-7, 10, 11, 14
    2    7 N      2, 4, 9, 13
    3    8 O      8, 12
    4    1 H      15-25
########################################################################
[WARNING] Please study the warnings concerning your input carefully
-1- readin_getIntValue: could not parse ''
########################################################################

          :  Hamiltonian                  GFN2-xTB          :
 * total energy  :   -42.1080980 Eh     change       -0.1143974E-11 Eh
 * total energy  :   -42.1132571 Eh     change       -0.5159065E-02 Eh
 * total energy  :   -42.1173973 Eh     change       -0.4140248E-02 Eh
 * total energy  :   -42.1185315 Eh     change       -0.1134186E-02 Eh
 * total energy  :   -42.1190104 Eh     change       -0.4788921E-03 Eh
   *** GEOMETRY OPTIMIZATION CONVERGED AFTER 5 ITERATIONS ***

 final structure:
================
25
 xtb: 6.6.1 (8d0f1dd)
C            3.03005524711907        0.75355727533728        0.17705445838399
N            2.43411888209812       -0.56854348357889       -0.01171001346860
C            3.32784345164841       -1.63945953031537       -0.12076248859863
N            3.08959297502353       -2.85852201227746       -0.21130926147975
C           -0.06634393413722       -0.20015002897854       -0.03290289401848
C            1.14129190030469       -0.75433867942511       -0.03438995833373
C           -0.41519741216861        1.28061170646523       -0.11036735752067
O            0.35041641562062        2.20453302688218       -0.16980912436339
N           -1.77197540728098        1.31086313096081       -0.05766923379935
C           -2.58743852515109        2.50258955434406       -0.06534104951415
C           -2.33183228883231        0.03540142751290        0.02143813105929
O           -3.49371092568107       -0.23627240068312        0.07058008986933
N           -1.26934863019962       -0.85814923951435        0.03583123826101
C           -1.45185554775411       -2.28010574210138        0.09462193269588
H            3.57639806837634        0.78374608197653        1.12039358906678
H            3.71792008976914        0.95004237934810       -0.64650393755242
H            2.26039255926716        1.52424988639486        0.17835649310545
H            4.36847711473208       -1.32393405902266       -0.10593697684732
H           -1.93801290837679        3.37544094775677       -0.08246367659363
H           -3.23522350081233        2.49826248766834       -0.94350450596385
H           -3.21491256075780        2.51608138035228        0.82744826581234
H           -1.00080526928742       -2.68991264044307        1.00018127841180
H           -1.00108527450751       -2.75628671319195       -0.77834771927482
H           -2.52371439586885       -2.47685592987253        0.10329569307553
H            2.16538139095649       -3.27461028399946       -0.22701135451249

          :  Hamiltonian                  GFN2-xTB          :
         :: total energy             -42.119010386802 Eh    ::
         :: gradient norm              0.008481354282 Eh/a0 ::
         :: HOMO-LUMO gap              0.538294667390 eV    ::
         :: SCC energy               -42.661767567496 Eh    ::
         :: -> dispersion             -0.020805041003 Eh    ::
         :: repulsion energy           0.542689084828 Eh    ::

    * Orbital Energies and Occupations

         #    Occupation            Energy/Eh            Energy/eV
      -------------------------------------------------------------
         1        2.0000           -0.8996799             -24.4815
       ...           ...                  ...                  ...
        25        1.9994           -0.6575332             -17.8924
        26        1.9992           -0.6537994             -17.7908
        27        1.9991           -0.6508320             -17.7100
        28        1.9985           -0.6433740             -17.5071
        29        1.9983           -0.6411927             -17.4477
        30        1.9976           -0.6356821             -17.2978
        31        1.9957           -0.6263456             -17.0437
        32        1.9886           -0.6107328             -16.6189
        33        1.9836           -0.6049564             -16.4617
        34        1.9562           -0.5892275             -16.0337
        35        1.9291           -0.5813785             -15.8201
        36        1.8172           -0.5654375             -15.3863
        37        1.4569           -0.5446991             -14.8220 (HOMO)
        38        0.8695           -0.5249171             -14.2837 (LUMO)
        39        0.0111           -0.4469421             -12.1619
        40        0.0003           -0.3893253             -10.5941
        41        0.0000           -0.3501244              -9.5274
        42        0.0000           -0.3160946              -8.6014
        43                         -0.1968853              -5.3575
        44                         -0.1708430              -4.6489
        45                         -0.1491017              -4.0573
        46                         -0.0809634              -2.2031
        47                         -0.0666032              -1.8124
        48                         -0.0502283              -1.3668
       ...                                ...                  ...
        67                          0.6345333              17.2665
      -------------------------------------------------------------
                  HL-Gap            0.0197820 Eh            0.5383 eV

     #   Z          covCN         q      C6AA      α(0)
     1   6 C        3.703    -0.091    22.405     6.768
     2   7 N        2.730     0.062    20.168     6.670
     3   6 C        2.783     0.126    25.229     8.227
     4   7 N        1.773    -0.202    26.192     7.579
     5   6 C        2.971     0.028    27.372     8.582
     6   6 C        1.936     0.014    30.740     8.954
     7   6 C        2.830     0.278    22.300     7.738
     8   8 O        0.857    -0.320    20.152     6.019
     9   7 N        2.790    -0.061    22.416     7.032
    10   6 C        3.691    -0.059    21.836     6.687
    11   6 C        2.815     0.321    21.548     7.606
    12   8 O        0.857    -0.318    20.106     6.012
    13   7 N        2.785    -0.023    21.696     6.918
    14   6 C        3.691    -0.069    22.021     6.715
    15   1 H        0.924     0.107     1.719     2.050
    16   1 H        0.924     0.112     1.680     2.027
    17   1 H        0.925     0.126     1.564     1.956
    18   1 H        0.925     0.122     1.599     1.977
    19   1 H        0.925     0.111     1.684     2.029
    20   1 H        0.924     0.111     1.687     2.031
    21   1 H        0.924     0.111     1.691     2.034
    22   1 H        0.924     0.099     1.797     2.096
    23   1 H        0.924     0.097     1.811     2.104
    24   1 H        0.925     0.122     1.595     1.975
    25   1 H        0.860     0.197     1.120     1.658

Wiberg/Mayer (AO) data.
largest (>0.10) Wiberg bond orders for each atom

     #   Z sym  total        # sym  WBO       # sym  WBO       # sym  WBO
 ---------------------------------------------------------------------------
     1   6 C    3.842 --    15 H    0.954    17 H    0.951    16 H    0.950
                             2 N    0.937
     2   7 N    3.520 --     6 C    1.372     3 C    1.059     1 C    0.937
     3   6 C    3.918 --     4 N    1.883     2 N    1.059    18 H    0.924
     4   7 N    2.938 --     3 C    1.883    25 H    0.922
     5   6 C    3.777 --     6 C    1.560    13 N    1.147     7 C    0.880
     6   6 C    3.183 --     5 C    1.560     2 N    1.372
     7   6 C    3.864 --     8 O    1.709     9 N    1.180     5 C    0.880
     8   8 O    2.039 --     7 C    1.709     9 N    0.135
     9   7 N    3.520 --     7 C    1.180    11 C    1.058    10 C    0.975
                             8 O    0.135    12 O    0.106
    10   6 C    3.885 --     9 N    0.975    19 H    0.969    21 H    0.952
                            20 H    0.950
    11   6 C    3.941 --    12 O    1.720    13 N    1.078     9 N    1.058
    12   8 O    2.011 --    11 C    1.720     9 N    0.106    13 N    0.106
    13   7 N    3.420 --     5 C    1.147    11 C    1.078    14 C    0.993
                            12 O    0.106
    14   6 C    3.908 --    13 N    0.993    24 H    0.965    23 H    0.955
                            22 H    0.954
    15   1 H    0.971 --     1 C    0.954
    16   1 H    0.969 --     1 C    0.950
    17   1 H    0.979 --     1 C    0.951
    18   1 H    0.968 --     3 C    0.924
    19   1 H    0.982 --    10 C    0.969
    20   1 H    0.969 --    10 C    0.950
    21   1 H    0.970 --    10 C    0.952
    22   1 H    0.969 --    14 C    0.954
    23   1 H    0.971 --    14 C    0.955
    24   1 H    0.982 --    14 C    0.965
    25   1 H    0.950 --     4 N    0.922
 ---------------------------------------------------------------------------

molecular dipole:
                 x           y           z       tot (Debye)
 q only:        1.538      -0.736       0.082
   full:        1.380      -0.565       0.106       3.800

           -------------------------------------------------
          | TOTAL ENERGY              -42.119010386802 Eh   |
          | GRADIENT NORM               0.008481354282 Eh/α |
          | HOMO-LUMO GAP               0.538294667390 eV   |
           -------------------------------------------------

 * finished run on 2024/06/05 at 20:00:10.461
