   * xtb version 6.6.1 (8d0f1dd) compiled by 'conda@1efc2f54142f' on 2023-08-01
          program call               : xtb xtbopt.xyz --opt crude --input .xc2 --gfn2

   ID    Z sym.   atoms
    1    6 C      1, 3, 5-7, 10, 11, 14
    2    7 N      2, 4, 9, 13
    3    8 O      8, 12
    4    1 H      15-25
########################################################################
[WARNING] Please study the warnings concerning your input carefully
-1- readin_getIntValue: could not parse ''
########################################################################

          :  Hamiltonian                  GFN2-xTB          :
 * total energy  :   -42.1203925 Eh     change       -0.2088996E-11 Eh
 * total energy  :   -42.1221824 Eh     change       -0.1789916E-02 Eh
 * total energy  :   -42.1243398 Eh     change       -0.2157436E-02 Eh
 * total energy  :   -42.1255264 Eh     change       -0.1186603E-02 Eh
 * total energy  :   -42.1260695 Eh     change       -0.5431166E-03 Eh
 * total energy  :   -42.1262767 Eh     change       -0.2071586E-03 Eh
   *** GEOMETRY OPTIMIZATION CONVERGED AFTER 6 ITERATIONS ***

 final structure:
================
25
 xtb: 6.6.1 (8d0f1dd)
C            3.90028688722967        0.63486739612250        0.10336575683722
N            3.51585420728261       -0.55448903489692        0.32088561509840
C            2.74825915519013       -1.52929499567740       -0.02040628998317
N            1.39679473189767       -1.58903176006788       -0.17775860897346
C            0.41549129005687       -0.64037868920023       -0.06746535117049
C            0.62994545310422        0.72822206696161       -0.05765520877366
C           -0.43442306751249        1.61111180624255       -0.03156763519737
O           -0.17278838686770        2.91612876632573       -0.01509592909440
N           -1.72476970399008        1.14951961889659       -0.05673413265825
C           -2.80929972702157        1.93738703093402       -0.14654648160680
C           -1.97941727205142       -0.26028930212767        0.03539906693337
O           -3.10917904268848       -0.66189223390978        0.11487704914725
N           -0.88598416416329       -1.09354219512927        0.02281236821852
C           -1.17677377946538       -2.51517090253788        0.14767693344511
H            4.55955387042548        1.08513579394685        0.83061209242676
H            3.68868658332193        1.18120792827903       -0.81125573257767
H            1.61457914140826        1.15218176424269       -0.07397718832660
H            3.22620368163920       -2.50241683973852       -0.05646518496311
H           -0.95803764092301        3.45907514742626        0.14266120245308
H           -2.72869758902533        2.99363525336478       -0.30851604416090
H           -3.76753837384465        1.45709624177689       -0.12460225348058
H           -0.63197372985838       -2.94567311509214        0.98868139460141
H           -0.95604798055549       -3.04887660534722       -0.77853439315788
H           -2.24461642187775       -2.61370172190149        0.34275783980172
H            1.04432339238885       -2.53257287729228       -0.29197726693951

          :  Hamiltonian                  GFN2-xTB          :
         :: total energy             -42.126276701299 Eh    ::
         :: gradient norm              0.004302135279 Eh/a0 ::
         :: HOMO-LUMO gap              0.911398230138 eV    ::
         :: SCC energy               -42.673713409296 Eh    ::
         :: -> dispersion             -0.021990888462 Eh    ::
         :: repulsion energy           0.547361121782 Eh    ::

    * Orbital Energies and Occupations

         #    Occupation            Energy/Eh            Energy/eV
      -------------------------------------------------------------
         1        2.0000           -0.8839321             -24.0530
       ...           ...                  ...                  ...
        25        2.0000           -0.6694365             -18.2163
        26        2.0000           -0.6540782             -17.7984
        27        2.0000           -0.6464836             -17.5917
        28        2.0000           -0.6430675             -17.4988
        29        2.0000           -0.6320010             -17.1976
        30        1.9999           -0.6273217             -17.0703
        31        1.9999           -0.6167229             -16.7819
        32        1.9998           -0.6119439             -16.6518
        33        1.9997           -0.6023291             -16.3902
        34        1.9982           -0.5755091             -15.6604
        35        1.9966           -0.5649565             -15.3732
        36        1.9937           -0.5552425             -15.1089
        37        1.4560           -0.4797627             -13.0550 (HOMO)
        38        0.4880           -0.4462695             -12.1436 (LUMO)
        39        0.0546           -0.4076008             -11.0914
        40        0.0104           -0.3810406             -10.3686
        41        0.0032           -0.3623786              -9.8608
        42        0.0000           -0.2832975              -7.7089
        43                         -0.1897947              -5.1646
        44                         -0.1509982              -4.1089
        45                         -0.1255623              -3.4167
        46                         -0.0971234              -2.6429
        47                         -0.0811596              -2.2085
        48                         -0.0593855              -1.6160
       ...                                ...                  ...
        67                          0.6063935              16.5008
      -------------------------------------------------------------
                  HL-Gap            0.0334933 Eh            0.9114 eV

     #   Z          covCN         q      C6AA      α(0)
     1   6 C        2.769     0.003    27.943     8.657
     2   7 N        1.823    -0.060    23.119     7.125
     3   6 C        2.757     0.082    26.149     8.374
     4   7 N        2.690    -0.092    23.034     7.128
     5   6 C        2.837     0.106    25.644     8.299
     6   6 C        2.908    -0.104    30.618     9.073
     7   6 C        2.788     0.193    23.887     8.006
     8   8 O        1.661    -0.338    19.686     5.990
     9   7 N        2.739    -0.006    21.380     6.867
    10   6 C        2.808    -0.069    29.703     8.929
    11   6 C        2.743     0.308    21.764     7.638
    12   8 O        0.859    -0.369    21.062     6.153
    13   7 N        2.746    -0.057    22.336     7.019
    14   6 C        3.704    -0.077    22.123     6.724
    15   1 H        0.926     0.114     1.660     2.015
    16   1 H        0.925     0.092     1.864     2.135
    17   1 H        0.926     0.103     1.760     2.075
    18   1 H        0.925     0.106     1.734     2.059
    19   1 H        0.805     0.343     0.604     1.221
    20   1 H        0.926     0.082     1.954     2.186
    21   1 H        0.926     0.121     1.603     1.980
    22   1 H        0.924     0.082     1.962     2.191
    23   1 H        0.924     0.082     1.959     2.189
    24   1 H        0.925     0.129     1.542     1.942
    25   1 H        0.860     0.224     0.991     1.559

Wiberg/Mayer (AO) data.
largest (>0.10) Wiberg bond orders for each atom

     #   Z sym  total        # sym  WBO       # sym  WBO       # sym  WBO
 ---------------------------------------------------------------------------
     1   6 C    3.689 --     2 N    1.690    15 H    0.949    16 H    0.934
     2   7 N    3.318 --     1 C    1.690     3 C    1.488
     3   6 C    3.759 --     2 N    1.488     4 N    1.205    18 H    0.930
     4   7 N    3.510 --     3 C    1.205     5 C    1.159    25 H    0.905
     5   6 C    3.822 --     6 C    1.352     4 N    1.159    13 N    1.133
     6   6 C    3.923 --     7 C    1.368     5 C    1.352    17 H    0.945
     7   6 C    3.814 --     6 C    1.368     8 O    1.140     9 N    1.139
     8   8 O    2.159 --     7 C    1.140    19 H    0.845
     9   7 N    3.644 --    10 C    1.303     7 C    1.139    11 C    0.980
    10   6 C    3.437 --     9 N    1.303    20 H    0.962    21 H    0.961
    11   6 C    3.923 --    12 O    1.692    13 N    1.146     9 N    0.980
    12   8 O    2.030 --    11 C    1.692    13 N    0.153
    13   7 N    3.548 --    11 C    1.146     5 C    1.133    14 C    0.976
                            12 O    0.153
    14   6 C    3.931 --    13 N    0.976    22 H    0.970    23 H    0.966
                            24 H    0.959
    15   1 H    0.979 --     1 C    0.949
    16   1 H    0.975 --     1 C    0.934
    17   1 H    0.988 --     6 C    0.945
    18   1 H    0.979 --     3 C    0.930
    19   1 H    0.881 --     8 O    0.845
    20   1 H    0.992 --    10 C    0.962
    21   1 H    0.985 --    10 C    0.961
    22   1 H    0.991 --    14 C    0.970
    23   1 H    0.990 --    14 C    0.966
    24   1 H    0.983 --    14 C    0.959
    25   1 H    0.949 --     4 N    0.905
 ---------------------------------------------------------------------------

molecular dipole:
                 x           y           z       tot (Debye)
 q only:        1.707      -0.350      -0.054
   full:        1.586      -0.239      -0.154       4.096

           -------------------------------------------------
          | TOTAL ENERGY              -42.126276701299 Eh   |
          | GRADIENT NORM               0.004302135279 Eh/α |
          | HOMO-LUMO GAP               0.911398230138 eV   |
           -------------------------------------------------

 * finished run on 2024/06/05 at 19:57:54.414
