   * xtb version 6.6.1 (8d0f1dd) compiled by 'conda@1efc2f54142f' on 2023-08-01
          program call               : xtb struc.xyz --opt loose --input .xc1 --gfn2

   ID    Z sym.   atoms
    1    6 C      1, 3, 5-7, 10, 11, 14
    2    7 N      2, 4, 9, 13
    3    8 O      8, 12
    4    1 H      15-25
constraining bond 7 15 to    4.7133300 Å, actual value:    3.7773936 Å

          :  Hamiltonian                  GFN2-xTB          :
 * total energy  :   -43.8093683 Eh     change       -0.6633627E-10 Eh
 * total energy  :   -47.1172113 Eh     change       -0.3307843E+01 Eh
 * total energy  :   -52.2835373 Eh     change       -0.5166326E+01 Eh
 * total energy  :   -59.4213843 Eh     change       -0.7137847E+01 Eh
 * total energy  :   -68.5011839 Eh     change       -0.9079800E+01 Eh
 * total energy  :   -55.5924992 Eh     change        0.1290868E+02 Eh
 * total energy  :   -71.9725311 Eh     change       -0.1638003E+02 Eh
 * total energy  :   -72.1700135 Eh     change       -0.1974824E+00 Eh
 * total energy  :   -72.9045270 Eh     change       -0.7345135E+00 Eh
 * total energy  :   -73.0974123 Eh     change       -0.1928853E+00 Eh
 * total energy  :   -73.2740983 Eh     change       -0.1598002E-03 Eh
 * total energy  :   -73.2737045 Eh     change        0.3937535E-03 Eh
 * total energy  :   -73.2742646 Eh     change       -0.5600972E-03 Eh
 * total energy  :   -73.2743249 Eh     change       -0.6031346E-04 Eh
 * total energy  :   -73.2744439 Eh     change       -0.1189930E-03 Eh
 * total energy  :   -73.2744858 Eh     change       -0.4183539E-04 Eh
 * total energy  :   -73.2745404 Eh     change       -0.5463579E-04 Eh
 * total energy  :   -73.2745762 Eh     change       -0.3583184E-04 Eh
 * total energy  :   -73.2745946 Eh     change       -0.1836743E-04 Eh
   *** GEOMETRY OPTIMIZATION CONVERGED AFTER 59 ITERATIONS ***

 final structure:
================
25
 xtb: 6.6.1 (8d0f1dd)
C            3.32159480420356        0.97989027108996       -0.15532711850451
N            2.41276430184788        0.00835055126784       -0.12259601095546
C            2.60836673486024       -1.31312928521903       -0.37661511134023
N            1.43541327299906       -1.96814636871127       -0.26831585662229
C            0.45999445865391       -1.06050034777924        0.06668324721103
C            1.07055032168158        0.16564714096762        0.16077295987835
C            0.29432162199163        1.44436174080865        0.61429584324693
O            0.73440067937098        2.53226120362835        0.02177054524422
N           -1.16953219195243        1.07060813528090        0.10593501205476
C           -2.01701128402958        2.20490152287574       -0.12440754585326
C           -1.75155619035669       -0.16020767841983        0.16181965223224
O           -2.93641759558476       -0.34454728197266        0.10396862371552
N           -0.86217090060749       -1.27541900033225        0.20725982472055
C           -1.42763840667108       -2.60777334077838        0.16143660612360
H            0.25523835686156        1.45348869312424        0.99569676738629
H            4.34069604442846        0.74368533130115       -0.39992749176465
H            2.99685761346622        1.99178058025470        0.02182586093260
H            3.54851851086199       -1.75875387457295       -0.63156611758032
H           -1.38443760539977        3.02838761043982       -0.45634923442411
H           -2.76086920190158        1.95764749109576       -0.88090763985433
H           -2.55158078441359        2.49245939317938        0.78619025598481
H           -0.97342268959236       -3.23418248975972        0.92861120277933
H           -1.29478354495328       -3.06001638604194       -0.82319139665999
H           -2.49543772275408       -2.51397283991844        0.35595327728528
H            1.30657291108941       -2.95858223020795       -0.42184453733532

          :  Hamiltonian                  GFN2-xTB          :
         :: total energy             -73.274594599564 Eh    ::
         :: gradient norm              0.003302247702 Eh/a0 ::
         :: HOMO-LUMO gap              0.082393499540 eV    ::
         :: SCC energy               -42.594989991909 Eh    ::
         :: -> dispersion             -0.022785447233 Eh    ::
         :: repulsion energy           2.794282678281 Eh    ::

    * Orbital Energies and Occupations

         #    Occupation            Energy/Eh            Energy/eV
      -------------------------------------------------------------
         1        2.0000           -0.9196675             -25.0254
       ...           ...                  ...                  ...
        25        2.0000           -0.6711042             -18.2617
        26        2.0000           -0.6611002             -17.9895
        27        2.0000           -0.6576400             -17.8953
        28        2.0000           -0.6468425             -17.6015
        29        2.0000           -0.6316481             -17.1880
        30        2.0000           -0.6248437             -17.0029
        31        2.0000           -0.6210867             -16.9006
        32        1.9998           -0.5987091             -16.2917
        33        1.9983           -0.5795746             -15.7710
        34        1.9856           -0.5627120             -15.3122
        35        1.9491           -0.5525485             -15.0356
        36        1.9360           -0.5506771             -14.9847
        37        1.1605           -0.5262502             -14.3200 (HOMO)
        38        0.9707           -0.5232223             -14.2376 (LUMO)
        39        0.0000           -0.4110146             -11.1843
        40                         -0.3844795             -10.4622
        41                         -0.3338590              -9.0848
        42                         -0.2524323              -6.8690
        43                         -0.2047818              -5.5724
        44                         -0.1787917              -4.8652
        45                         -0.1711613              -4.6575
        46                         -0.0955933              -2.6012
        47                         -0.0799125              -2.1745
        48                         -0.0490582              -1.3349
       ...                                ...                  ...
        67                         13.5905150             369.8167
      -------------------------------------------------------------
                  HL-Gap            0.0030279 Eh            0.0824 eV

     #   Z          covCN         q      C6AA      α(0)
     1   6 C        2.790    -0.049    29.195     8.851
     2   7 N        2.820     0.134    18.964     6.468
     3   6 C        3.034     0.037    27.149     8.546
     4   7 N        2.789    -0.050    22.211     7.000
     5   6 C        3.015     0.114    25.470     8.279
     6   6 C        3.107    -0.028    28.562     8.756
     7   6 C        3.645     0.149    18.488     6.180
     8   8 O        0.866    -0.433    22.352     6.339
     9   7 N        2.717    -0.126    23.739     7.236
    10   6 C        3.700    -0.056    21.746     6.669
    11   6 C        2.717     0.319    21.586     7.605
    12   8 O        0.859    -0.358    20.857     6.123
    13   7 N        2.738    -0.066    22.513     7.047
    14   6 C        3.697    -0.071    22.039     6.715
    15   1 H        0.954     0.214     1.030     1.586
    16   1 H        0.926     0.122     1.601     1.978
    17   1 H        0.926     0.157     1.345     1.814
    18   1 H        0.926     0.130     1.534     1.937
    19   1 H        0.925     0.119     1.620     1.990
    20   1 H        0.925     0.113     1.674     2.023
    21   1 H        0.924     0.105     1.742     2.064
    22   1 H        0.925     0.082     1.959     2.189
    23   1 H        0.924     0.082     1.958     2.188
    24   1 H        0.925     0.128     1.552     1.948
    25   1 H        0.860     0.235     0.945     1.523

Wiberg/Mayer (AO) data.
largest (>0.10) Wiberg bond orders for each atom

     #   Z sym  total        # sym  WBO       # sym  WBO       # sym  WBO
 ---------------------------------------------------------------------------
     1   6 C    3.342 --     2 N    1.324    16 H    0.964    17 H    0.950
     2   7 N    3.764 --     1 C    1.324     3 C    1.220     6 C    1.122
     3   6 C    3.657 --     4 N    1.304     2 N    1.220    18 H    0.952
     4   7 N    3.524 --     3 C    1.304     5 C    1.150    25 H    0.916
     5   6 C    3.937 --     6 C    1.419    13 N    1.203     4 N    1.150
     6   6 C    3.765 --     5 C    1.419     2 N    1.122     7 C    0.885
     7   6 C    3.870 --     8 O    1.273     6 C    0.885    15 H    0.857
                             9 N    0.781
     8   8 O    1.546 --     7 C    1.273     9 N    0.127
     9   7 N    3.316 --    11 C    1.181    10 C    1.016     7 C    0.781
                            12 O    0.139     8 O    0.127
    10   6 C    3.897 --     9 N    1.016    19 H    0.958    20 H    0.942
                            21 H    0.929
    11   6 C    3.952 --    12 O    1.692     9 N    1.181    13 N    0.997
    12   8 O    2.034 --    11 C    1.692     9 N    0.139    13 N    0.112
    13   7 N    3.475 --     5 C    1.203    11 C    0.997    14 C    0.981
                            12 O    0.112
    14   6 C    3.923 --    13 N    0.981    22 H    0.970    23 H    0.965
                            24 H    0.963
    15   1 H    0.906 --     7 C    0.857
    16   1 H    0.984 --     1 C    0.964
    17   1 H    0.975 --     1 C    0.950
    18   1 H    0.982 --     3 C    0.952
    19   1 H    0.981 --    10 C    0.958
    20   1 H    0.963 --    10 C    0.942
    21   1 H    0.952 --    10 C    0.929
    22   1 H    0.986 --    14 C    0.970
    23   1 H    0.983 --    14 C    0.965
    24   1 H    0.983 --    14 C    0.963
    25   1 H    0.944 --     4 N    0.916
 ---------------------------------------------------------------------------

molecular dipole:
                 x           y           z       tot (Debye)
 q only:        2.677      -2.124       0.053
   full:        2.900      -2.548       0.102       9.816

           -------------------------------------------------
          | TOTAL ENERGY              -73.274594599564 Eh   |
          | GRADIENT NORM               0.003302247702 Eh/α |
          | HOMO-LUMO GAP               0.082393499540 eV   |
           -------------------------------------------------

 * finished run on 2024/06/05 at 19:58:13.876
