   * xtb version 6.6.1 (8d0f1dd) compiled by 'conda@1efc2f54142f' on 2023-08-01
          program call               : xtb xtbopt.xyz --opt crude --input .xc2 --gfn2

   ID    Z sym.   atoms
    1    6 C      1, 3, 5-7, 10, 11, 14
    2    7 N      2, 4, 9, 13
    3    8 O      8, 12
    4    1 H      15-25
########################################################################
[WARNING] Please study the warnings concerning your input carefully
-1- readin_getIntValue: could not parse ''
########################################################################

          :  Hamiltonian                  GFN2-xTB          :
 * total energy  :   -39.8005665 Eh     change       -0.6274092E-11 Eh
 * total energy  :   -42.0793153 Eh     change       -0.2278749E+01 Eh
 * total energy  :   -42.0872398 Eh     change       -0.7924451E-02 Eh
 * total energy  :   -42.0918450 Eh     change       -0.4605267E-02 Eh
 * total energy  :   -42.0944776 Eh     change       -0.2632591E-02 Eh
 * total energy  :   -42.0954970 Eh     change       -0.1019421E-02 Eh
 * total energy  :   -42.0967502 Eh     change       -0.1253134E-02 Eh
 * total energy  :   -42.0977358 Eh     change       -0.9856033E-03 Eh
 * total energy  :   -42.0985088 Eh     change       -0.7730000E-03 Eh
 * total energy  :   -42.0990677 Eh     change       -0.5589634E-03 Eh
 * total energy  :   -42.0993358 Eh     change       -0.2680769E-03 Eh
   *** GEOMETRY OPTIMIZATION CONVERGED AFTER 11 ITERATIONS ***

 final structure:
================
25
 xtb: 6.6.1 (8d0f1dd)
C            3.29847084321313        0.99540843063061       -0.22226121353134
N            2.40907418364863        0.00945373864614       -0.14634119946617
C            2.61946691245119       -1.31649140096438       -0.36851871966949
N            1.45203111231754       -1.98296699505295       -0.25388567515663
C            0.46576186804602       -1.07785982515229        0.05480778973457
C            1.06452179200235        0.15563644464465        0.13667052057608
C            0.28676323457135        1.41012531833453        0.43556496219845
O            0.72657948005380        2.53169314550575        0.02285913944170
N           -1.14625039715932        1.07827351300586        0.09766547848527
C           -1.99964004569807        2.21403675389348       -0.13699388092086
C           -1.73135635350961       -0.15442579867918        0.11494940669138
O           -2.91614002180635       -0.32813115552711        0.03785909170839
N           -0.85869236448250       -1.28354579507250        0.17725840670681
C           -1.44067205862715       -2.60897270856875        0.15367592378031
H            0.21709972391813        1.43800837345753        1.57382484066831
H            4.32091860566120        0.77352387737573       -0.46352851084089
H            2.94392806314345        2.00236191206030       -0.07485989220978
H            3.56835079737935       -1.75734795111644       -0.59738983858430
H           -1.36876254572583        3.03338178348975       -0.48208401302665
H           -2.75425767272870        1.95832175175385       -0.88005602309136
H           -2.51909973527355        2.51504614379551        0.77703403240392
H           -1.01247284345734       -3.22226169825776        0.94622113127315
H           -1.29160257842044       -3.08905186600564       -0.81553554045043
H           -2.51151500919047       -2.49675704395858        0.32120948883188
H            1.33792652377302       -2.97922040663761       -0.37697408765126

          :  Hamiltonian                  GFN2-xTB          :
         :: total energy             -42.099335813171 Eh    ::
         :: gradient norm              0.009224717419 Eh/a0 ::
         :: HOMO-LUMO gap              0.098488295743 eV    ::
         :: SCC energy               -42.603929572791 Eh    ::
         :: -> dispersion             -0.022817921598 Eh    ::
         :: repulsion energy           0.504443846274 Eh    ::

    * Orbital Energies and Occupations

         #    Occupation            Energy/Eh            Energy/eV
      -------------------------------------------------------------
         1        2.0000           -0.9173495             -24.9623
       ...           ...                  ...                  ...
        25        2.0000           -0.6694652             -18.2171
        26        2.0000           -0.6615957             -18.0029
        27        2.0000           -0.6556571             -17.8413
        28        2.0000           -0.6442086             -17.5298
        29        2.0000           -0.6310809             -17.1726
        30        2.0000           -0.6239202             -16.9777
        31        2.0000           -0.6195752             -16.8595
        32        1.9999           -0.5971810             -16.2501
        33        1.9984           -0.5767262             -15.6935
        34        1.9858           -0.5596577             -15.2291
        35        1.9684           -0.5532308             -15.0542
        36        1.9504           -0.5495864             -14.9550
        37        1.1621           -0.5231084             -14.2345 (HOMO)
        38        0.9351           -0.5194890             -14.1360 (LUMO)
        39        0.0000           -0.4087549             -11.1228
        40                         -0.3802407             -10.3469
        41                         -0.3351377              -9.1196
        42                         -0.2096693              -5.7054
        43                         -0.1989083              -5.4126
        44                         -0.1622803              -4.4159
        45                         -0.1431668              -3.8958
        46                         -0.0943458              -2.5673
        47                         -0.0641585              -1.7458
        48                         -0.0487687              -1.3271
       ...                                ...                  ...
        67                          0.5254860              14.2992
      -------------------------------------------------------------
                  HL-Gap            0.0036194 Eh            0.0985 eV

     #   Z          covCN         q      C6AA      α(0)
     1   6 C        2.790    -0.051    29.259     8.860
     2   7 N        2.818     0.131    19.011     6.476
     3   6 C        3.034     0.034    27.202     8.555
     4   7 N        2.787    -0.052    22.240     7.004
     5   6 C        3.017     0.113    25.494     8.282
     6   6 C        3.105    -0.029    28.576     8.759
     7   6 C        3.658     0.221    17.401     5.987
     8   8 O        0.856    -0.423    22.152     6.310
     9   7 N        2.733    -0.105    23.302     7.169
    10   6 C        3.703    -0.060    21.806     6.677
    11   6 C        2.719     0.316    21.624     7.612
    12   8 O        0.860    -0.360    20.903     6.130
    13   7 N        2.738    -0.067    22.538     7.051
    14   6 C        3.696    -0.070    22.029     6.714
    15   1 H        0.915     0.138     1.478     1.902
    16   1 H        0.926     0.121     1.604     1.981
    17   1 H        0.926     0.156     1.350     1.817
    18   1 H        0.926     0.129     1.546     1.944
    19   1 H        0.925     0.119     1.619     1.990
    20   1 H        0.925     0.111     1.692     2.034
    21   1 H        0.924     0.103     1.755     2.072
    22   1 H        0.925     0.082     1.958     2.188
    23   1 H        0.924     0.082     1.956     2.187
    24   1 H        0.925     0.128     1.551     1.948
    25   1 H        0.860     0.233     0.950     1.527

Wiberg/Mayer (AO) data.
largest (>0.10) Wiberg bond orders for each atom

     #   Z sym  total        # sym  WBO       # sym  WBO       # sym  WBO
 ---------------------------------------------------------------------------
     1   6 C    3.347 --     2 N    1.325    16 H    0.964    17 H    0.949
     2   7 N    3.763 --     1 C    1.325     3 C    1.221     6 C    1.119
     3   6 C    3.654 --     4 N    1.295     2 N    1.221    18 H    0.953
     4   7 N    3.524 --     3 C    1.295     5 C    1.155    25 H    0.917
     5   6 C    3.936 --     6 C    1.410    13 N    1.204     4 N    1.155
     6   6 C    3.810 --     5 C    1.410     2 N    1.119     7 C    0.946
     7   6 C    3.937 --     8 O    1.296     6 C    0.946     9 N    0.869
                            15 H    0.763
     8   8 O    1.578 --     7 C    1.296     9 N    0.123
     9   7 N    3.377 --    11 C    1.178    10 C    1.001     7 C    0.869
                            12 O    0.143     8 O    0.123
    10   6 C    3.900 --     9 N    1.001    19 H    0.959    20 H    0.951
                            21 H    0.936
    11   6 C    3.955 --    12 O    1.695     9 N    1.178    13 N    0.998
    12   8 O    2.044 --    11 C    1.695     9 N    0.143    13 N    0.115
    13   7 N    3.477 --     5 C    1.204    11 C    0.998    14 C    0.980
                            12 O    0.115
    14   6 C    3.923 --    13 N    0.980    22 H    0.970    23 H    0.966
                            24 H    0.963
    15   1 H    0.800 --     7 C    0.763
    16   1 H    0.984 --     1 C    0.964
    17   1 H    0.975 --     1 C    0.949
    18   1 H    0.982 --     3 C    0.953
    19   1 H    0.982 --    10 C    0.959
    20   1 H    0.971 --    10 C    0.951
    21   1 H    0.959 --    10 C    0.936
    22   1 H    0.986 --    14 C    0.970
    23   1 H    0.983 --    14 C    0.966
    24   1 H    0.983 --    14 C    0.963
    25   1 H    0.945 --     4 N    0.917
 ---------------------------------------------------------------------------

molecular dipole:
                 x           y           z       tot (Debye)
 q only:        2.619      -2.080       0.077
   full:        2.874      -2.552       0.183       9.781

           -------------------------------------------------
          | TOTAL ENERGY              -42.099335813171 Eh   |
          | GRADIENT NORM               0.009224717419 Eh/α |
          | HOMO-LUMO GAP               0.098488295743 eV   |
           -------------------------------------------------

 * finished run on 2024/06/05 at 19:58:14.349
