   * xtb version 6.6.1 (8d0f1dd) compiled by 'conda@1efc2f54142f' on 2023-08-01
          program call               : xtb struc.xyz --opt loose --input .xc1 --gfn2

   ID    Z sym.   atoms
    1    6 C      1, 3, 5-7, 10, 11, 14
    2    7 N      2, 4, 9, 13
    3    8 O      8, 12
    4    1 H      15-25
constraining bond 11 23 to    5.1400000 Å, actual value:    3.1827480 Å

          :  Hamiltonian                  GFN2-xTB          :
 * total energy  :   -28.5676990 Eh     change       -0.6650680E-10 Eh
 * total energy  :   -35.5154836 Eh     change       -0.6947785E+01 Eh
 * total energy  :   -39.6493982 Eh     change       -0.4133915E+01 Eh
 * total energy  :   -41.5149448 Eh     change       -0.1865547E+01 Eh
 * total energy  :   -41.9342565 Eh     change       -0.4193117E+00 Eh
 * total energy  :   -41.9597400 Eh     change       -0.2548342E-01 Eh
 * total energy  :   -41.9673488 Eh     change       -0.7608874E-02 Eh
 * total energy  :   -41.9847537 Eh     change       -0.1740487E-01 Eh
 * total energy  :   -41.9969522 Eh     change       -0.1219847E-01 Eh
 * total energy  :   -42.0054887 Eh     change       -0.8536570E-02 Eh
 * total energy  :   -42.1579825 Eh     change       -0.6831221E-04 Eh
 * total energy  :   -42.1580534 Eh     change       -0.7091079E-04 Eh
 * total energy  :   -42.1580911 Eh     change       -0.3766258E-04 Eh
 * total energy  :   -42.1581470 Eh     change       -0.5593421E-04 Eh
 * total energy  :   -42.1582250 Eh     change       -0.7803334E-04 Eh
 * total energy  :   -42.1582957 Eh     change       -0.7065609E-04 Eh
 * total energy  :   -42.1583510 Eh     change       -0.5535080E-04 Eh
 * total energy  :   -42.1584027 Eh     change       -0.5171659E-04 Eh
 * total energy  :   -42.1584433 Eh     change       -0.4057356E-04 Eh
   *** GEOMETRY OPTIMIZATION CONVERGED AFTER 78 ITERATIONS ***

 final structure:
================
25
 xtb: 6.6.1 (8d0f1dd)
C            3.07346611108503        1.13445101226989        0.22265405112945
N            2.13837862513751        0.05848333265473        0.05169502433793
C            2.43700959328723       -1.20193746907051       -0.17678471609648
N            1.32473845135560       -1.94000964970421       -0.27345087408499
C            0.19076459641811       -1.11994274071235       -0.10040775305615
C            0.74930097205853        0.18879729769975        0.13256602715641
C            0.13786230311316        1.42201943280664        0.34158400575314
O            0.56075794433447        2.54153731112958        0.42201526680207
N           -1.41952177121061        1.28515251158020        0.49715961949915
C           -2.19278687043681        1.85565602038026       -0.59725730502534
C           -1.84029969709641        0.90489664520457        1.59959107252402
O           -2.09803689073834        0.51430780044441        2.64501350150777
N           -1.03624298972096       -1.44044868043184       -0.17249859736850
C           -1.49224191471621       -2.76556059408975       -0.45987719768711
H            2.97641882769436        1.56218843665037        1.22118962114475
H            4.08637033365405        0.76435435129702        0.08238216473984
H            2.86977039702061        1.92628130740701       -0.49835108271001
H            3.43553009136235       -1.58660572494595       -0.27134711248484
H           -1.81190897362210        2.85599787232228       -0.80485291055901
H           -2.06602565550669        1.22278150788543       -1.47456666698251
H           -3.24482081739749        1.90998153347501       -0.33201239976983
H           -1.46581530594162       -3.37908478501201        0.44487666827059
H           -0.91831991484356       -3.27445542279988       -1.24480367282989
H           -2.52989388335558       -2.68715518968353       -0.78133075370272
H            1.29597795216582       -2.93344757515683       -0.44201436260894

          :  Hamiltonian                  GFN2-xTB          :
         :: total energy             -42.158443323654 Eh    ::
         :: gradient norm              0.003535216609 Eh/a0 ::
         :: HOMO-LUMO gap              1.990919075743 eV    ::
         :: SCC energy               -42.729569551978 Eh    ::
         :: -> dispersion             -0.022045634620 Eh    ::
         :: repulsion energy           0.570881346777 Eh    ::

    * Orbital Energies and Occupations

         #    Occupation            Energy/Eh            Energy/eV
      -------------------------------------------------------------
         1        2.0000           -0.9320305             -25.3618
       ...           ...                  ...                  ...
        25        2.0000           -0.6718130             -18.2810
        26        2.0000           -0.6648693             -18.0920
        27        2.0000           -0.6493051             -17.6685
        28        1.9999           -0.6378972             -17.3581
        29        1.9999           -0.6348801             -17.2760
        30        1.9999           -0.6308463             -17.1662
        31        1.9995           -0.6069325             -16.5155
        32        1.9993           -0.6014357             -16.3659
        33        1.9990           -0.5943034             -16.1718
        34        1.9986           -0.5897642             -16.0483
        35        1.9977           -0.5820019             -15.8371
        36        1.9152           -0.5239156             -14.2565
        37        1.8301           -0.5121891             -13.9374 (HOMO)
        38        0.1918           -0.4390242             -11.9465 (LUMO)
        39        0.0634           -0.4204061             -11.4398
        40        0.0034           -0.3734692             -10.1626
        41        0.0022           -0.3663510              -9.9689
        42        0.0000           -0.2938384              -7.9958
        43        0.0000           -0.2444713              -6.6524
        44                         -0.1716508              -4.6709
        45                         -0.1261816              -3.4336
        46                         -0.0900400              -2.4501
        47                         -0.0765858              -2.0840
        48                         -0.0305617              -0.8316
       ...                                ...                  ...
        67                          1.0288008              27.9951
      -------------------------------------------------------------
                  HL-Gap            0.0731649 Eh            1.9909 eV

     #   Z          covCN         q      C6AA      α(0)
     1   6 C        3.693    -0.085    22.304     6.757
     2   7 N        2.814     0.066    20.082     6.656
     3   6 C        2.978     0.074    26.332     8.417
     4   7 N        2.782    -0.097    23.131     7.143
     5   6 C        2.943     0.143    24.898     8.184
     6   6 C        3.059    -0.043    29.005     8.832
     7   6 C        2.750     0.256    22.695     7.801
     8   8 O        0.857    -0.323    20.206     6.027
     9   7 N        2.713    -0.021    21.664     6.913
    10   6 C        3.696    -0.066    21.937     6.700
    11   6 C        1.795     0.329    23.864     7.895
    12   8 O        0.856    -0.110    16.666     5.473
    13   7 N        1.824    -0.260    27.608     7.786
    14   6 C        3.702    -0.032    21.308     6.601
    15   1 H        0.924     0.109     1.702     2.040
    16   1 H        0.925     0.096     1.820     2.110
    17   1 H        0.925     0.116     1.650     2.008
    18   1 H        0.926     0.110     1.698     2.038
    19   1 H        0.924     0.119     1.622     1.992
    20   1 H        0.925     0.108     1.710     2.045
    21   1 H        0.925     0.103     1.761     2.075
    22   1 H        0.924     0.068     2.106     2.269
    23   1 H        0.924     0.045     2.388     2.417
    24   1 H        0.925     0.080     1.980     2.200
    25   1 H        0.860     0.215     1.033     1.592

Wiberg/Mayer (AO) data.
largest (>0.10) Wiberg bond orders for each atom

     #   Z sym  total        # sym  WBO       # sym  WBO       # sym  WBO
 ---------------------------------------------------------------------------
     1   6 C    3.930 --     2 N    0.993    16 H    0.975    15 H    0.958
                            17 H    0.958
     2   7 N    3.669 --     3 C    1.417     6 C    1.091     1 C    0.993
                             4 N    0.107
     3   6 C    3.879 --     2 N    1.417     4 N    1.310    18 H    0.951
     4   7 N    3.537 --     3 C    1.310     5 C    1.048    25 H    0.925
                             2 N    0.107
     5   6 C    3.945 --    13 N    1.627     6 C    1.141     4 N    1.048
     6   6 C    3.835 --     7 C    1.277     5 C    1.141     2 N    1.091
                             8 O    0.115
     7   6 C    3.865 --     8 O    1.739     6 C    1.277     9 N    0.699
     8   8 O    2.112 --     7 C    1.739     6 C    0.115
     9   7 N    3.579 --    11 C    1.605    10 C    0.932     7 C    0.699
                            12 O    0.244
    10   6 C    3.892 --    21 H    0.975    20 H    0.966    19 H    0.963
                             9 N    0.932
    11   6 C    3.798 --    12 O    2.078     9 N    1.605
    12   8 O    2.420 --    11 C    2.078     9 N    0.244
    13   7 N    2.925 --     5 C    1.627    14 C    1.035
    14   6 C    3.952 --    13 N    1.035    24 H    0.969    23 H    0.961
                            22 H    0.950
    15   1 H    0.985 --     1 C    0.958
    16   1 H    0.990 --     1 C    0.975
    17   1 H    0.984 --     1 C    0.958
    18   1 H    0.986 --     3 C    0.951
    19   1 H    0.985 --    10 C    0.963
    20   1 H    0.988 --    10 C    0.966
    21   1 H    0.988 --    10 C    0.975
    22   1 H    0.975 --    14 C    0.950
    23   1 H    0.981 --    14 C    0.961
    24   1 H    0.983 --    14 C    0.969
    25   1 H    0.953 --     4 N    0.925
 ---------------------------------------------------------------------------

molecular dipole:
                 x           y           z       tot (Debye)
 q only:        0.931      -0.613      -0.314
   full:        1.213      -1.185      -0.378       4.416

           -------------------------------------------------
          | TOTAL ENERGY              -42.158443323654 Eh   |
          | GRADIENT NORM               0.003535216609 Eh/α |
          | HOMO-LUMO GAP               1.990919075743 eV   |
           -------------------------------------------------

 * finished run on 2024/06/05 at 19:59:20.400
