   * xtb version 6.6.1 (8d0f1dd) compiled by 'conda@1efc2f54142f' on 2023-08-01
          program call               : xtb struc.xyz --opt loose --input .xc1 --gfn2

   ID    Z sym.   atoms
    1    6 C      1, 3, 5-7, 10, 11, 14
    2    7 N      2, 4, 9, 13
    3    8 O      8, 12
    4    1 H      15-25
constraining bond 9 19 to    4.0600000 Å, actual value:    2.0735628 Å

          :  Hamiltonian                  GFN2-xTB          :
 * total energy  :   -35.1996942 Eh     change       -0.6633627E-10 Eh
 * total energy  :   -38.2250295 Eh     change       -0.3025335E+01 Eh
 * total energy  :   -40.4073892 Eh     change       -0.2182360E+01 Eh
 * total energy  :   -41.4664431 Eh     change       -0.1059054E+01 Eh
 * total energy  :   -41.7660239 Eh     change       -0.2995808E+00 Eh
 * total energy  :   -41.8087080 Eh     change       -0.4268411E-01 Eh
 * total energy  :   -41.8480101 Eh     change       -0.3930203E-01 Eh
 * total energy  :   -41.9000464 Eh     change       -0.5203632E-01 Eh
 * total energy  :   -41.9423918 Eh     change       -0.4234539E-01 Eh
 * total energy  :   -41.9663667 Eh     change       -0.2397497E-01 Eh
 * total energy  :   -42.0473029 Eh     change       -0.4264156E-02 Eh
 * total energy  :   -42.0494154 Eh     change       -0.2112512E-02 Eh
 * total energy  :   -42.0507800 Eh     change       -0.1364599E-02 Eh
 * total energy  :   -42.0523756 Eh     change       -0.1595561E-02 Eh
 * total energy  :   -42.0545899 Eh     change       -0.2214358E-02 Eh
 * total energy  :   -42.0553690 Eh     change       -0.7790568E-03 Eh
 * total energy  :   -42.0555720 Eh     change       -0.2030063E-03 Eh
 * total energy  :   -42.0556950 Eh     change       -0.1229757E-03 Eh
 * total energy  :   -42.0557428 Eh     change       -0.4784155E-04 Eh
   *** GEOMETRY OPTIMIZATION CONVERGED AFTER 26 ITERATIONS ***

 final structure:
================
25
 xtb: 6.6.1 (8d0f1dd)
C            3.21016997634943        1.08985260875231        0.01746491550061
N            2.27767503186195       -0.00702830475998       -0.00147796210278
C            2.56911827693881       -1.29626567165243       -0.00856724687937
N            1.43086407073708       -2.02455502580418       -0.00790975338961
C            0.37764422162498       -1.15722878836068        0.00062015097041
C            0.91149104437791        0.12014555578786        0.00405160661118
C            0.06112156814746        1.30469791442408       -0.00695283242075
O            0.43710502199140        2.44759143675113       -0.02382178136551
N           -1.28699941449007        0.94040183958701        0.00162501525143
C           -2.24446592256418        1.99811565835119       -0.00416309721423
C           -1.84380160252531       -0.33458604805490        0.00948147656400
O           -3.02468862937988       -0.52253783591169        0.01560243081265
N           -0.93789406859746       -1.41811017404050        0.00423578490365
C           -1.45740650710272       -2.77303524858760       -0.00122204979509
H            3.70642999364897        1.14517168475658        0.98708023137126
H            3.96451654312780        0.95797632868869       -0.75654253119579
H            2.66367400672559        2.01737421510553       -0.15089842941479
H            3.55873145845915       -1.71003425214180       -0.01460539878245
H           -2.40787128402630        4.83857897259752        0.01428044149055
H           -2.65969932507891        2.29470514660157       -0.94997003962901
H           -2.71418246728191        2.25434656732721        0.92477825488923
H           -1.12875975997839       -3.31070838016945        0.88749915556575
H           -1.14160833949325       -3.29874354828726       -0.90186149601898
H           -2.54436038494727       -2.70388207953734        0.00686559430056
H            1.38362800557513       -3.03400402982288       -0.01442082212294

          :  Hamiltonian                  GFN2-xTB          :
         :: total energy             -42.055742816488 Eh    ::
         :: gradient norm              0.003480365980 Eh/a0 ::
         :: HOMO-LUMO gap              0.445969767865 eV    ::
         :: SCC energy               -42.575149220895 Eh    ::
         :: -> dispersion             -0.022782750728 Eh    ::
         :: repulsion energy           0.519293930777 Eh    ::

    * Orbital Energies and Occupations

         #    Occupation            Energy/Eh            Energy/eV
      -------------------------------------------------------------
         1        2.0000           -0.9207732             -25.0555
       ...           ...                  ...                  ...
        25        2.0000           -0.6688431             -18.2001
        26        2.0000           -0.6614752             -17.9997
        27        2.0000           -0.6517607             -17.7353
        28        2.0000           -0.6376209             -17.3505
        29        2.0000           -0.6338864             -17.2489
        30        2.0000           -0.6251837             -17.0121
        31        2.0000           -0.6246772             -16.9983
        32        2.0000           -0.6211152             -16.9014
        33        2.0000           -0.5782575             -15.7352
        34        2.0000           -0.5617049             -15.2848
        35        2.0000           -0.5609242             -15.2635
        36        2.0000           -0.5586872             -15.2027
        37        1.4636           -0.4809851             -13.0883 (HOMO)
        38        0.5122           -0.4645960             -12.6423 (LUMO)
        39        0.0238           -0.4380342             -11.9195
        40        0.0005           -0.4067382             -11.0679
        41        0.0000           -0.3724130             -10.1339
        42                         -0.2897701              -7.8850
        43                         -0.2042467              -5.5578
        44                         -0.2016346              -5.4868
        45                         -0.1446485              -3.9361
        46                         -0.1315208              -3.5789
        47                         -0.0819095              -2.2289
        48                         -0.0500378              -1.3616
       ...                                ...                  ...
        67                          0.5660512              15.4030
      -------------------------------------------------------------
                  HL-Gap            0.0163891 Eh            0.4460 eV

     #   Z          covCN         q      C6AA      α(0)
     1   6 C        3.692    -0.097    22.546     6.794
     2   7 N        2.838     0.093    19.628     6.580
     3   6 C        3.065     0.054    26.714     8.475
     4   7 N        2.801    -0.057    22.335     7.019
     5   6 C        3.047     0.118    25.368     8.261
     6   6 C        3.130    -0.026    28.437     8.730
     7   6 C        2.767     0.279    22.283     7.731
     8   8 O        0.858    -0.359    20.872     6.125
     9   7 N        2.747    -0.081    22.817     7.094
    10   6 C        2.801    -0.025    28.621     8.764
    11   6 C        2.733     0.321    21.537     7.598
    12   8 O        0.859    -0.357    20.833     6.120
    13   7 N        2.738    -0.059    22.379     7.026
    14   6 C        3.696    -0.073    22.066     6.719
    15   1 H        0.924     0.112     1.676     2.024
    16   1 H        0.925     0.108     1.711     2.046
    17   1 H        0.925     0.140     1.464     1.892
    18   1 H        0.926     0.129     1.542     1.942
    19   1 H        0.000     0.039     6.146     4.533
    20   1 H        0.926     0.107     1.727     2.055
    21   1 H        0.926     0.107     1.724     2.053
    22   1 H        0.925     0.082     1.960     2.189
    23   1 H        0.925     0.082     1.960     2.189
    24   1 H        0.925     0.129     1.545     1.944
    25   1 H        0.860     0.233     0.952     1.528

Wiberg/Mayer (AO) data.
largest (>0.10) Wiberg bond orders for each atom

     #   Z sym  total        # sym  WBO       # sym  WBO       # sym  WBO
 ---------------------------------------------------------------------------
     1   6 C    3.912 --     2 N    0.983    16 H    0.963    17 H    0.960
                            15 H    0.955
     2   7 N    3.722 --     3 C    1.421     6 C    1.171     1 C    0.983
     3   6 C    3.911 --     2 N    1.421     4 N    1.280    18 H    0.951
     4   7 N    3.606 --     3 C    1.280     5 C    1.190    25 H    0.917
     5   6 C    3.962 --     6 C    1.360    13 N    1.222     4 N    1.190
     6   6 C    3.930 --     5 C    1.360     2 N    1.171     7 C    1.048
     7   6 C    3.948 --     8 O    1.718     9 N    1.091     6 C    1.048
     8   8 O    2.077 --     7 C    1.718     9 N    0.160
     9   7 N    3.567 --    11 C    1.095     7 C    1.091    10 C    1.005
                             8 O    0.160    12 O    0.140
    10   6 C    3.191 --     9 N    1.005    21 H    0.963    20 H    0.963
                            19 H    0.217
    11   6 C    3.941 --    12 O    1.724     9 N    1.095    13 N    1.031
    12   8 O    2.084 --    11 C    1.724     9 N    0.140    13 N    0.126
    13   7 N    3.564 --     5 C    1.222    11 C    1.031    14 C    0.971
                            12 O    0.126
    14   6 C    3.924 --    22 H    0.972    23 H    0.972    13 N    0.971
                            24 H    0.964
    15   1 H    0.986 --     1 C    0.955
    16   1 H    0.987 --     1 C    0.963
    17   1 H    0.980 --     1 C    0.960
    18   1 H    0.982 --     3 C    0.951
    19   1 H    0.226 --    10 C    0.217
    20   1 H    0.986 --    10 C    0.963
    21   1 H    0.987 --    10 C    0.963
    22   1 H    0.992 --    14 C    0.972
    23   1 H    0.992 --    14 C    0.972
    24   1 H    0.983 --    14 C    0.964
    25   1 H    0.945 --     4 N    0.917
 ---------------------------------------------------------------------------

molecular dipole:
                 x           y           z       tot (Debye)
 q only:        2.777      -2.096       0.005
   full:        3.055      -2.604       0.009      10.204

           -------------------------------------------------
          | TOTAL ENERGY              -42.055742816488 Eh   |
          | GRADIENT NORM               0.003480365980 Eh/α |
          | HOMO-LUMO GAP               0.445969767865 eV   |
           -------------------------------------------------

 * finished run on 2024/06/05 at 19:58:03.692
