   * xtb version 6.6.1 (8d0f1dd) compiled by 'conda@1efc2f54142f' on 2023-08-01
          program call               : xtb xtbopt.xyz --opt crude --input .xc2 --gfn2

   ID    Z sym.   atoms
    1    6 C      1, 3, 5-7, 10, 11, 14
    2    7 N      2, 4, 9, 13
    3    8 O      8, 12
    4    1 H      15-25

          :  Hamiltonian                  GFN2-xTB          :
 * total energy  :   -42.0557694 Eh     change       -0.7051426E-10 Eh
 * total energy  :   -42.0617469 Eh     change       -0.5977501E-02 Eh
 * total energy  :   -42.0836081 Eh     change       -0.2186124E-01 Eh
 * total energy  :   -42.1386024 Eh     change       -0.5499430E-01 Eh
 * total energy  :   -42.2176693 Eh     change       -0.7906693E-01 Eh
 * total energy  :   -42.1996532 Eh     change        0.1801610E-01 Eh
 * total energy  :   -42.2343969 Eh     change       -0.3474362E-01 Eh
 * total energy  :   -42.2334053 Eh     change        0.9915841E-03 Eh
 * total energy  :   -42.2413846 Eh     change       -0.7979299E-02 Eh
 * total energy  :   -42.2429943 Eh     change       -0.1609744E-02 Eh
 * total energy  :   -42.2450946 Eh     change       -0.2100245E-02 Eh
 * total energy  :   -42.2435491 Eh     change        0.1545510E-02 Eh
 * total energy  :   -42.2452324 Eh     change       -0.1683373E-02 Eh
 * total energy  :   -42.2452612 Eh     change       -0.2872562E-04 Eh
   *** GEOMETRY OPTIMIZATION CONVERGED AFTER 14 ITERATIONS ***

 final structure:
================
25
 xtb: 6.6.1 (8d0f1dd)
C            3.21552147224571        1.13584048595472        0.01608230645558
N            2.26775050588320        0.05228497059225       -0.00073756136500
C            2.53918284662046       -1.23958881316412       -0.00733767197361
N            1.39116038183456       -1.95112607723214       -0.00602891492207
C            0.35053095209287       -1.06766579411780        0.00200664592756
C            0.90508249848628        0.20042894401941        0.00576497743997
C            0.07231354505867        1.39709500670477       -0.00692256726210
O            0.48453722538469        2.52990247654898       -0.02606865537041
N           -1.27632483685925        1.06567560885610        0.00136779165005
C           -2.23055361497345        2.17014666992948       -0.00406481337821
C           -1.85315314089332       -0.19278480511906        0.00784244471090
O           -3.03647534144520       -0.36457457555926        0.01444640276313
N           -0.96823781474311       -1.30038971328024        0.00459622788445
C           -1.51406855088460       -2.64424324119448        0.00088225743726
H            3.71370305631242        1.18540438378379        0.98509847110051
H            3.96721122505349        0.99360807489102       -0.75885114705211
H            2.68087475291798        2.07056812380262       -0.15224043460826
H            3.52226915158868       -1.66949989467012       -0.01377747382168
H           -1.66845247095727        3.10038458586530        0.03566943497524
H           -2.83442313476611        2.13710768382946       -0.91132789387105
H           -2.89358092831259        2.09148645217658        0.85681990060338
H           -1.19590420429794       -3.18781695867065        0.89083116185846
H           -1.20709097164649       -3.17850301165854       -0.89866014061107
H           -2.59976931213562       -2.55571498801507        0.00814380966697
H            1.32832822253319       -2.95978705267794       -0.01236294033944

          :  Hamiltonian                  GFN2-xTB          :
         :: total energy             -42.245261158038 Eh    ::
         :: gradient norm              0.001986650254 Eh/a0 ::
         :: HOMO-LUMO gap              3.234413110309 eV    ::
         :: SCC energy               -42.776122290326 Eh    ::
         :: -> dispersion             -0.022661707980 Eh    ::
         :: repulsion energy           0.530746971491 Eh    ::

    * Orbital Energies and Occupations

         #    Occupation            Energy/Eh            Energy/eV
      -------------------------------------------------------------
         1        2.0000           -0.9218712             -25.0854
       ...           ...                  ...                  ...
        25        2.0000           -0.6686681             -18.1954
        26        2.0000           -0.6639744             -18.0677
        27        2.0000           -0.6556360             -17.8408
        28        2.0000           -0.6380557             -17.3624
        29        2.0000           -0.6306564             -17.1610
        30        2.0000           -0.6251015             -17.0099
        31        2.0000           -0.6247960             -17.0016
        32        2.0000           -0.6188421             -16.8396
        33        2.0000           -0.5944397             -16.1755
        34        1.9999           -0.5766336             -15.6910
        35        1.9996           -0.5616608             -15.2836
        36        1.9994           -0.5584418             -15.1960
        37        1.9993           -0.5575262             -15.1711 (HOMO)
        38        0.0018           -0.4386637             -11.9366 (LUMO)
        39        0.0000           -0.4060125             -11.0482
        40        0.0000           -0.3720190             -10.1232
        41                         -0.2883243              -7.8457
        42                         -0.2065523              -5.6206
        43                         -0.2019659              -5.4958
        44                         -0.1478316              -4.0227
        45                         -0.1318988              -3.5891
        46                         -0.0844736              -2.2986
        47                         -0.0501533              -1.3647
        48                         -0.0378082              -1.0288
       ...                                ...                  ...
        67                          0.5641231              15.3506
      -------------------------------------------------------------
                  HL-Gap            0.1188625 Eh            3.2344 eV

     #   Z          covCN         q      C6AA      α(0)
     1   6 C        3.692    -0.098    22.559     6.796
     2   7 N        2.839     0.096    19.585     6.573
     3   6 C        3.069     0.056    26.674     8.469
     4   7 N        2.802    -0.057    22.338     7.020
     5   6 C        3.048     0.117    25.377     8.262
     6   6 C        3.135    -0.026    28.427     8.727
     7   6 C        2.765     0.276    22.330     7.739
     8   8 O        0.858    -0.367    21.036     6.149
     9   7 N        2.745    -0.086    22.916     7.110
    10   6 C        3.710    -0.063    21.844     6.679
    11   6 C        2.726     0.319    21.580     7.605
    12   8 O        0.859    -0.354    20.787     6.113
    13   7 N        2.738    -0.061    22.419     7.032
    14   6 C        3.696    -0.072    22.056     6.718
    15   1 H        0.924     0.113     1.672     2.022
    16   1 H        0.925     0.108     1.710     2.045
    17   1 H        0.925     0.141     1.453     1.885
    18   1 H        0.926     0.130     1.538     1.939
    19   1 H        0.925     0.111     1.685     2.030
    20   1 H        0.924     0.095     1.827     2.114
    21   1 H        0.925     0.097     1.812     2.105
    22   1 H        0.924     0.081     1.970     2.195
    23   1 H        0.924     0.081     1.970     2.195
    24   1 H        0.925     0.128     1.547     1.945
    25   1 H        0.860     0.233     0.951     1.528

Wiberg/Mayer (AO) data.
largest (>0.10) Wiberg bond orders for each atom

     #   Z sym  total        # sym  WBO       # sym  WBO       # sym  WBO
 ---------------------------------------------------------------------------
     1   6 C    3.911 --     2 N    0.982    16 H    0.963    17 H    0.959
                            15 H    0.954
     2   7 N    3.735 --     3 C    1.429     6 C    1.175     1 C    0.982
     3   6 C    3.928 --     2 N    1.429     4 N    1.284    18 H    0.951
     4   7 N    3.610 --     3 C    1.284     5 C    1.187    25 H    0.917
     5   6 C    3.962 --     6 C    1.357    13 N    1.228     4 N    1.187
     6   6 C    3.934 --     5 C    1.357     2 N    1.175     7 C    1.049
     7   6 C    3.966 --     8 O    1.703     9 N    1.120     6 C    1.049
     8   8 O    2.073 --     7 C    1.703     9 N    0.160
     9   7 N    3.578 --    11 C    1.121     7 C    1.120    10 C    0.965
                             8 O    0.160    12 O    0.139
    10   6 C    3.920 --    19 H    0.970    21 H    0.968    20 H    0.968
                             9 N    0.965
    11   6 C    3.960 --    12 O    1.725     9 N    1.121    13 N    1.023
    12   8 O    2.085 --    11 C    1.725     9 N    0.139    13 N    0.125
    13   7 N    3.567 --     5 C    1.228    11 C    1.023    14 C    0.973
                            12 O    0.125
    14   6 C    3.926 --    13 N    0.973    22 H    0.972    23 H    0.972
                            24 H    0.964
    15   1 H    0.987 --     1 C    0.954
    16   1 H    0.988 --     1 C    0.963
    17   1 H    0.980 --     1 C    0.959
    18   1 H    0.982 --     3 C    0.951
    19   1 H    0.987 --    10 C    0.970
    20   1 H    0.990 --    10 C    0.968
    21   1 H    0.989 --    10 C    0.968
    22   1 H    0.992 --    14 C    0.972
    23   1 H    0.992 --    14 C    0.972
    24   1 H    0.983 --    14 C    0.964
    25   1 H    0.945 --     4 N    0.917
 ---------------------------------------------------------------------------

molecular dipole:
                 x           y           z       tot (Debye)
 q only:        2.753      -2.064       0.012
   full:        3.060      -2.602       0.014      10.210

           -------------------------------------------------
          | TOTAL ENERGY              -42.245261158038 Eh   |
          | GRADIENT NORM               0.001986650254 Eh/α |
          | HOMO-LUMO GAP               3.234413110309 eV   |
           -------------------------------------------------

 * finished run on 2024/06/05 at 19:58:04.209
