   * xtb version 6.6.1 (8d0f1dd) compiled by 'conda@1efc2f54142f' on 2023-08-01
          program call               : xtb struc.xyz --opt loose --input .xc1 --gfn2

   ID    Z sym.   atoms
    1    6 C      1, 3, 5-7, 10, 11, 14
    2    7 N      2, 4, 9, 13
    3    8 O      8, 12
    4    1 H      15-25
constraining bond 5 24 to    5.1400000 Å, actual value:    3.3054035 Å

          :  Hamiltonian                  GFN2-xTB          :
 * total energy  :   -18.2092805 Eh     change       -0.6650680E-10 Eh
 * total energy  :   -32.1944126 Eh     change       -0.1398513E+02 Eh
 * total energy  :   -38.8124171 Eh     change       -0.6618005E+01 Eh
 * total energy  :   -41.3051945 Eh     change       -0.2492777E+01 Eh
 * total energy  :   -41.6719635 Eh     change       -0.3667689E+00 Eh
 * total energy  :   -41.6977261 Eh     change       -0.2576260E-01 Eh
 * total energy  :   -41.7329666 Eh     change       -0.3524055E-01 Eh
 * total energy  :   -41.7575685 Eh     change       -0.2460187E-01 Eh
 * total energy  :   -41.7885562 Eh     change       -0.3098767E-01 Eh
 * total energy  :   -41.8269925 Eh     change       -0.3843630E-01 Eh
 * total energy  :   -42.0995272 Eh     change       -0.3128843E-01 Eh
 * total energy  :   -42.1016657 Eh     change       -0.2138523E-02 Eh
 * total energy  :   -42.1026536 Eh     change       -0.9879367E-03 Eh
 * total energy  :   -42.1035054 Eh     change       -0.8517762E-03 Eh
 * total energy  :   -42.1039396 Eh     change       -0.4341656E-03 Eh
 * total energy  :   -42.1044144 Eh     change       -0.4748309E-03 Eh
 * total energy  :   -42.1045308 Eh     change       -0.1164409E-03 Eh
 * total energy  :   -42.1046115 Eh     change       -0.8062813E-04 Eh
 * total energy  :   -42.1046485 Eh     change       -0.3702703E-04 Eh
   *** GEOMETRY OPTIMIZATION CONVERGED AFTER 51 ITERATIONS ***

 final structure:
================
25
 xtb: 6.6.1 (8d0f1dd)
C            3.28473478969925        1.25747581999804        0.05161031747652
N            2.37799401934012        0.14011640045862        0.03225668679786
C            2.70831277381141       -1.14688768597572        0.03538649963356
N            1.59568566472970       -1.90986118238750        0.02533984408511
C            0.50910510098826       -1.06934583949521        0.01296509094420
C            1.00711549708286        0.22857702064397        0.01762803543475
C            0.14585980260943        1.38961065632333        0.00127339026440
O            0.50947041935958        2.54388454984947        0.01199365907806
N           -1.20226616708879        1.01568757056456       -0.03192468473395
C           -2.18929033041958        2.09045622274237       -0.07240562994480
C           -1.73889934034435       -0.24187305301359       -0.04525541170851
O           -2.91460553212061       -0.46513965387981       -0.09258446584496
N           -0.81267304960850       -1.36780122892435        0.00251450269415
C           -1.33468652886366       -2.60360941999680        0.03044816406145
H            3.87542804771016        1.24855644644515        0.96789715240539
H            3.96044978012088        1.21138639169995       -0.80230840285673
H            2.70521900534174        2.17909624910887        0.00757980003259
H            3.71053465071342       -1.52813387084250        0.04472261289777
H           -1.65544569269031        3.03710897210323       -0.05504838532346
H           -2.78578615943351        2.00856416411427       -0.97995757499377
H           -2.85330917915509        2.01425497404213        0.78733888313757
H           -0.70139405145156       -3.46706158374601        0.07742227094452
H           -2.41604903871724       -2.70346887516103        0.02947685156451
H           -4.20172571208804       -3.12441466786434       -0.04202504800014
H            1.57665274457489       -2.91893983520701        0.01682745985421

          :  Hamiltonian                  GFN2-xTB          :
         :: total energy             -42.104648506013 Eh    ::
         :: gradient norm              0.003046722594 Eh/a0 ::
         :: HOMO-LUMO gap              0.033674008911 eV    ::
         :: SCC energy               -42.625690281150 Eh    ::
         :: -> dispersion             -0.022877345783 Eh    ::
         :: repulsion energy           0.520963055522 Eh    ::

    * Orbital Energies and Occupations

         #    Occupation            Energy/Eh            Energy/eV
      -------------------------------------------------------------
         1        2.0000           -0.9164282             -24.9373
       ...           ...                  ...                  ...
        25        2.0000           -0.6684602             -18.1897
        26        2.0000           -0.6679727             -18.1765
        27        2.0000           -0.6594243             -17.9438
        28        1.9999           -0.6352010             -17.2847
        29        1.9999           -0.6327921             -17.2191
        30        1.9998           -0.6279401             -17.0871
        31        1.9997           -0.6193535             -16.8535
        32        1.9987           -0.5987081             -16.2917
        33        1.9977           -0.5889834             -16.0271
        34        1.9970           -0.5848397             -15.9143
        35        1.9884           -0.5634886             -15.3333
        36        1.9878           -0.5626600             -15.3108
        37        0.9776           -0.4813348             -13.0978 (HOMO)
        38        0.9386           -0.4800973             -13.0641 (LUMO)
        39        0.1023           -0.4358036             -11.8588
        40        0.0107           -0.3992807             -10.8650
        41        0.0021           -0.3731386             -10.1536
        42        0.0000           -0.2882130              -7.8427
        43                         -0.2129883              -5.7957
        44                         -0.2005193              -5.4564
        45                         -0.1505712              -4.0973
        46                         -0.1340910              -3.6488
        47                         -0.0661446              -1.7999
        48                         -0.0392551              -1.0682
       ...                                ...                  ...
        67                          0.5544207              15.0866
      -------------------------------------------------------------
                  HL-Gap            0.0012375 Eh            0.0337 eV

     #   Z          covCN         q      C6AA      α(0)
     1   6 C        3.691    -0.096    22.537     6.793
     2   7 N        2.831     0.084    19.779     6.605
     3   6 C        3.050     0.054    26.746     8.482
     4   7 N        2.789    -0.057    22.344     7.020
     5   6 C        3.038     0.092    25.927     8.352
     6   6 C        3.112    -0.016    28.259     8.709
     7   6 C        2.763     0.266    22.504     7.769
     8   8 O        0.858    -0.367    21.031     6.149
     9   7 N        2.744    -0.079    22.767     7.087
    10   6 C        3.714    -0.064    21.862     6.681
    11   6 C        2.734     0.310    21.732     7.632
    12   8 O        0.859    -0.341    20.530     6.075
    13   7 N        2.735     0.009    21.105     6.823
    14   6 C        2.796    -0.059    29.450     8.890
    15   1 H        0.924     0.109     1.708     2.044
    16   1 H        0.925     0.108     1.717     2.049
    17   1 H        0.925     0.139     1.466     1.893
    18   1 H        0.926     0.127     1.555     1.950
    19   1 H        0.925     0.116     1.645     2.006
    20   1 H        0.925     0.098     1.801     2.099
    21   1 H        0.925     0.098     1.800     2.098
    22   1 H        0.926     0.086     1.922     2.168
    23   1 H        0.925     0.134     1.507     1.920
    24   1 H        0.000     0.020     6.804     4.770
    25   1 H        0.860     0.229     0.970     1.543

Wiberg/Mayer (AO) data.
largest (>0.10) Wiberg bond orders for each atom

     #   Z sym  total        # sym  WBO       # sym  WBO       # sym  WBO
 ---------------------------------------------------------------------------
     1   6 C    3.912 --     2 N    0.984    16 H    0.960    17 H    0.959
                            15 H    0.958
     2   7 N    3.670 --     3 C    1.384     6 C    1.165     1 C    0.984
     3   6 C    3.839 --     2 N    1.384     4 N    1.287    18 H    0.952
     4   7 N    3.553 --     3 C    1.287     5 C    1.165    25 H    0.918
     5   6 C    3.883 --     6 C    1.338     4 N    1.165    13 N    1.163
     6   6 C    3.857 --     5 C    1.338     2 N    1.165     7 C    1.076
     7   6 C    3.915 --     8 O    1.672     9 N    1.081     6 C    1.076
     8   8 O    1.986 --     7 C    1.672     9 N    0.138
     9   7 N    3.569 --    11 C    1.171     7 C    1.081    10 C    0.963
                            12 O    0.151     8 O    0.138
    10   6 C    3.912 --    19 H    0.968    21 H    0.966    20 H    0.966
                             9 N    0.963
    11   6 C    3.923 --    12 O    1.723     9 N    1.171    13 N    0.934
    12   8 O    2.051 --    11 C    1.723     9 N    0.151
    13   7 N    3.621 --    14 C    1.300     5 C    1.163    11 C    0.934
    14   6 C    3.296 --    13 N    1.300    22 H    0.968    23 H    0.916
    15   1 H    0.985 --     1 C    0.958
    16   1 H    0.985 --     1 C    0.960
    17   1 H    0.980 --     1 C    0.959
    18   1 H    0.983 --     3 C    0.952
    19   1 H    0.985 --    10 C    0.968
    20   1 H    0.987 --    10 C    0.966
    21   1 H    0.987 --    10 C    0.966
    22   1 H    0.990 --    14 C    0.968
    23   1 H    0.981 --    14 C    0.916
    24   1 H    0.049
    25   1 H    0.947 --     4 N    0.918
 ---------------------------------------------------------------------------

molecular dipole:
                 x           y           z       tot (Debye)
 q only:        2.690      -1.855       0.060
   full:        2.988      -2.430       0.070       9.792

           -------------------------------------------------
          | TOTAL ENERGY              -42.104648506013 Eh   |
          | GRADIENT NORM               0.003046722594 Eh/α |
          | HOMO-LUMO GAP               0.033674008911 eV   |
           -------------------------------------------------

 * finished run on 2024/06/05 at 20:00:12.238
