   * xtb version 6.6.1 (8d0f1dd) compiled by 'conda@1efc2f54142f' on 2023-08-01
          program call               : xtb struc.xyz --opt loose --input .xc1 --gfn2

   ID    Z sym.   atoms
    1    7 N      1, 17
    2    6 C      2-6, 8, 9, 11-16, 18-23, 25, 26, 28-33
    3    8 O      7, 10, 24, 27
    4    1 H      34-72
constraining bond 23 57 to    5.1400000 Å, actual value:    3.2412589 Å

          :  Hamiltonian                  GFN2-xTB          :
 * total energy  :   -98.7604077 Eh     change       -0.4035485E-08 Eh
 * total energy  :   -98.9735528 Eh     change       -0.2131451E+00 Eh
 * total energy  :   -99.0938197 Eh     change       -0.1202669E+00 Eh
 * total energy  :   -99.1475495 Eh     change       -0.5372977E-01 Eh
 * total energy  :   -99.1716748 Eh     change       -0.2412529E-01 Eh
 * total energy  :   -99.1861850 Eh     change       -0.1451023E-01 Eh
 * total energy  :   -99.2002635 Eh     change       -0.1407847E-01 Eh
 * total energy  :   -99.2194101 Eh     change       -0.1914665E-01 Eh
 * total energy  :   -99.2326054 Eh     change       -0.1319524E-01 Eh
 * total energy  :   -99.2392759 Eh     change       -0.6670557E-02 Eh
 * total energy  :   -99.2680301 Eh     change        0.1663642E-03 Eh
 * total energy  :   -99.2690491 Eh     change       -0.1019039E-02 Eh
 * total energy  :   -99.2693047 Eh     change       -0.2555748E-03 Eh
 * total energy  :   -99.2696719 Eh     change       -0.3672739E-03 Eh
 * total energy  :   -99.2698580 Eh     change       -0.1860725E-03 Eh
 * total energy  :   -99.2700050 Eh     change       -0.1469604E-03 Eh
 * total energy  :   -99.2701147 Eh     change       -0.1096734E-03 Eh
 * total energy  :   -99.2701809 Eh     change       -0.6624275E-04 Eh
 * total energy  :   -99.2702239 Eh     change       -0.4302433E-04 Eh
   *** GEOMETRY OPTIMIZATION CONVERGED AFTER 36 ITERATIONS ***

 final structure:
================
72
 xtb: 6.6.1 (8d0f1dd)
N           -1.87852511790140        2.81351053794933        2.22323222012221
C           -1.85025615762042        2.11238588193198        1.19021944349924
C           -3.00994402692219        1.91584178514154        0.25366045985076
C           -3.48391952830873        0.47222518579671        0.32777367777788
C           -4.42252340500726        0.00375151243361       -0.59403046185814
C           -4.89598565272536       -1.29666813477994       -0.54799994124713
O           -5.80852966832692       -1.82409540326508       -1.39049967003390
C           -6.43096229220982       -0.99190377516812       -2.34077110290799
C           -4.40892193844434       -2.18396806031814        0.44940989941408
O           -4.91522134426731       -3.43324585616492        0.41190314754189
C           -4.54819656425626       -4.35108309117122        1.41507113031282
C           -3.48029884009770       -1.71205426679926        1.36285561259687
C           -3.02724901521225       -0.39962994279690        1.30351026470617
C           -2.46643609744747        2.22162347647986       -1.16706661023386
C           -1.55169983026811        1.12874193522936       -1.75106714869607
C           -0.21792838389386        1.07421978551056       -1.11297166380414
N            0.41564995253172       -0.03427512272535       -0.73846347550322
C            1.78587829550577        0.02438715592060       -0.29085829727352
C            2.76984487219332       -0.44903020699597       -1.37953622906151
C            4.18293417720583       -0.18014250496383       -0.94645221153385
C            4.78146223490380        1.04104744761517       -1.23000064148593
C            6.07288024378839        1.30978617658690       -0.82091355108951
C            6.78956618419524        0.35560548391507       -0.10224990704962
O            8.05102210388237        0.51417685742781        0.36804036734034
C            8.88092167531315        1.44715095305172       -0.00195857931900
C            6.18648743611290       -0.89489712654325        0.20516731364204
O            6.96667015778114       -1.75325748285078        0.88497632389218
C            6.47314761073006       -3.03684971746856        1.19976945189112
C            4.88994347167062       -1.13707026188369       -0.22193749471418
C           -0.20434652596675       -1.33522911822917       -0.81865756113289
C           -4.21903946930886        2.84529276756680        0.57047877826139
C           -4.84213416179045        2.50864956624746        1.92315656283722
C           -3.86520454217912        4.32905275559026        0.52133954247006
H           -4.79945547161026        0.67244450181144       -1.34984908659722
H           -6.94387847077586       -0.15174238265884       -1.86308545028912
H           -7.16263553367612       -1.62071643954493       -2.84418599452566
H           -5.71403207398542       -0.61399163538981       -3.07707548721903
H           -4.81698871969596       -3.98563769859149        2.41055417355970
H           -5.10936190597002       -5.25829347441067        1.20014327602604
H           -3.47652507021953       -4.57301115149254        1.38406116697117
H           -3.10824214122098       -2.35621865992536        2.14297795584382
H           -2.32843435082120       -0.06044103822866        2.05247335558599
H           -3.30999294860707        2.35184543769065       -1.84397889973035
H           -1.91923314991170        3.16471221140142       -1.13821608592448
H           -2.05797120061758        0.16615399846585       -1.70849153571957
H           -1.40026440511926        1.38021095186619       -2.80906446266341
H           -0.94393369023654        1.59036447735483        0.82573355468147
H            0.35073530237794        1.99144274745878       -1.07048546571591
H            1.90023442770360       -0.59922562935004        0.60002157406229
H            2.03098309815372        1.05350560527687       -0.02065402372634
H            2.55715355845715        0.09462496730014       -2.30183522025606
H            2.62789751536120       -1.51393912587432       -1.56668845354660
H            4.23704643084602        1.78949367576273       -1.78505661935275
H            6.51219948570170        2.26898992903226       -1.04027899427212
H            9.83532336025499        1.47287666041083        0.52228083493980
H            8.67140947400140        2.14110104772860       -0.80221599042980
H           11.47990713508688        1.83981124600338        1.34883966211324
H            7.28144750943797       -3.53397309561468        1.73152347385532
H            5.59407732599095       -2.97928473063494        1.84818644709547
H            6.23027574585307       -3.60210044851290        0.29521409541937
H            4.42203310063814       -2.08417574737209       -0.00599947754167
H           -0.36401233870580       -1.63301273493897       -1.85714019623549
H           -1.16716532303170       -1.33244001654553       -0.30160364938379
H            0.44076183103231       -2.06928461550829       -0.34286031956438
H           -4.97047552204762        2.65137128576866       -0.20341548313478
H           -4.13096324898073        2.70373940225162        2.71924050280725
H           -5.14578117575103        1.46557030992705        1.96801869140955
H           -5.72058048406078        3.12812264599105        2.08348360821731
H           -3.10497964882617        4.56028357713519        1.26096889931429
H           -3.51397604722943        4.63124657782621       -0.46171307248246
H           -4.75164337213696        4.91402931376515        0.75194528160043
H           -1.02352926432502        2.89563838459280        2.76436260819394

          :  Hamiltonian                  GFN2-xTB          :
         :: total energy             -99.270223921122 Eh    ::
         :: gradient norm              0.003867960490 Eh/a0 ::
         :: HOMO-LUMO gap              0.415502629719 eV    ::
         :: SCC energy              -100.642996774086 Eh    ::
         :: -> dispersion             -0.075200239004 Eh    ::
         :: repulsion energy           1.371513581537 Eh    ::

    * Orbital Energies and Occupations

         #    Occupation            Energy/Eh            Energy/eV
      -------------------------------------------------------------
         1        2.0000           -0.8467988             -23.0426
       ...           ...                  ...                  ...
        78        1.9989           -0.5347787             -14.5521
        79        1.9984           -0.5280714             -14.3696
        80        1.9983           -0.5274358             -14.3523
        81        1.9976           -0.5221369             -14.2081
        82        1.9961           -0.5144530             -13.9990
        83        1.9956           -0.5123282             -13.9412
        84        1.9952           -0.5109960             -13.9049
        85        1.9946           -0.5090102             -13.8509
        86        1.9820           -0.4899268             -13.3316
        87        1.9770           -0.4860109             -13.2250
        88        1.9410           -0.4708427             -12.8123
        89        1.8790           -0.4589556             -12.4888
        90        1.1394           -0.4199664             -11.4279 (HOMO)
        91        0.6709           -0.4046969             -11.0124 (LUMO)
        92        0.4083           -0.3939798             -10.7207
        93        0.0154           -0.3385446              -9.2123
        94        0.0067           -0.3253631              -8.8536
        95        0.0052           -0.3212875              -8.7427
        96        0.0037           -0.3160262              -8.5995
        97        0.0031           -0.3128933              -8.5143
        98        0.0000           -0.2021116              -5.4997
        99        0.0000           -0.1902502              -5.1770
       100                         -0.1381423              -3.7590
       101                         -0.0727520              -1.9797
       ...                                ...                  ...
       171                          0.5730748              15.5942
      -------------------------------------------------------------
                  HL-Gap            0.0152694 Eh            0.4155 eV

     #   Z          covCN         q      C6AA      α(0)
     1   7 N        1.774    -0.269    27.805     7.808
     2   6 C        2.827     0.101    25.754     8.316
     3   6 C        3.907     0.006    20.414     6.422
     4   6 C        2.974     0.002    27.975     8.676
     5   6 C        2.920    -0.080    30.003     8.982
     6   6 C        2.862     0.129    25.170     8.223
     7   8 O        1.706    -0.231    17.828     5.701
     8   6 C        3.644     0.028    20.443     6.499
     9   6 C        2.864     0.128    25.194     8.228
    10   8 O        1.706    -0.230    17.809     5.698
    11   6 C        3.645     0.027    20.449     6.499
    12   6 C        2.914    -0.075    29.875     8.963
    13   6 C        2.921    -0.054    29.333     8.882
    14   6 C        3.812    -0.065    21.728     6.635
    15   6 C        3.802    -0.069    21.817     6.650
    16   6 C        2.843     0.005    27.910     8.658
    17   7 N        2.729     0.007    21.136     6.828
    18   6 C        3.756    -0.016    20.908     6.520
    19   6 C        3.808    -0.072    21.872     6.657
    20   6 C        2.969     0.006    27.880     8.661
    21   6 C        2.922    -0.049    29.220     8.865
    22   6 C        2.912    -0.056    29.379     8.888
    23   6 C        2.871     0.104    25.706     8.311
    24   8 O        1.710    -0.092    15.723     5.354
    25   6 C        2.732     0.037    27.139     8.529
    26   6 C        2.861     0.140    24.945     8.187
    27   8 O        1.706    -0.228    17.773     5.692
    28   6 C        3.645     0.025    20.497     6.507
    29   6 C        2.919    -0.079    29.983     8.979
    30   6 C        3.699    -0.070    22.013     6.710
    31   6 C        3.853    -0.007    20.672     6.467
    32   6 C        3.756    -0.119    22.825     6.812
    33   6 C        3.755    -0.119    22.826     6.812
    34   1 H        0.926     0.052     2.298     2.370
    35   1 H        0.924     0.054     2.276     2.359
    36   1 H        0.925     0.081     1.970     2.195
    37   1 H        0.924     0.047     2.359     2.402
    38   1 H        0.924     0.055     2.262     2.352
    39   1 H        0.925     0.081     1.971     2.196
    40   1 H        0.924     0.047     2.357     2.401
    41   1 H        0.926     0.051     2.306     2.375
    42   1 H        0.926     0.038     2.477     2.461
    43   1 H        0.925     0.060     2.198     2.318
    44   1 H        0.924     0.053     2.283     2.363
    45   1 H        0.925     0.066     2.132     2.284
    46   1 H        0.923     0.078     1.996     2.209
    47   1 H        0.922     0.005     2.965     2.693
    48   1 H        0.926     0.067     2.115     2.274
    49   1 H        0.924     0.067     2.123     2.278
    50   1 H        0.924     0.067     2.118     2.276
    51   1 H        0.924     0.058     2.218     2.329
    52   1 H        0.924     0.058     2.219     2.329
    53   1 H        0.926     0.052     2.301     2.372
    54   1 H        0.926     0.063     2.167     2.302
    55   1 H        0.925     0.119     1.622     1.992
    56   1 H        0.926     0.072     2.069     2.249
    57   1 H        0.000    -0.132    16.983     7.535
    58   1 H        0.925     0.085     1.927     2.171
    59   1 H        0.924     0.052     2.301     2.372
    60   1 H        0.924     0.055     2.262     2.352
    61   1 H        0.926     0.053     2.279     2.361
    62   1 H        0.924     0.076     2.022     2.224
    63   1 H        0.924     0.080     1.982     2.202
    64   1 H        0.925     0.078     1.996     2.210
    65   1 H        0.924     0.037     2.492     2.469
    66   1 H        0.925     0.069     2.101     2.267
    67   1 H        0.925     0.035     2.513     2.479
    68   1 H        0.925     0.051     2.308     2.376
    69   1 H        0.925     0.061     2.192     2.315
    70   1 H        0.925     0.034     2.529     2.487
    71   1 H        0.925     0.054     2.269     2.356
    72   1 H        0.860     0.156     1.362     1.828

Wiberg/Mayer (AO) data.
largest (>0.10) Wiberg bond orders for each atom

     #   Z sym  total        # sym  WBO       # sym  WBO       # sym  WBO
 ---------------------------------------------------------------------------
     1   7 N    3.040 --     2 C    1.956    72 H    0.942
     2   6 C    3.927 --     1 N    1.956     3 C    0.995    47 H    0.899
     3   6 C    3.976 --     2 C    0.995     4 C    0.969    14 C    0.957
                            31 C    0.943
     4   6 C    3.951 --    13 C    1.416     5 C    1.368     3 C    0.969
     5   6 C    3.963 --     6 C    1.402     4 C    1.368    34 H    0.958
     6   6 C    3.907 --     5 C    1.402     9 C    1.223     7 O    1.098
     7   8 O    2.254 --     6 C    1.098     8 C    0.978
     8   6 C    3.932 --     7 O    0.978    36 H    0.977    35 H    0.974
                            37 H    0.974
     9   6 C    3.903 --    12 C    1.393     6 C    1.223    10 O    1.100
    10   8 O    2.252 --     9 C    1.100    11 C    0.978
    11   6 C    3.932 --    10 O    0.978    39 H    0.977    40 H    0.974
                            38 H    0.974
    12   6 C    3.963 --    13 C    1.402     9 C    1.393    41 H    0.964
    13   6 C    3.956 --     4 C    1.416    12 C    1.402    42 H    0.963
    14   6 C    3.972 --    15 C    0.980    44 H    0.972    43 H    0.969
                             3 C    0.957
    15   6 C    3.987 --    16 C    1.060    14 C    0.980    45 H    0.961
                            46 H    0.928
    16   6 C    3.576 --    17 N    1.386    15 C    1.060    48 H    0.958
    17   7 N    3.467 --    16 C    1.386    30 C    0.998    18 C    0.991
    18   6 C    3.958 --    17 N    0.991    50 H    0.968    19 C    0.966
                            49 H    0.964
    19   6 C    3.978 --    20 C    1.011    52 H    0.971    51 H    0.971
                            18 C    0.966
    20   6 C    3.918 --    21 C    1.393    29 C    1.385    19 C    1.011
    21   6 C    3.973 --    22 C    1.444    20 C    1.393    53 H    0.967
    22   6 C    3.917 --    21 C    1.444    23 C    1.356    54 H    0.962
    23   6 C    3.889 --    22 C    1.356    26 C    1.228    24 O    1.051
    24   8 O    2.437 --    25 C    1.291    23 C    1.051
    25   6 C    3.306 --    24 O    1.291    56 H    0.964    55 H    0.921
    26   6 C    3.895 --    29 C    1.388    23 C    1.228    27 O    1.114
    27   8 O    2.275 --    26 C    1.114    28 C    0.973
    28   6 C    3.930 --    58 H    0.977    59 H    0.975    60 H    0.975
                            27 O    0.973
    29   6 C    3.960 --    26 C    1.388    20 C    1.385    61 H    0.962
    30   6 C    3.958 --    17 N    0.998    64 H    0.978    62 H    0.967
                            63 H    0.961
    31   6 C    3.973 --    33 C    1.009    32 C    1.008    65 H    0.960
                             3 C    0.943
    32   6 C    3.979 --    31 C    1.008    67 H    0.982    68 H    0.981
                            66 H    0.974
    33   6 C    3.983 --    31 C    1.009    70 H    0.983    71 H    0.980
                            69 H    0.977
    34   1 H    0.996 --     5 C    0.958
    35   1 H    0.994 --     8 C    0.974
    36   1 H    0.993 --     8 C    0.977
    37   1 H    0.994 --     8 C    0.974
    38   1 H    0.993 --    11 C    0.974
    39   1 H    0.993 --    11 C    0.977
    40   1 H    0.994 --    11 C    0.974
    41   1 H    0.996 --    12 C    0.964
    42   1 H    0.998 --    13 C    0.963
    43   1 H    0.995 --    14 C    0.969
    44   1 H    0.996 --    14 C    0.972
    45   1 H    0.995 --    15 C    0.961
    46   1 H    0.970 --    15 C    0.928
    47   1 H    0.987 --     2 C    0.899
    48   1 H    0.995 --    16 C    0.958
    49   1 H    0.990 --    18 C    0.964
    50   1 H    0.995 --    18 C    0.968
    51   1 H    0.995 --    19 C    0.971
    52   1 H    0.995 --    19 C    0.971
    53   1 H    0.997 --    21 C    0.967
    54   1 H    0.995 --    22 C    0.962
    55   1 H    0.985 --    25 C    0.921
    56   1 H    0.992 --    25 C    0.964
    57   1 H    0.044
    58   1 H    0.992 --    28 C    0.977
    59   1 H    0.995 --    28 C    0.975
    60   1 H    0.994 --    28 C    0.975
    61   1 H    0.996 --    29 C    0.962
    62   1 H    0.985 --    30 C    0.967
    63   1 H    0.987 --    30 C    0.961
    64   1 H    0.994 --    30 C    0.978
    65   1 H    0.993 --    31 C    0.960
    66   1 H    0.991 --    32 C    0.974
    67   1 H    0.997 --    32 C    0.982
    68   1 H    0.994 --    32 C    0.981
    69   1 H    0.993 --    33 C    0.977
    70   1 H    0.997 --    33 C    0.983
    71   1 H    0.994 --    33 C    0.980
    72   1 H    0.971 --     1 N    0.942
 ---------------------------------------------------------------------------

molecular dipole:
                 x           y           z       tot (Debye)
 q only:        0.157      -0.493      -1.189
   full:        0.496      -0.576      -1.359       3.958

           -------------------------------------------------
          | TOTAL ENERGY              -99.270223921122 Eh   |
          | GRADIENT NORM               0.003867960490 Eh/α |
          | HOMO-LUMO GAP               0.415502629719 eV   |
           -------------------------------------------------

 * finished run on 2024/04/06 at 11:14:24.333
