   * xtb version 6.6.1 (8d0f1dd) compiled by 'conda@1efc2f54142f' on 2023-08-01
          program call               : xtb struc.xyz --opt loose --input .xc1 --gfn2

   ID    Z sym.   atoms
    1    7 N      1, 17
    2    6 C      2-6, 8, 9, 11-16, 18-23, 25, 26, 28-33
    3    8 O      7, 10, 24, 27
    4    1 H      34-72
constraining bond 5 13 to    5.0000000 Å, actual value:    2.3897125 Å

          :  Hamiltonian                  GFN2-xTB          :
 * total energy  :   -98.1875407 Eh     change       -0.4035485E-08 Eh
 * total energy  :   -98.4451854 Eh     change       -0.2576448E+00 Eh
 * total energy  :   -98.6124037 Eh     change       -0.1672182E+00 Eh
 * total energy  :   -98.7167203 Eh     change       -0.1043166E+00 Eh
 * total energy  :   -98.7856440 Eh     change       -0.6892373E-01 Eh
 * total energy  :   -98.8347697 Eh     change       -0.4912569E-01 Eh
 * total energy  :   -98.8614931 Eh     change       -0.2672339E-01 Eh
 * total energy  :   -98.8728989 Eh     change       -0.1140585E-01 Eh
 * total energy  :   -98.8844269 Eh     change       -0.1152795E-01 Eh
 * total energy  :   -98.8920466 Eh     change       -0.7619740E-02 Eh
 * total energy  :   -99.1657821 Eh     change       -0.8634659E-04 Eh
 * total energy  :   -99.1658543 Eh     change       -0.7222247E-04 Eh
 * total energy  :   -99.1658966 Eh     change       -0.4225854E-04 Eh
 * total energy  :   -99.1659479 Eh     change       -0.5131817E-04 Eh
 * total energy  :   -99.1660003 Eh     change       -0.5240752E-04 Eh
 * total energy  :   -99.1660700 Eh     change       -0.6975408E-04 Eh
 * total energy  :   -99.1661323 Eh     change       -0.6227743E-04 Eh
 * total energy  :   -99.1661961 Eh     change       -0.6381134E-04 Eh
 * total energy  :   -99.1662457 Eh     change       -0.4954252E-04 Eh
   *** GEOMETRY OPTIMIZATION CONVERGED AFTER 85 ITERATIONS ***

 final structure:
================
72
 xtb: 6.6.1 (8d0f1dd)
N           -2.01166591580672        3.06375670260058        2.01856647270061
C           -1.97868967535779        2.27597525055802        1.04952142909183
C           -3.03190307358785        2.22182306928808       -0.03593757987204
C           -3.58961100629654        0.86688408272421        0.01105039895123
C           -4.62763003888808        0.18540177020014       -0.43692466213951
C           -4.76015511166215       -1.25617299126335       -0.14894298799039
O           -5.78991002897744       -1.90868623311266       -0.76275858349254
C           -6.63813745329984       -1.28019662360021       -1.68909999950111
C           -4.04592739202738       -2.19268229153297        0.65510510809094
O           -4.55093560930588       -3.44326180539068        0.44823155628927
C           -4.55265966585700       -4.41321077341361        1.46531075069128
C           -2.89752529889416       -2.06618096836175        1.59524004658537
C           -2.19804684796228       -2.95231390062546        2.29570734321102
C           -2.31925860506359        2.40439896315629       -1.40395708694503
C           -1.44288141833911        1.20794719823816       -1.80745358811338
C           -0.15152533428312        1.16066186581121       -1.08720837667252
N            0.47420791113804        0.05415588887849       -0.70427778745394
C            1.83931879013031        0.11308525617116       -0.23798816369905
C            2.83375603838838       -0.24369077793936       -1.36071468068940
C            4.24607185022870       -0.07328801279168       -0.87629173751250
C            4.88088824783896        1.15392614591098       -0.97626101480775
C            6.17630822717537        1.32329096454668       -0.51262014663537
C            6.86279562974802        0.26565563379991        0.06608664132404
O            8.11998624810293        0.31347848484676        0.54550607924940
C            8.84178037611018        1.52067671201829        0.46071272310982
C            6.21802091661160       -0.99713465286984        0.17692428268831
O            6.95780758090250       -1.96947799572619        0.74735468257038
C            6.41819655064835       -3.26360749157845        0.87014914106171
C            4.92184144139041       -1.14183309321385       -0.29176431713754
C           -0.11787940926324       -1.25207066536758       -0.86336604878448
C           -4.16955461028827        3.27751540638258        0.13789304069265
C           -4.93258466333837        3.06854156665135        1.44309507323118
C           -3.65157040555795        4.71078153405596        0.06513533777679
H           -5.44334331936130        0.63207523565872       -0.99983089960410
H           -7.26264287064322       -0.51053401567661       -1.22010108787547
H           -7.28520324470289       -2.07655126596143       -2.05847633504794
H           -6.08450656883409       -0.85185058450170       -2.53246720574327
H           -4.69385412482041       -3.96957349744727        2.45288378204116
H           -5.38947061062616       -5.07592803194274        1.23736419467331
H           -3.62880109675597       -4.99948688714645        1.44752440688533
H           -2.62542150101894       -1.01038458563624        1.68892226588097
H           -2.08597994622605       -3.97613821656380        2.54812498327681
H           -3.09195663193393        2.53457163539986       -2.16275276899693
H           -1.71253741220927        3.30998744475818       -1.37489175444998
H           -2.01006502701413        0.28594561033713       -1.67432258661536
H           -1.22424727981199        1.30984295248915       -2.87911272852707
H           -1.18558397818481        1.52662043273302        0.88692208004561
H            0.38633785198270        2.08809190021810       -0.96083241916631
H            1.96492472638992       -0.58012261480690        0.59726863732121
H            2.05645835093478        1.12191173779556        0.11839918950041
H            2.65159365911973        0.41791464213857       -2.20965815633937
H            2.66740753138132       -1.27237348907465       -1.68252675278607
H            4.37211184386957        1.98997933810362       -1.43185960295060
H            6.64684440031701        2.28753685643732       -0.61269503678241
H            8.35464055195610        2.31934878422455        1.02846544238495
H            8.97204398720329        1.83734646842609       -0.57853252058006
H            9.81566683795217        1.30957073407193        0.89822249604681
H            7.19859741208936       -3.86218413962332        1.33611172763704
H            5.52908216206713       -3.26932709287863        1.50897892671057
H            6.17070518967987       -3.68950076779981       -0.10725513732558
H            4.42678634877993       -2.09757730484490       -0.21939525933818
H           -0.23953709730846       -1.50625594745115       -1.91828845319396
H           -1.09617434893387       -1.29346045256254       -0.37895156879208
H            0.52272684817452       -1.99602749448510       -0.39706145713987
H           -4.86021013965568        3.11409272945734       -0.69868413750084
H           -4.29414000424815        3.30654762032607        2.28817701976250
H           -5.27242344738226        2.03977156931885        1.54077999393232
H           -5.80079135622548        3.72206997415849        1.46885136091801
H           -2.90558509412489        4.87975910477166        0.83526126985919
H           -3.22708249099175        4.94136297308994       -0.90861578201303
H           -4.47999736073252        5.39361045991049        0.23790695005708
H           -1.26278539752682        2.99930948803302        2.70138842055971

          :  Hamiltonian                  GFN2-xTB          :
         :: total energy             -99.166245666330 Eh    ::
         :: gradient norm              0.003330347365 Eh/a0 ::
         :: HOMO-LUMO gap              0.167776712164 eV    ::
         :: SCC energy              -100.520229085400 Eh    ::
         :: -> dispersion             -0.071217766784 Eh    ::
         :: repulsion energy           1.347016754156 Eh    ::

    * Orbital Energies and Occupations

         #    Occupation            Energy/Eh            Energy/eV
      -------------------------------------------------------------
         1        2.0000           -0.8101081             -22.0442
       ...           ...                  ...                  ...
        78        1.9987           -0.5288460             -14.3906
        79        1.9984           -0.5259737             -14.3125
        80        1.9981           -0.5227576             -14.2250
        81        1.9974           -0.5178126             -14.0904
        82        1.9972           -0.5171182             -14.0715
        83        1.9967           -0.5140504             -13.9880
        84        1.9956           -0.5096757             -13.8690
        85        1.9941           -0.5050445             -13.7430
        86        1.9797           -0.4854027             -13.2085
        87        1.9491           -0.4705785             -12.8051
        88        1.8525           -0.4529202             -12.3246
        89        1.6513           -0.4374705             -11.9042
        90        1.1486           -0.4175921             -11.3633 (HOMO)
        91        0.9551           -0.4114264             -11.1955 (LUMO)
        92        0.4182           -0.3917855             -10.6610
        93        0.0565           -0.3568319              -9.7099
        94        0.0146           -0.3350929              -9.1183
        95        0.0029           -0.3092774              -8.4159
        96        0.0025           -0.3069571              -8.3527
        97        0.0005           -0.2829525              -7.6995
        98        0.0000           -0.2301106              -6.2616
        99        0.0000           -0.1843425              -5.0162
       100                         -0.1327680              -3.6128
       101                         -0.0931511              -2.5348
       ...                                ...                  ...
       171                          0.6176357              16.8067
      -------------------------------------------------------------
                  HL-Gap            0.0061657 Eh            0.1678 eV

     #   Z          covCN         q      C6AA      α(0)
     1   7 N        1.773    -0.273    27.911     7.823
     2   6 C        2.838     0.101    25.750     8.316
     3   6 C        3.905     0.029    20.035     6.362
     4   6 C        2.006    -0.088    33.435     9.338
     5   6 C        2.885    -0.056    29.393     8.888
     6   6 C        2.838     0.120    25.361     8.253
     7   8 O        1.710    -0.228    17.784     5.694
     8   6 C        3.634     0.031    20.437     6.506
     9   6 C        2.831     0.110    25.566     8.286
    10   8 O        1.709    -0.231    17.832     5.702
    11   6 C        3.636     0.030    20.447     6.506
    12   6 C        2.883    -0.042    29.045     8.835
    13   6 C        1.909    -0.108    34.111     9.432
    14   6 C        3.814    -0.061    21.668     6.625
    15   6 C        3.802    -0.067    21.789     6.646
    16   6 C        2.845     0.004    27.916     8.659
    17   7 N        2.729     0.014    21.019     6.809
    18   6 C        3.756    -0.018    20.945     6.525
    19   6 C        3.808    -0.070    21.840     6.653
    20   6 C        2.969    -0.001    28.041     8.686
    21   6 C        2.922    -0.049    29.221     8.865
    22   6 C        2.914    -0.068    29.687     8.935
    23   6 C        2.865     0.133    25.089     8.210
    24   8 O        1.706    -0.223    17.702     5.681
    25   6 C        3.645     0.025    20.482     6.504
    26   6 C        2.863     0.133    25.095     8.211
    27   8 O        1.706    -0.226    17.746     5.688
    28   6 C        3.645     0.027    20.449     6.499
    29   6 C        2.919    -0.080    29.989     8.980
    30   6 C        3.700    -0.072    22.038     6.714
    31   6 C        3.852    -0.003    20.599     6.455
    32   6 C        3.755    -0.117    22.803     6.809
    33   6 C        3.755    -0.119    22.829     6.813
    34   1 H        0.925     0.070     2.081     2.256
    35   1 H        0.924     0.055     2.255     2.348
    36   1 H        0.924     0.081     1.964     2.191
    37   1 H        0.924     0.050     2.317     2.380
    38   1 H        0.924     0.057     2.232     2.336
    39   1 H        0.924     0.081     1.966     2.193
    40   1 H        0.924     0.058     2.225     2.333
    41   1 H        0.924     0.063     2.161     2.299
    42   1 H        0.927     0.077     2.013     2.219
    43   1 H        0.924     0.058     2.218     2.329
    44   1 H        0.924     0.056     2.244     2.343
    45   1 H        0.924     0.071     2.079     2.255
    46   1 H        0.923     0.079     1.986     2.204
    47   1 H        0.923     0.007     2.943     2.683
    48   1 H        0.926     0.069     2.096     2.264
    49   1 H        0.924     0.069     2.096     2.264
    50   1 H        0.924     0.068     2.104     2.269
    51   1 H        0.924     0.054     2.268     2.355
    52   1 H        0.924     0.055     2.256     2.349
    53   1 H        0.926     0.044     2.394     2.420
    54   1 H        0.926     0.058     2.225     2.333
    55   1 H        0.924     0.054     2.275     2.359
    56   1 H        0.924     0.055     2.256     2.349
    57   1 H        0.925     0.082     1.962     2.190
    58   1 H        0.925     0.081     1.966     2.193
    59   1 H        0.924     0.048     2.339     2.392
    60   1 H        0.924     0.052     2.297     2.370
    61   1 H        0.926     0.047     2.357     2.401
    62   1 H        0.924     0.077     2.015     2.220
    63   1 H        0.924     0.082     1.962     2.190
    64   1 H        0.925     0.081     1.965     2.192
    65   1 H        0.924     0.033     2.538     2.491
    66   1 H        0.925     0.069     2.097     2.265
    67   1 H        0.925     0.036     2.509     2.477
    68   1 H        0.925     0.050     2.315     2.380
    69   1 H        0.925     0.065     2.145     2.290
    70   1 H        0.925     0.036     2.505     2.475
    71   1 H        0.925     0.057     2.237     2.339
    72   1 H        0.860     0.157     1.356     1.824

Wiberg/Mayer (AO) data.
largest (>0.10) Wiberg bond orders for each atom

     #   Z sym  total        # sym  WBO       # sym  WBO       # sym  WBO
 ---------------------------------------------------------------------------
     1   7 N    3.029 --     2 C    1.956    72 H    0.941
     2   6 C    3.913 --     1 N    1.956     3 C    0.967    47 H    0.914
     3   6 C    3.948 --     4 C    1.033     2 C    0.967    14 C    0.935
                            31 C    0.913
     4   6 C    3.048 --     5 C    1.801     3 C    1.033
     5   6 C    3.936 --     4 C    1.801     6 C    1.116    34 H    0.894
     6   6 C    3.763 --     9 C    1.373     5 C    1.116     7 O    1.093
     7   8 O    2.230 --     6 C    1.093     8 C    0.982
     8   6 C    3.929 --     7 O    0.982    36 H    0.972    37 H    0.971
                            35 H    0.967
     9   6 C    3.694 --     6 C    1.373    10 O    1.082    12 C    1.067
    10   8 O    2.205 --     9 C    1.082    11 C    0.976
    11   6 C    3.918 --    10 O    0.976    38 H    0.974    39 H    0.969
                            40 H    0.960
    12   6 C    3.947 --    13 C    1.908     9 C    1.067    41 H    0.909
    13   6 C    3.008 --    12 C    1.908    42 H    0.950
    14   6 C    3.962 --    15 C    0.989    43 H    0.972    44 H    0.970
                             3 C    0.935
    15   6 C    3.984 --    16 C    1.060    14 C    0.989    45 H    0.954
                            46 H    0.924
    16   6 C    3.573 --    17 N    1.403    15 C    1.060    48 H    0.958
    17   7 N    3.473 --    16 C    1.403    30 C    0.999    18 C    0.988
    18   6 C    3.955 --    17 N    0.988    50 H    0.968    19 C    0.966
                            49 H    0.964
    19   6 C    3.976 --    20 C    1.008    52 H    0.972    51 H    0.972
                            18 C    0.966
    20   6 C    3.946 --    21 C    1.410    29 C    1.379    19 C    1.008
    21   6 C    3.951 --    22 C    1.416    20 C    1.410    53 H    0.968
    22   6 C    3.961 --    21 C    1.416    23 C    1.384    54 H    0.963
    23   6 C    3.897 --    22 C    1.384    26 C    1.221    24 O    1.109
    24   8 O    2.255 --    23 C    1.109    25 C    0.976
    25   6 C    3.929 --    57 H    0.977    24 O    0.976    55 H    0.973
                            56 H    0.973
    26   6 C    3.900 --    29 C    1.396    23 C    1.221    27 O    1.102
    27   8 O    2.254 --    26 C    1.102    28 C    0.979
    28   6 C    3.933 --    27 O    0.979    58 H    0.977    59 H    0.974
                            60 H    0.973
    29   6 C    3.960 --    26 C    1.396    20 C    1.379    61 H    0.963
    30   6 C    3.957 --    17 N    0.999    64 H    0.977    62 H    0.967
                            63 H    0.962
    31   6 C    3.935 --    32 C    1.010    33 C    1.005    65 H    0.964
                             3 C    0.913
    32   6 C    3.981 --    31 C    1.010    67 H    0.982    68 H    0.981
                            66 H    0.975
    33   6 C    3.976 --    31 C    1.005    70 H    0.984    71 H    0.977
                            69 H    0.977
    34   1 H    0.922 --     5 C    0.894
    35   1 H    0.989 --     8 C    0.967
    36   1 H    0.990 --     8 C    0.972
    37   1 H    0.991 --     8 C    0.971
    38   1 H    0.991 --    11 C    0.974
    39   1 H    0.986 --    11 C    0.969
    40   1 H    0.987 --    11 C    0.960
    41   1 H    0.945 --    12 C    0.909
    42   1 H    0.974 --    13 C    0.950
    43   1 H    0.995 --    14 C    0.972
    44   1 H    0.994 --    14 C    0.970
    45   1 H    0.992 --    15 C    0.954
    46   1 H    0.967 --    15 C    0.924
    47   1 H    0.987 --     2 C    0.914
    48   1 H    0.995 --    16 C    0.958
    49   1 H    0.991 --    18 C    0.964
    50   1 H    0.994 --    18 C    0.968
    51   1 H    0.996 --    19 C    0.972
    52   1 H    0.996 --    19 C    0.972
    53   1 H    0.997 --    21 C    0.968
    54   1 H    0.995 --    22 C    0.963
    55   1 H    0.992 --    25 C    0.973
    56   1 H    0.992 --    25 C    0.973
    57   1 H    0.993 --    25 C    0.977
    58   1 H    0.993 --    28 C    0.977
    59   1 H    0.993 --    28 C    0.974
    60   1 H    0.993 --    28 C    0.973
    61   1 H    0.997 --    29 C    0.963
    62   1 H    0.984 --    30 C    0.967
    63   1 H    0.986 --    30 C    0.962
    64   1 H    0.993 --    30 C    0.977
    65   1 H    0.994 --    31 C    0.964
    66   1 H    0.992 --    32 C    0.975
    67   1 H    0.997 --    32 C    0.982
    68   1 H    0.994 --    32 C    0.981
    69   1 H    0.993 --    33 C    0.977
    70   1 H    0.998 --    33 C    0.984
    71   1 H    0.991 --    33 C    0.977
    72   1 H    0.969 --     1 N    0.941
 ---------------------------------------------------------------------------

molecular dipole:
                 x           y           z       tot (Debye)
 q only:        0.099      -0.099      -0.881
   full:        0.049      -0.221      -1.148       2.975

           -------------------------------------------------
          | TOTAL ENERGY              -99.166245666330 Eh   |
          | GRADIENT NORM               0.003330347365 Eh/α |
          | HOMO-LUMO GAP               0.167776712164 eV   |
           -------------------------------------------------

 * finished run on 2024/04/06 at 11:12:37.773
