   * xtb version 6.6.1 (8d0f1dd) compiled by 'conda@1efc2f54142f' on 2023-08-01
          program call               : xtb xtbopt.xyz --opt crude --input .xc2 --gfn2

   ID    Z sym.   atoms
    1    7 N      1, 17
    2    6 C      2-6, 8, 9, 11-16, 18-23, 25, 26, 28-33
    3    8 O      7, 10, 24, 27
    4    1 H      34-72
########################################################################
[WARNING] Please study the warnings concerning your input carefully
-1- readin_getIntValue: could not parse ''
########################################################################

          :  Hamiltonian                  GFN2-xTB          :
 * total energy  :   -99.1721446 Eh     change       -0.1294751E-09 Eh
 * total energy  :   -99.1812165 Eh     change       -0.9071865E-02 Eh
 * total energy  :   -99.1866351 Eh     change       -0.5418601E-02 Eh
 * total energy  :   -99.1892856 Eh     change       -0.2650540E-02 Eh
 * total energy  :   -99.1921970 Eh     change       -0.2911407E-02 Eh
 * total energy  :   -99.1958385 Eh     change       -0.3641457E-02 Eh
 * total energy  :   -99.2027730 Eh     change       -0.6934480E-02 Eh
 * total energy  :   -99.2124276 Eh     change       -0.9654589E-02 Eh
 * total energy  :   -99.2228435 Eh     change       -0.1041591E-01 Eh
 * total energy  :   -99.1689691 Eh     change        0.5387436E-01 Eh
 * total energy  :   -99.2719633 Eh     change       -0.8875033E-02 Eh
 * total energy  :   -99.2773367 Eh     change       -0.5373392E-02 Eh
 * total energy  :   -99.2821692 Eh     change       -0.4832534E-02 Eh
 * total energy  :   -99.2854932 Eh     change       -0.3323939E-02 Eh
 * total energy  :   -99.2868752 Eh     change       -0.1382010E-02 Eh
 * total energy  :   -99.2884025 Eh     change       -0.1527298E-02 Eh
 * total energy  :   -99.2895686 Eh     change       -0.1166108E-02 Eh
 * total energy  :   -99.2901406 Eh     change       -0.5720492E-03 Eh
 * total energy  :   -99.2904165 Eh     change       -0.2759089E-03 Eh
   *** GEOMETRY OPTIMIZATION CONVERGED AFTER 23 ITERATIONS ***

 final structure:
================
72
 xtb: 6.6.1 (8d0f1dd)
N           -1.96748186999018        3.06896991835147        2.01058348792547
C           -1.92423298484430        2.22042808175010        1.09562645706854
C           -3.00028107725019        2.03147551209091        0.05983434932265
C           -3.43559266369948        0.58982125085355        0.18862463663359
C           -4.55711142310133        0.05538470322765       -0.32492344542269
C           -4.98827428430357       -1.30780556147070       -0.20004761868738
O           -6.08397540671151       -1.77025022094286       -0.85458671102279
C           -6.78536362998067       -0.96264756167570       -1.76581188801080
C           -4.39440022775880       -2.28234617683125        0.58949958156448
O           -4.99674433336523       -3.50229561669860        0.57255300358216
C           -4.58190542509786       -4.47659694949125        1.49866328219996
C           -3.23881461742397       -2.10935164301784        1.37173164208150
C           -2.25179136556494       -2.20450783242571        2.06129630932314
C           -2.34621916138278        2.24587230366384       -1.33441327631239
C           -1.41617967926831        1.11236939776282       -1.79252246075256
C           -0.12984481509998        1.07529549859981       -1.06365760538077
N            0.51409761768435       -0.02820860857708       -0.69783354097917
C            1.87909484300586        0.04606341599064       -0.23297647960122
C            2.87766887349154       -0.26451379567913       -1.36513351275878
C            4.28624176846440       -0.08513515761897       -0.87409896149649
C            4.91337371438587        1.14623450063808       -0.96590608029683
C            6.20501716163243        1.32155500167002       -0.49399356693932
C            6.89406730148577        0.26655300142420        0.08626080688970
O            8.14808533462936        0.32094638886155        0.57315872648563
C            8.86680481906746        1.52960903706744        0.48405701182887
C            6.25588313415850       -0.99992956060829        0.19099915161686
O            6.99621834211800       -1.96964898257868        0.76568222429697
C            6.45964195044349       -3.26506621423633        0.88590049683478
C            4.96426158352187       -1.15106803457345       -0.28727772369430
C           -0.04589933545972       -1.34272204429781       -0.90148813339679
C           -4.19095851485809        3.01760839450176        0.21484011402193
C           -4.91982989020321        2.82118519968549        1.54258608846586
C           -3.77383050184386        4.48138434795359        0.07858834036394
H           -5.23305998208795        0.69683948982149       -0.87722454682940
H           -7.31476198481376       -0.14657161979140       -1.26279846707532
H           -7.51646287761917       -1.62571674648785       -2.22511548396121
H           -6.13131412239985       -0.55726743272904       -2.54446287087041
H           -4.66151242735245       -4.10844852674917        2.52499067798962
H           -5.25854568498768       -5.31786798261887        1.35352756811282
H           -3.55009066786299       -4.79441159043139        1.31603001418380
H           -2.76513070690675       -0.05389903291028        0.73896418914132
H           -1.42833000764736       -2.22408611495086        2.70503079846351
H           -3.14714011005612        2.33951377165763       -2.06857228142703
H           -1.78938442607018        3.18300444362095       -1.31968430487472
H           -1.94263976898685        0.16017900698586       -1.73496904562885
H           -1.18832313385861        1.30105855345725       -2.85118733073282
H           -1.08458695885311        1.51492078169424        0.94857788482445
H            0.39324483438101        2.00906188258532       -0.92202932539695
H            2.02131589989460       -0.66449814507883        0.58522093923742
H            2.07702867340568        1.05006785281596        0.14773870885781
H            2.68420024230209        0.41620013983282       -2.19603251796657
H            2.72786296433645       -1.28700076929632       -1.71401373695617
H            4.40209921354392        1.98070361025833       -1.42143948321632
H            6.67018127801598        2.28890886778133       -0.58837211750987
H            8.37789275265345        2.32927784378624        1.04885678637706
H            8.99595358223629        1.84268847349099       -0.55633433400402
H            9.84117591010939        1.32259518559422        0.92221498987715
H            7.23952478859225       -3.86203106722678        1.35453163821394
H            5.56823143977315       -3.27309644359785        1.52162304011098
H            6.21646174106083       -3.69167266748328       -0.09225780536684
H            4.47454765777180       -2.11014022451858       -0.22189363753229
H           -0.16728662542813       -1.56224067209761       -1.96432097622627
H           -1.02012937052522       -1.42648153625663       -0.41442559329061
H            0.61785781198671       -2.08615490891002       -0.46778481943705
H           -4.89232776163923        2.79810449416847       -0.59835037916371
H           -4.27642489926396        3.11715159485157        2.36480144926822
H           -5.21525081130907        1.78450201057802        1.68406181800988
H           -5.81315010550019        3.44065376671150        1.56341211403496
H           -3.02184907280457        4.72794684505239        0.82108451034341
H           -3.38960926808720        4.70621989198707       -0.91273423383804
H           -4.63980102826122        5.11564676505578        0.25004278964987
H           -1.18567662764385        3.10181773848331        2.65874351144690

          :  Hamiltonian                  GFN2-xTB          :
         :: total energy             -99.290416535648 Eh    ::
         :: gradient norm              0.007956090664 Eh/a0 ::
         :: HOMO-LUMO gap              1.345022241340 eV    ::
         :: SCC energy              -100.715798293319 Eh    ::
         :: -> dispersion             -0.072475504189 Eh    ::
         :: repulsion energy           1.424270106640 Eh    ::

    * Orbital Energies and Occupations

         #    Occupation            Energy/Eh            Energy/eV
      -------------------------------------------------------------
         1        2.0000           -0.8110020             -22.0685
       ...           ...                  ...                  ...
        78        1.9987           -0.5290739             -14.3968
        79        1.9985           -0.5266658             -14.3313
        80        1.9985           -0.5266189             -14.3300
        81        1.9981           -0.5231220             -14.2349
        82        1.9977           -0.5201919             -14.1551
        83        1.9973           -0.5178255             -14.0908
        84        1.9960           -0.5115974             -13.9213
        85        1.9946           -0.5065439             -13.7838
        86        1.9944           -0.5061455             -13.7729
        87        1.9804           -0.4861294             -13.2283
        88        1.9446           -0.4694228             -12.7736
        89        1.8569           -0.4536611             -12.3447
        90        1.7231           -0.4420258             -12.0281 (HOMO)
        91        0.4305           -0.3925971             -10.6831 (LUMO)
        92        0.0773           -0.3621850              -9.8556
        93        0.0146           -0.3353343              -9.1249
        94        0.0030           -0.3100098              -8.4358
        95        0.0025           -0.3075515              -8.3689
        96        0.0005           -0.2811544              -7.6506
        97        0.0003           -0.2714091              -7.3854
        98        0.0000           -0.1941563              -5.2833
        99        0.0000           -0.1849507              -5.0328
       100                         -0.1339271              -3.6443
       101                         -0.0824531              -2.2437
       ...                                ...                  ...
       171                          1.2843163              34.9480
      -------------------------------------------------------------
                  HL-Gap            0.0494287 Eh            1.3450 eV

     #   Z          covCN         q      C6AA      α(0)
     1   7 N        1.774    -0.271    27.858     7.816
     2   6 C        2.834     0.100    25.786     8.321
     3   6 C        3.906     0.012    20.318     6.407
     4   6 C        2.910    -0.045    29.120     8.849
     5   6 C        2.891    -0.062    29.539     8.911
     6   6 C        2.840     0.122    25.316     8.246
     7   8 O        1.709    -0.230    17.805     5.697
     8   6 C        3.638     0.029    20.448     6.505
     9   6 C        2.843     0.133    25.077     8.207
    10   8 O        1.706    -0.222    17.691     5.679
    11   6 C        3.644     0.028    20.447     6.500
    12   6 C        1.967    -0.028    31.816     9.109
    13   6 C        1.910    -0.093    33.667     9.371
    14   6 C        3.811    -0.065    21.734     6.636
    15   6 C        3.802    -0.068    21.800     6.647
    16   6 C        2.844     0.003    27.947     8.664
    17   7 N        2.729     0.009    21.106     6.823
    18   6 C        3.756    -0.016    20.916     6.521
    19   6 C        3.808    -0.070    21.839     6.652
    20   6 C        2.969    -0.001    28.052     8.688
    21   6 C        2.922    -0.049    29.223     8.865
    22   6 C        2.914    -0.068    29.689     8.935
    23   6 C        2.865     0.133    25.091     8.211
    24   8 O        1.706    -0.223    17.708     5.682
    25   6 C        3.645     0.025    20.480     6.504
    26   6 C        2.863     0.132    25.101     8.212
    27   8 O        1.706    -0.226    17.755     5.689
    28   6 C        3.645     0.028    20.440     6.498
    29   6 C        2.920    -0.080    29.999     8.982
    30   6 C        3.700    -0.069    21.996     6.707
    31   6 C        3.851    -0.009    20.699     6.471
    32   6 C        3.756    -0.118    22.814     6.810
    33   6 C        3.755    -0.121    22.868     6.818
    34   1 H        0.925     0.062     2.174     2.306
    35   1 H        0.924     0.055     2.260     2.351
    36   1 H        0.925     0.081     1.968     2.194
    37   1 H        0.924     0.048     2.348     2.396
    38   1 H        0.924     0.055     2.256     2.349
    39   1 H        0.925     0.082     1.959     2.189
    40   1 H        0.924     0.050     2.320     2.382
    41   1 H        0.926     0.037     2.495     2.470
    42   1 H        0.928     0.093     1.850     2.127
    43   1 H        0.924     0.061     2.191     2.315
    44   1 H        0.925     0.057     2.232     2.336
    45   1 H        0.925     0.065     2.143     2.289
    46   1 H        0.923     0.080     1.983     2.202
    47   1 H        0.922     0.001     3.049     2.731
    48   1 H        0.926     0.069     2.099     2.266
    49   1 H        0.924     0.066     2.129     2.282
    50   1 H        0.924     0.068     2.113     2.273
    51   1 H        0.924     0.054     2.270     2.356
    52   1 H        0.924     0.055     2.262     2.352
    53   1 H        0.926     0.044     2.392     2.419
    54   1 H        0.926     0.058     2.225     2.333
    55   1 H        0.924     0.053     2.277     2.360
    56   1 H        0.924     0.055     2.257     2.349
    57   1 H        0.925     0.082     1.962     2.191
    58   1 H        0.925     0.081     1.968     2.194
    59   1 H        0.924     0.047     2.353     2.399
    60   1 H        0.924     0.052     2.300     2.372
    61   1 H        0.926     0.046     2.373     2.409
    62   1 H        0.924     0.076     2.023     2.224
    63   1 H        0.924     0.077     2.006     2.215
    64   1 H        0.925     0.079     1.987     2.205
    65   1 H        0.924     0.035     2.512     2.479
    66   1 H        0.925     0.066     2.128     2.281
    67   1 H        0.925     0.033     2.541     2.493
    68   1 H        0.925     0.050     2.319     2.381
    69   1 H        0.925     0.064     2.151     2.293
    70   1 H        0.925     0.035     2.521     2.483
    71   1 H        0.925     0.054     2.269     2.356
    72   1 H        0.860     0.156     1.362     1.828

Wiberg/Mayer (AO) data.
largest (>0.10) Wiberg bond orders for each atom

     #   Z sym  total        # sym  WBO       # sym  WBO       # sym  WBO
 ---------------------------------------------------------------------------
     1   7 N    3.033 --     2 C    1.959    72 H    0.942
     2   6 C    3.932 --     1 N    1.959     3 C    0.991    47 H    0.912
     3   6 C    3.977 --     4 C    0.991     2 C    0.991    31 C    0.952
                            14 C    0.940
     4   6 C    3.874 --     5 C    1.730     3 C    0.991    41 H    0.947
     5   6 C    3.962 --     4 C    1.730     6 C    1.162    34 H    0.950
     6   6 C    3.832 --     9 C    1.384     5 C    1.162     7 O    1.091
     7   8 O    2.232 --     6 C    1.091     8 C    0.980
     8   6 C    3.931 --     7 O    0.980    36 H    0.975    37 H    0.973
                            35 H    0.970
     9   6 C    3.805 --     6 C    1.384    12 C    1.145    10 O    1.078
    10   8 O    2.230 --     9 C    1.078    11 C    0.980
    11   6 C    3.929 --    10 O    0.980    39 H    0.976    38 H    0.973
                            40 H    0.972
    12   6 C    3.969 --    13 C    2.744     9 C    1.145
    13   6 C    3.889 --    12 C    2.744    42 H    0.969
    14   6 C    3.964 --    15 C    0.987    44 H    0.972    43 H    0.970
                             3 C    0.940
    15   6 C    3.987 --    16 C    1.060    14 C    0.987    45 H    0.960
                            46 H    0.925
    16   6 C    3.564 --    17 N    1.395    15 C    1.060    48 H    0.958
    17   7 N    3.464 --    16 C    1.395    30 C    0.999    18 C    0.988
    18   6 C    3.955 --    17 N    0.988    50 H    0.968    19 C    0.966
                            49 H    0.965
    19   6 C    3.976 --    20 C    1.008    51 H    0.972    52 H    0.972
                            18 C    0.966
    20   6 C    3.947 --    21 C    1.411    29 C    1.378    19 C    1.008
    21   6 C    3.952 --    22 C    1.416    20 C    1.411    53 H    0.968
    22   6 C    3.961 --    21 C    1.416    23 C    1.385    54 H    0.963
    23   6 C    3.898 --    22 C    1.385    26 C    1.222    24 O    1.108
    24   8 O    2.255 --    23 C    1.108    25 C    0.976
    25   6 C    3.929 --    57 H    0.977    24 O    0.976    56 H    0.973
                            55 H    0.973
    26   6 C    3.901 --    29 C    1.397    23 C    1.222    27 O    1.101
    27   8 O    2.254 --    26 C    1.101    28 C    0.979
    28   6 C    3.933 --    27 O    0.979    58 H    0.977    59 H    0.974
                            60 H    0.973
    29   6 C    3.960 --    26 C    1.397    20 C    1.378    61 H    0.963
    30   6 C    3.959 --    17 N    0.999    64 H    0.978    62 H    0.967
                            63 H    0.963
    31   6 C    3.975 --    32 C    1.009    33 C    1.008    65 H    0.959
                             3 C    0.952
    32   6 C    3.982 --    31 C    1.009    67 H    0.982    68 H    0.982
                            66 H    0.976
    33   6 C    3.983 --    31 C    1.008    70 H    0.983    71 H    0.981
                            69 H    0.976
    34   1 H    0.995 --     5 C    0.950
    35   1 H    0.990 --     8 C    0.970
    36   1 H    0.992 --     8 C    0.975
    37   1 H    0.992 --     8 C    0.973
    38   1 H    0.990 --    11 C    0.973
    39   1 H    0.993 --    11 C    0.976
    40   1 H    0.990 --    11 C    0.972
    41   1 H    0.997 --     4 C    0.947
    42   1 H    0.991 --    13 C    0.969
    43   1 H    0.995 --    14 C    0.970
    44   1 H    0.996 --    14 C    0.972
    45   1 H    0.994 --    15 C    0.960
    46   1 H    0.967 --    15 C    0.925
    47   1 H    0.988 --     2 C    0.912
    48   1 H    0.995 --    16 C    0.958
    49   1 H    0.991 --    18 C    0.965
    50   1 H    0.994 --    18 C    0.968
    51   1 H    0.996 --    19 C    0.972
    52   1 H    0.996 --    19 C    0.972
    53   1 H    0.997 --    21 C    0.968
    54   1 H    0.995 --    22 C    0.963
    55   1 H    0.992 --    25 C    0.973
    56   1 H    0.992 --    25 C    0.973
    57   1 H    0.993 --    25 C    0.977
    58   1 H    0.993 --    28 C    0.977
    59   1 H    0.994 --    28 C    0.974
    60   1 H    0.993 --    28 C    0.973
    61   1 H    0.997 --    29 C    0.963
    62   1 H    0.985 --    30 C    0.967
    63   1 H    0.987 --    30 C    0.963
    64   1 H    0.994 --    30 C    0.978
    65   1 H    0.994 --    31 C    0.959
    66   1 H    0.992 --    32 C    0.976
    67   1 H    0.997 --    32 C    0.982
    68   1 H    0.995 --    32 C    0.982
    69   1 H    0.993 --    33 C    0.976
    70   1 H    0.997 --    33 C    0.983
    71   1 H    0.994 --    33 C    0.981
    72   1 H    0.971 --     1 N    0.942
 ---------------------------------------------------------------------------

molecular dipole:
                 x           y           z       tot (Debye)
 q only:        0.290      -0.244      -0.800
   full:        0.598      -0.408      -0.873       2.884

           -------------------------------------------------
          | TOTAL ENERGY              -99.290416535648 Eh   |
          | GRADIENT NORM               0.007956090664 Eh/α |
          | HOMO-LUMO GAP               1.345022241340 eV   |
           -------------------------------------------------

 * finished run on 2024/04/06 at 11:12:42.053
