   * xtb version 6.6.1 (8d0f1dd) compiled by 'conda@1efc2f54142f' on 2023-08-01
          program call               : xtb xtbopt.xyz --opt crude --input .xc2 --gfn2

   ID    Z sym.   atoms
    1    7 N      1, 17
    2    6 C      2-6, 8, 9, 11-16, 18-23, 25, 26, 28-33
    3    8 O      7, 10, 24, 27
    4    1 H      34-72

          :  Hamiltonian                  GFN2-xTB          :
 * total energy  :   -99.2506756 Eh     change       -0.1786304E-10 Eh
   *** GEOMETRY OPTIMIZATION CONVERGED AFTER 1 ITERATIONS ***

 final structure:
================
72
 xtb: 6.6.1 (8d0f1dd)
N           -1.89083639269171        2.89027015197764        2.23892203439247
C           -1.84475377697656        2.14897870074774        1.23639745002573
C           -2.97608145006209        1.94651566276753        0.26679618714082
C           -3.44800362191570        0.50216544610064        0.32982734964886
C           -4.34400950094323        0.02046170511081       -0.62674032465389
C           -4.82642254314277       -1.27729486703451       -0.57812786854238
O           -5.70015217113505       -1.81781352758379       -1.45076706338557
C           -6.28349148063422       -1.00352722236065       -2.44090460836036
C           -4.39400542392571       -2.14679252085502        0.46055632920887
O           -4.91085457311945       -3.39018936769621        0.42821223799893
C           -4.61402443224426       -4.28424016490963        1.47610538282512
C           -3.50383765656822       -1.66211735310395        1.40596998655387
C           -3.04093710007737       -0.35410454084834        1.34180612790270
C           -2.38655972284144        2.26167932948444       -1.13312960724901
C           -1.45606010496121        1.17204711502105       -1.69469458690209
C           -0.14704791777086        1.08430170738492       -1.00916489670891
N            0.45911933434944       -0.04422954041515       -0.66557104650116
C            1.82596626457083       -0.03904113480656       -0.19680491859000
C            2.80580342434071       -0.48368298131897       -1.29963438775699
C            4.21558870886063       -0.49574590670894       -0.76542660050504
C            4.98704653080445        0.65699442840280       -0.82878938318613
C            6.28448709470300        0.63848595596087       -0.30683838263088
C            6.70204159816656       -0.51702858113002        0.23580857834379
O            8.62710883979494        2.28843935479027        0.09283026656760
C            9.53703975416798        3.21125573230138       -0.19556314502384
C            6.02159132356641       -1.70416703604408        0.34234327290557
O            6.59541113117415       -2.77461237312505        0.90816767611516
C            5.89052117076496       -3.99217080247748        0.97024171948418
C            4.71855616999379       -1.65512028020691       -0.18648549102697
C           -0.18394367504149       -1.32972998537174       -0.80392562779270
C           -4.20125645727839        2.86750728912275        0.54649509272420
C           -4.84521944819073        2.54595623033788        1.89297243492153
C           -3.86544445678954        4.35446793030168        0.47757889221755
H           -4.68286388718967        0.67608496080088       -1.41165723779428
H           -6.81472778029296       -0.15498857122641       -1.99965007199168
H           -6.99465264117705       -1.64211221620342       -2.96115948518474
H           -5.53765944286437       -0.63941102576898       -3.15490773332656
H           -4.92737038141881       -3.88363251065420        2.44458233108994
H           -5.18057566188005       -5.18743401042410        1.25860137954780
H           -3.54672726945081       -4.52569138722315        1.50793469700198
H           -3.17321541228601       -2.29233797773951        2.21539876289211
H           -2.37620385810752       -0.00354999963792        2.11611239694760
H           -3.20780928345567        2.39591146220292       -1.83620465760047
H           -1.84190573840447        3.20484462915122       -1.07914915813542
H           -1.97476147191576        0.21500369639685       -1.69226490486697
H           -1.25527955547799        1.44083542183367       -2.74026356541790
H           -0.93992063617497        1.59135263275105        0.92230453799483
H            0.43074979693208        1.99216349829905       -0.91575054976158
H            1.91235295704169       -0.71350672831523        0.65981517462163
H            2.09506702678522        0.96628142846780        0.13292649460425
H            2.73251337943093        0.21148927364863       -2.13773221596638
H            2.53112003145591       -1.47849561644897       -1.65381694884123
H            4.60652040759753        1.55768556375117       -1.28496069623139
H            6.93918918995800        1.50225836079455       -0.33062775591162
H            9.20203609147652        4.22665728211787        0.09435873304594
H            9.77230677623191        3.24011348640530       -1.28047563858605
H           10.49254534783442        3.01994019490583        0.33807026298174
H            6.57053618948576       -4.69932092205946        1.44101885537838
H            4.98615727307314       -3.90256809880762        1.58128896436009
H            5.62769337637299       -4.35554740059896       -0.02839346437252
H            4.10421846212130       -2.54317699094563       -0.15377429143055
H           -0.34737734122745       -1.57848560957388       -1.85457273498780
H           -1.14722938791569       -1.33241972245299       -0.28825279397293
H            0.44696508410750       -2.09577719078827       -0.36066836663086
H           -4.93590327392115        2.64975810489489       -0.23729353767189
H           -4.15466139260061        2.77083688981293        2.69942333702873
H           -5.13066349039695        1.49848670343707        1.95332749613779
H           -5.73797663231821        3.15161238423776        2.02339106663716
H           -3.10950561591041        4.60543828663136        1.21527108256089
H           -3.51703611860468        4.64786604865378       -0.50907035749629
H           -4.75965585175651        4.93119795831551        0.69895183243129
H           -1.05711310710460        2.97885868004305        2.81067052336462

          :  Hamiltonian                  GFN2-xTB          :
         :: total energy             -99.250675569380 Eh    ::
         :: gradient norm              0.005700058113 Eh/a0 ::
         :: HOMO-LUMO gap              0.753745625261 eV    ::
         :: SCC energy              -100.632271858811 Eh    ::
         :: -> dispersion             -0.072545917803 Eh    ::
         :: repulsion energy           1.380340754570 Eh    ::

    * Orbital Energies and Occupations

         #    Occupation            Energy/Eh            Energy/eV
      -------------------------------------------------------------
         1        2.0000           -0.8150690             -22.1792
       ...           ...                  ...                  ...
        78        1.9978           -0.5325439             -14.4913
        79        1.9971           -0.5280882             -14.3700
        80        1.9965           -0.5251032             -14.2888
        81        1.9951           -0.5200399             -14.1510
        82        1.9943           -0.5174046             -14.0793
        83        1.9932           -0.5147462             -14.0070
        84        1.9857           -0.5029543             -13.6861
        85        1.9788           -0.4965804             -13.5126
        86        1.9314           -0.4776206             -12.9967
        87        1.9267           -0.4765354             -12.9672
        88        1.8568           -0.4653587             -12.6631
        89        1.5923           -0.4463542             -12.1459
        90        1.5781           -0.4456726             -12.1274 (HOMO)
        91        0.7882           -0.4179730             -11.3736 (LUMO)
        92        0.3762           -0.4016247             -10.9288
        93        0.0126           -0.3446621              -9.3787
        94        0.0032           -0.3228330              -8.7847
        95        0.0027           -0.3200256              -8.7083
        96        0.0026           -0.3197915              -8.7020
        97        0.0020           -0.3156258              -8.5886
        98        0.0000           -0.1973071              -5.3690
        99        0.0000           -0.1873594              -5.0983
       100                         -0.1442096              -3.9241
       101                         -0.0748924              -2.0379
       ...                                ...                  ...
       171                          0.5864029              15.9568
      -------------------------------------------------------------
                  HL-Gap            0.0276996 Eh            0.7537 eV

     #   Z          covCN         q      C6AA      α(0)
     1   7 N        1.774    -0.264    27.667     7.789
     2   6 C        2.827     0.102    25.740     8.314
     3   6 C        3.907     0.007    20.411     6.422
     4   6 C        2.974     0.002    27.975     8.676
     5   6 C        2.920    -0.080    30.003     8.982
     6   6 C        2.862     0.130    25.152     8.221
     7   8 O        1.706    -0.228    17.778     5.693
     8   6 C        3.644     0.027    20.463     6.502
     9   6 C        2.864     0.129    25.170     8.224
    10   8 O        1.706    -0.226    17.752     5.689
    11   6 C        3.645     0.026    20.472     6.503
    12   6 C        2.913    -0.074    29.855     8.960
    13   6 C        2.921    -0.053    29.312     8.878
    14   6 C        3.813    -0.065    21.737     6.636
    15   6 C        3.802    -0.070    21.840     6.654
    16   6 C        2.843     0.009    27.799     8.641
    17   7 N        2.729     0.014    21.007     6.807
    18   6 C        3.755    -0.017    20.941     6.525
    19   6 C        3.808    -0.070    21.841     6.653
    20   6 C        2.967     0.006    27.889     8.662
    21   6 C        2.940    -0.040    29.001     8.832
    22   6 C        2.911    -0.017    28.435     8.744
    23   6 C        2.041    -0.014    31.372     9.047
    24   8 O        0.854    -0.419    22.058     6.297
    25   6 C        3.619     0.082    19.653     6.393
    26   6 C        2.856     0.169    24.351     8.088
    27   8 O        1.706    -0.219    17.640     5.671
    28   6 C        3.645     0.027    20.456     6.500
    29   6 C        2.945    -0.076    29.888     8.966
    30   6 C        3.700    -0.071    22.036     6.713
    31   6 C        3.853    -0.007    20.672     6.467
    32   6 C        3.756    -0.119    22.830     6.813
    33   6 C        3.755    -0.120    22.848     6.816
    34   1 H        0.926     0.053     2.284     2.363
    35   1 H        0.924     0.055     2.257     2.350
    36   1 H        0.925     0.083     1.951     2.184
    37   1 H        0.924     0.048     2.341     2.393
    38   1 H        0.924     0.057     2.239     2.340
    39   1 H        0.925     0.083     1.952     2.185
    40   1 H        0.924     0.049     2.331     2.387
    41   1 H        0.926     0.054     2.276     2.359
    42   1 H        0.926     0.040     2.447     2.446
    43   1 H        0.925     0.062     2.174     2.306
    44   1 H        0.924     0.056     2.250     2.346
    45   1 H        0.925     0.068     2.112     2.273
    46   1 H        0.923     0.083     1.951     2.184
    47   1 H        0.922     0.007     2.935     2.679
    48   1 H        0.926     0.073     2.054     2.241
    49   1 H        0.924     0.069     2.091     2.261
    50   1 H        0.924     0.070     2.082     2.257
    51   1 H        0.924     0.058     2.218     2.329
    52   1 H        0.924     0.058     2.227     2.334
    53   1 H        0.926     0.057     2.229     2.335
    54   1 H        0.925     0.149     1.398     1.849
    55   1 H        0.922     0.063     2.165     2.301
    56   1 H        0.922     0.063     2.166     2.302
    57   1 H        0.921     0.072     2.064     2.247
    58   1 H        0.925     0.084     1.936     2.176
    59   1 H        0.924     0.049     2.330     2.387
    60   1 H        0.924     0.053     2.278     2.360
    61   1 H        0.926     0.053     2.282     2.362
    62   1 H        0.924     0.078     1.999     2.211
    63   1 H        0.924     0.080     1.976     2.198
    64   1 H        0.925     0.081     1.966     2.193
    65   1 H        0.924     0.038     2.469     2.457
    66   1 H        0.925     0.069     2.094     2.263
    67   1 H        0.925     0.036     2.507     2.476
    68   1 H        0.925     0.053     2.285     2.364
    69   1 H        0.925     0.063     2.169     2.303
    70   1 H        0.925     0.036     2.502     2.474
    71   1 H        0.925     0.056     2.244     2.343
    72   1 H        0.860     0.160     1.334     1.809

Wiberg/Mayer (AO) data.
largest (>0.10) Wiberg bond orders for each atom

     #   Z sym  total        # sym  WBO       # sym  WBO       # sym  WBO
 ---------------------------------------------------------------------------
     1   7 N    3.043 --     2 C    1.960    72 H    0.940
     2   6 C    3.930 --     1 N    1.960     3 C    0.994    47 H    0.898
     3   6 C    3.974 --     2 C    0.994     4 C    0.971    14 C    0.956
                            31 C    0.941
     4   6 C    3.946 --    13 C    1.411     5 C    1.369     3 C    0.971
     5   6 C    3.960 --     6 C    1.399     4 C    1.369    34 H    0.958
     6   6 C    3.903 --     5 C    1.399     9 C    1.219     7 O    1.102
     7   8 O    2.255 --     6 C    1.102     8 C    0.977
     8   6 C    3.930 --     7 O    0.977    36 H    0.976    35 H    0.973
                            37 H    0.973
     9   6 C    3.898 --    12 C    1.390     6 C    1.219    10 O    1.105
    10   8 O    2.253 --     9 C    1.105    11 C    0.976
    11   6 C    3.930 --    39 H    0.977    10 O    0.976    40 H    0.973
                            38 H    0.973
    12   6 C    3.961 --    13 C    1.405     9 C    1.390    41 H    0.963
    13   6 C    3.951 --     4 C    1.411    12 C    1.405    42 H    0.962
    14   6 C    3.973 --    15 C    0.982    44 H    0.972    43 H    0.968
                             3 C    0.956
    15   6 C    3.986 --    16 C    1.060    14 C    0.982    45 H    0.961
                            46 H    0.925
    16   6 C    3.607 --    17 N    1.411    15 C    1.060    48 H    0.957
    17   7 N    3.488 --    16 C    1.411    30 C    0.997    18 C    0.988
    18   6 C    3.957 --    17 N    0.988    19 C    0.969    50 H    0.968
                            49 H    0.963
    19   6 C    3.971 --    20 C    1.000    51 H    0.972    52 H    0.971
                            18 C    0.969
    20   6 C    3.970 --    29 C    1.418    21 C    1.417    19 C    1.000
    21   6 C    3.888 --    20 C    1.417    22 C    1.329    53 H    0.961
    22   6 C    3.922 --    23 C    1.555    21 C    1.329    54 H    0.890
    23   6 C    3.155 --    22 C    1.555    26 C    1.352
    24   8 O    1.235 --    25 C    1.180
    25   6 C    3.873 --    24 O    1.180    55 H    0.898    56 H    0.898
                            57 H    0.892
    26   6 C    3.895 --    23 C    1.352    29 C    1.292    27 O    1.112
    27   8 O    2.269 --    26 C    1.112    28 C    0.975
    28   6 C    3.930 --    58 H    0.976    27 O    0.975    59 H    0.974
                            60 H    0.974
    29   6 C    3.902 --    20 C    1.418    26 C    1.292    61 H    0.952
    30   6 C    3.957 --    17 N    0.997    64 H    0.977    62 H    0.966
                            63 H    0.962
    31   6 C    3.970 --    33 C    1.009    32 C    1.008    65 H    0.959
                             3 C    0.941
    32   6 C    3.977 --    31 C    1.008    67 H    0.981    68 H    0.981
                            66 H    0.973
    33   6 C    3.980 --    31 C    1.009    70 H    0.983    71 H    0.979
                            69 H    0.975
    34   1 H    0.996 --     5 C    0.958
    35   1 H    0.993 --     8 C    0.973
    36   1 H    0.992 --     8 C    0.976
    37   1 H    0.993 --     8 C    0.973
    38   1 H    0.992 --    11 C    0.973
    39   1 H    0.992 --    11 C    0.977
    40   1 H    0.993 --    11 C    0.973
    41   1 H    0.995 --    12 C    0.963
    42   1 H    0.998 --    13 C    0.962
    43   1 H    0.995 --    14 C    0.968
    44   1 H    0.996 --    14 C    0.972
    45   1 H    0.995 --    15 C    0.961
    46   1 H    0.970 --    15 C    0.925
    47   1 H    0.985 --     2 C    0.898
    48   1 H    0.994 --    16 C    0.957
    49   1 H    0.990 --    18 C    0.963
    50   1 H    0.994 --    18 C    0.968
    51   1 H    0.996 --    19 C    0.972
    52   1 H    0.996 --    19 C    0.971
    53   1 H    0.989 --    21 C    0.961
    54   1 H    0.953 --    22 C    0.890
    55   1 H    0.902 --    25 C    0.898
    56   1 H    0.902 --    25 C    0.898
    57   1 H    0.896 --    25 C    0.892
    58   1 H    0.992 --    28 C    0.976
    59   1 H    0.994 --    28 C    0.974
    60   1 H    0.994 --    28 C    0.974
    61   1 H    0.985 --    29 C    0.952
    62   1 H    0.985 --    30 C    0.966
    63   1 H    0.987 --    30 C    0.962
    64   1 H    0.993 --    30 C    0.977
    65   1 H    0.991 --    31 C    0.959
    66   1 H    0.990 --    32 C    0.973
    67   1 H    0.996 --    32 C    0.981
    68   1 H    0.993 --    32 C    0.981
    69   1 H    0.992 --    33 C    0.975
    70   1 H    0.997 --    33 C    0.983
    71   1 H    0.993 --    33 C    0.979
    72   1 H    0.969 --     1 N    0.940
 ---------------------------------------------------------------------------

molecular dipole:
                 x           y           z       tot (Debye)
 q only:       -0.986      -0.593      -1.065
   full:       -0.545      -0.608      -1.224       3.741

           -------------------------------------------------
          | TOTAL ENERGY              -99.250675569380 Eh   |
          | GRADIENT NORM               0.005700058113 Eh/α |
          | HOMO-LUMO GAP               0.753745625261 eV   |
           -------------------------------------------------

 * finished run on 2024/04/06 at 11:14:28.424
