   * xtb version 6.6.1 (8d0f1dd) compiled by 'conda@1efc2f54142f' on 2023-08-01
          program call               : xtb struc.xyz --opt loose --input .xc1 --gfn2

   ID    Z sym.   atoms
    1    6 C      1, 3, 5-7, 10, 11, 14
    2    7 N      2, 4, 9, 13
    3    8 O      8, 12
    4    1 H      15-25
constraining bond 6 22 to    4.7133300 Å, actual value:    4.0892960 Å

          :  Hamiltonian                  GFN2-xTB          :
 * total energy  :   -42.9431776 Eh     change       -0.6650680E-10 Eh
 * total energy  :   -45.3647635 Eh     change       -0.2421586E+01 Eh
 * total energy  :   -49.2528358 Eh     change       -0.3888072E+01 Eh
 * total energy  :   -54.7450446 Eh     change       -0.5492209E+01 Eh
 * total energy  :   -62.1102289 Eh     change       -0.7365184E+01 Eh
 * total energy  :   -70.8361512 Eh     change       -0.8725922E+01 Eh
 * total energy  :   -57.8034207 Eh     change        0.1303273E+02 Eh
 * total energy  :   -68.1211101 Eh     change       -0.1031769E+02 Eh
 * total energy  :   -68.6960704 Eh     change       -0.5749603E+00 Eh
 * total energy  :   -70.8910094 Eh     change       -0.2194939E+01 Eh
 * total energy  :   -73.3390664 Eh     change       -0.2794782E-04 Eh
 * total energy  :   -73.3392270 Eh     change       -0.1606372E-03 Eh
 * total energy  :   -73.3392881 Eh     change       -0.6105294E-04 Eh
 * total energy  :   -73.3393832 Eh     change       -0.9514245E-04 Eh
 * total energy  :   -73.3394434 Eh     change       -0.6014527E-04 Eh
 * total energy  :   -73.3394742 Eh     change       -0.3080418E-04 Eh
 * total energy  :   -73.3394926 Eh     change       -0.1849054E-04 Eh
 * total energy  :   -73.3395032 Eh     change       -0.1055064E-04 Eh
 * total energy  :   -73.3395112 Eh     change       -0.7998833E-05 Eh
   *** GEOMETRY OPTIMIZATION CONVERGED AFTER 85 ITERATIONS ***

 final structure:
================
25
 xtb: 6.6.1 (8d0f1dd)
C            4.33215708467990        0.32037637531651        0.09723225985213
N            2.99391719405966       -0.09982038573853        0.04876164296449
C            2.56293447167387       -1.28046785435984       -0.00265134323814
N            1.22989725141526       -1.58458083894373       -0.07731032013566
C            0.19862845619061       -0.66865614390605       -0.03829183169937
C            0.47731989160947        0.66143636912149        0.26696823561264
C           -0.71564104474277        1.55960098585043        0.31471223194156
O           -0.59821858165644        2.74607898261896        0.49733908678590
N           -1.98721923165465        0.98219747324974        0.18809429524699
C           -3.14938636771377        1.84404453803645        0.36264124573689
C           -2.24617520332899       -0.31598305040362       -0.07628477066888
O           -3.33539154561116       -0.80317722763718       -0.15572916856628
N           -1.07067874016663       -1.16089995547730       -0.31735844031798
C           -1.33855417500006       -2.36083257323320       -0.81197517998626
H            4.45991553806573        0.96583329464908        0.96891699339661
H            5.05068757974918       -0.50544617417658        0.14767752859798
H            4.53539716190552        0.92568039839771       -0.78760167303474
H            3.20629081935615       -2.16662111329144       -0.00932412778617
H           -2.80956747895090        2.87737198828136        0.33699966680899
H           -3.86785714559108        1.65430558013740       -0.43332196958454
H           -3.62744896772042        1.63660334715047        1.32058978214738
H            0.82017378010406        0.81398247331546        0.34593569116532
H           -0.57840612684209       -3.04617813876630       -1.13276484300932
H           -2.38018760079484       -2.60834936439919       -0.93990238004006
H            0.99784449506291       -2.56826044418960       -0.08218099429000

          :  Hamiltonian                  GFN2-xTB          :
         :: total energy             -73.339511195446 Eh    ::
         :: gradient norm              0.003353272205 Eh/a0 ::
         :: HOMO-LUMO gap              1.125145182803 eV    ::
         :: SCC energy               -42.690207708272 Eh    ::
         :: -> dispersion             -0.021311979932 Eh    ::
         :: repulsion energy           2.825179786614 Eh    ::

    * Orbital Energies and Occupations

         #    Occupation            Energy/Eh            Energy/eV
      -------------------------------------------------------------
         1        2.0000           -0.8995235             -24.4773
       ...           ...                  ...                  ...
        25        1.9998           -0.6657624             -18.1163
        26        1.9998           -0.6611610             -17.9911
        27        1.9996           -0.6521063             -17.7447
        28        1.9995           -0.6469881             -17.6054
        29        1.9991           -0.6394531             -17.4004
        30        1.9986           -0.6312744             -17.1779
        31        1.9940           -0.6085932             -16.5607
        32        1.9917           -0.6034587             -16.4209
        33        1.9888           -0.5986321             -16.2896
        34        1.9532           -0.5757000             -15.6656
        35        1.9263           -0.5682938             -15.4641
        36        1.8772           -0.5598091             -15.2332
        37        1.6914           -0.5435685             -14.7913 (HOMO)
        38        0.5740           -0.5022201             -13.6661 (LUMO)
        39        0.0061           -0.4249870             -11.5645
        40        0.0009           -0.3944204             -10.7327
        41        0.0002           -0.3735047             -10.1636
        42        0.0000           -0.3069771              -8.3533
        43                         -0.2151872              -5.8555
        44                         -0.1767008              -4.8083
        45                         -0.1617953              -4.4027
        46                         -0.0725905              -1.9753
        47                         -0.0624913              -1.7005
        48                         -0.0400059              -1.0886
       ...                                ...                  ...
        67                         14.3557281             390.6392
      -------------------------------------------------------------
                  HL-Gap            0.0413483 Eh            1.1251 eV

     #   Z          covCN         q      C6AA      α(0)
     1   6 C        3.701    -0.053    21.682     6.659
     2   7 N        1.829    -0.129    24.564     7.344
     3   6 C        2.773     0.117    25.408     8.256
     4   7 N        2.701    -0.102    23.252     7.162
     5   6 C        2.882     0.115    25.462     8.272
     6   6 C        2.900    -0.158    32.100     9.290
     7   6 C        2.786     0.268    22.475     7.765
     8   8 O        0.859    -0.306    19.884     5.979
     9   7 N        2.735    -0.063    22.462     7.039
    10   6 C        3.710    -0.067    21.923     6.691
    11   6 C        2.736     0.317    21.618     7.612
    12   8 O        0.859    -0.331    20.343     6.047
    13   7 N        2.737     0.012    21.039     6.812
    14   6 C        2.805    -0.027    28.659     8.770
    15   1 H        0.924     0.115     1.656     2.012
    16   1 H        0.924     0.083     1.944     2.181
    17   1 H        0.924     0.114     1.666     2.018
    18   1 H        0.924     0.078     2.004     2.214
    19   1 H        0.925     0.123     1.586     1.970
    20   1 H        0.925     0.108     1.716     2.049
    21   1 H        0.924     0.106     1.735     2.060
    22   1 H        0.990     0.204     1.075     1.620
    23   1 H        0.926     0.111     1.691     2.033
    24   1 H        0.926     0.152     1.378     1.836
    25   1 H        0.860     0.213     1.042     1.599

Wiberg/Mayer (AO) data.
largest (>0.10) Wiberg bond orders for each atom

     #   Z sym  total        # sym  WBO       # sym  WBO       # sym  WBO
 ---------------------------------------------------------------------------
     1   6 C    3.906 --     2 N    1.067    16 H    0.933    15 H    0.932
                            17 H    0.931
     2   7 N    2.986 --     3 C    1.744     1 C    1.067
     3   6 C    3.931 --     2 N    1.744     4 N    1.166    18 H    0.913
     4   7 N    3.467 --     3 C    1.166     5 C    1.145    25 H    0.915
     5   6 C    3.903 --     6 C    1.505     4 N    1.145    13 N    1.093
     6   6 C    3.755 --     5 C    1.505     7 C    1.048    22 H    0.927
     7   6 C    3.919 --     8 O    1.726     9 N    1.059     6 C    1.048
     8   8 O    1.994 --     7 C    1.726     9 N    0.108
     9   7 N    3.549 --    11 C    1.204     7 C    1.059    10 C    0.963
                            12 O    0.155     8 O    0.108
    10   6 C    3.888 --     9 N    0.963    19 H    0.961    20 H    0.961
                            21 H    0.954
    11   6 C    3.935 --    12 O    1.730     9 N    1.204    13 N    0.913
    12   8 O    2.063 --    11 C    1.730     9 N    0.155
    13   7 N    3.614 --    14 C    1.419     5 C    1.093    11 C    0.913
    14   6 C    3.447 --    13 N    1.419    23 H    0.958    24 H    0.948
    15   1 H    0.966 --     1 C    0.932
    16   1 H    0.939 --     1 C    0.933
    17   1 H    0.968 --     1 C    0.931
    18   1 H    0.950 --     3 C    0.913
    19   1 H    0.980 --    10 C    0.961
    20   1 H    0.979 --    10 C    0.961
    21   1 H    0.975 --    10 C    0.954
    22   1 H    0.957 --     6 C    0.927
    23   1 H    0.986 --    14 C    0.958
    24   1 H    0.976 --    14 C    0.948
    25   1 H    0.953 --     4 N    0.915
 ---------------------------------------------------------------------------

molecular dipole:
                 x           y           z       tot (Debye)
 q only:        1.426      -1.829      -0.296
   full:        1.664      -2.495      -0.352       7.675

           -------------------------------------------------
          | TOTAL ENERGY              -73.339511195446 Eh   |
          | GRADIENT NORM               0.003353272205 Eh/α |
          | HOMO-LUMO GAP               1.125145182803 eV   |
           -------------------------------------------------

 * finished run on 2024/06/05 at 19:58:12.322
