   * xtb version 6.6.1 (8d0f1dd) compiled by 'conda@1efc2f54142f' on 2023-08-01
          program call               : xtb xtbopt.xyz --opt crude --input .xc2 --gfn2

   ID    Z sym.   atoms
    1    6 C      1, 3, 5-7, 10, 11, 14
    2    7 N      2, 4, 9, 13
    3    8 O      8, 12
    4    1 H      15-25
########################################################################
[WARNING] Please study the warnings concerning your input carefully
-1- readin_getIntValue: could not parse ''
########################################################################

          :  Hamiltonian                  GFN2-xTB          :
 * total energy  :   -39.8650294 Eh     change       -0.2415845E-12 Eh
 * total energy  :   -42.1073228 Eh     change       -0.2242293E+01 Eh
 * total energy  :   -42.1357920 Eh     change       -0.2846922E-01 Eh
 * total energy  :   -42.1411010 Eh     change       -0.5308946E-02 Eh
 * total energy  :   -42.1424310 Eh     change       -0.1330001E-02 Eh
 * total energy  :   -42.1430591 Eh     change       -0.6281498E-03 Eh
 * total energy  :   -42.1436217 Eh     change       -0.5626091E-03 Eh
 * total energy  :   -42.1441002 Eh     change       -0.4784699E-03 Eh
 * total energy  :   -42.1445216 Eh     change       -0.4214431E-03 Eh
 * total energy  :   -42.1447165 Eh     change       -0.1948839E-03 Eh
   *** GEOMETRY OPTIMIZATION CONVERGED AFTER 10 ITERATIONS ***

 final structure:
================
25
 xtb: 6.6.1 (8d0f1dd)
C            4.40736630016038        0.24988576656847        0.08122616532997
N            3.04255864070840       -0.09412526733335        0.04473479192261
C            2.56295460047613       -1.25698970701587       -0.00788891304441
N            1.22654542278436       -1.53630802148394       -0.07346442011545
C            0.17825938476293       -0.64114881214538       -0.03932298708837
C            0.32630577818384        0.67705488386270        0.24892982468950
C           -0.79108657934755        1.59026546069736        0.32617247106168
O           -0.69535032955600        2.77685212865906        0.52449434393202
N           -2.04881384541119        0.98582966720694        0.18138815995597
C           -3.23562109482028        1.81443516499435        0.34829786552902
C           -2.27762256061022       -0.31929639396272       -0.08824617674452
O           -3.35701536736272       -0.82524218998134       -0.17920026856888
N           -1.08602406253910       -1.15264331679171       -0.31653886792162
C           -1.33687309861144       -2.35915892320067       -0.79911932455622
H            4.59083627010790        0.85353060345962        0.97340839687354
H            5.07773568651550       -0.61936443442026        0.08649103248170
H            4.63073971451235        0.87411713281360       -0.78673112627174
H            3.18227514860020       -2.16186596028252       -0.02273060985835
H           -2.92383005651811        2.85654920638839        0.33450981293257
H           -3.93886888339418        1.60962478068682       -0.45748781176665
H           -3.71850695682996        1.58580751238148        1.29891939329570
H            1.29549333409226        1.09425929894066        0.45852783516408
H           -0.56915359004318       -3.04205604343812       -1.10654556599629
H           -2.37438791229811       -2.62249699739043       -0.93039644985411
H            0.99251557053603       -2.51927699761001       -0.06825595348233

          :  Hamiltonian                  GFN2-xTB          :
         :: total energy             -42.144716512972 Eh    ::
         :: gradient norm              0.007633430881 Eh/a0 ::
         :: HOMO-LUMO gap              1.202515548228 eV    ::
         :: SCC energy               -42.686304755153 Eh    ::
         :: -> dispersion             -0.021126258114 Eh    ::
         :: repulsion energy           0.541593388236 Eh    ::

    * Orbital Energies and Occupations

         #    Occupation            Energy/Eh            Energy/eV
      -------------------------------------------------------------
         1        2.0000           -0.8980422             -24.4370
       ...           ...                  ...                  ...
        25        1.9998           -0.6652626             -18.1027
        26        1.9998           -0.6592083             -17.9380
        27        1.9996           -0.6511342             -17.7183
        28        1.9994           -0.6440954             -17.5267
        29        1.9991           -0.6380577             -17.3624
        30        1.9984           -0.6286375             -17.1061
        31        1.9940           -0.6074943             -16.5308
        32        1.9920           -0.6028138             -16.4034
        33        1.9893           -0.5982857             -16.2802
        34        1.9514           -0.5740043             -15.6195
        35        1.9283           -0.5676622             -15.4469
        36        1.8710           -0.5578904             -15.1810
        37        1.7216           -0.5443937             -14.8137 (HOMO)
        38        0.5501           -0.5002021             -13.6112 (LUMO)
        39        0.0056           -0.4226571             -11.5011
        40        0.0007           -0.3893220             -10.5940
        41        0.0002           -0.3718276             -10.1179
        42        0.0000           -0.2931742              -7.9777
        43                         -0.2192105              -5.9650
        44                         -0.1745613              -4.7501
        45                         -0.1450447              -3.9469
        46                         -0.0921021              -2.5062
        47                         -0.0703357              -1.9139
        48                         -0.0373079              -1.0152
       ...                                ...                  ...
        67                          0.5586495              15.2016
      -------------------------------------------------------------
                  HL-Gap            0.0441916 Eh            1.2025 eV

     #   Z          covCN         q      C6AA      α(0)
     1   6 C        3.702    -0.050    21.631     6.651
     2   7 N        1.827    -0.142    24.865     7.389
     3   6 C        2.771     0.119    25.374     8.250
     4   7 N        2.697    -0.103    23.255     7.162
     5   6 C        2.833     0.126    25.240     8.233
     6   6 C        2.907    -0.094    30.356     9.034
     7   6 C        2.767     0.279    22.284     7.731
     8   8 O        0.859    -0.309    19.950     5.988
     9   7 N        2.739    -0.061    22.412     7.031
    10   6 C        3.710    -0.067    21.919     6.691
    11   6 C        2.736     0.316    21.623     7.613
    12   8 O        0.859    -0.332    20.368     6.051
    13   7 N        2.742     0.017    20.956     6.799
    14   6 C        2.805    -0.027    28.656     8.770
    15   1 H        0.924     0.110     1.694     2.036
    16   1 H        0.924     0.080     1.984     2.203
    17   1 H        0.924     0.111     1.689     2.032
    18   1 H        0.924     0.075     2.031     2.228
    19   1 H        0.925     0.123     1.589     1.971
    20   1 H        0.925     0.107     1.721     2.052
    21   1 H        0.924     0.105     1.742     2.064
    22   1 H        0.926     0.141     1.455     1.886
    23   1 H        0.926     0.110     1.696     2.037
    24   1 H        0.926     0.151     1.382     1.838
    25   1 H        0.860     0.215     1.035     1.593

Wiberg/Mayer (AO) data.
largest (>0.10) Wiberg bond orders for each atom

     #   Z sym  total        # sym  WBO       # sym  WBO       # sym  WBO
 ---------------------------------------------------------------------------
     1   6 C    3.909 --     2 N    1.062    16 H    0.936    15 H    0.935
                            17 H    0.934
     2   7 N    2.989 --     3 C    1.741     1 C    1.062
     3   6 C    3.931 --     2 N    1.741     4 N    1.170    18 H    0.914
     4   7 N    3.464 --     3 C    1.170     5 C    1.138    25 H    0.915
     5   6 C    3.912 --     6 C    1.533     4 N    1.138    13 N    1.085
     6   6 C    3.806 --     5 C    1.533     7 C    1.089    22 H    0.931
     7   6 C    3.925 --     8 O    1.712     6 C    1.089     9 N    1.051
     8   8 O    1.981 --     7 C    1.712     9 N    0.110
     9   7 N    3.549 --    11 C    1.206     7 C    1.051    10 C    0.965
                            12 O    0.155     8 O    0.110
    10   6 C    3.890 --     9 N    0.965    19 H    0.962    20 H    0.961
                            21 H    0.954
    11   6 C    3.932 --    12 O    1.730     9 N    1.206    13 N    0.910
    12   8 O    2.061 --    11 C    1.730     9 N    0.155
    13   7 N    3.614 --    14 C    1.430     5 C    1.085    11 C    0.910
    14   6 C    3.461 --    13 N    1.430    23 H    0.958    24 H    0.948
    15   1 H    0.968 --     1 C    0.935
    16   1 H    0.943 --     1 C    0.936
    17   1 H    0.968 --     1 C    0.934
    18   1 H    0.953 --     3 C    0.914
    19   1 H    0.980 --    10 C    0.962
    20   1 H    0.978 --    10 C    0.961
    21   1 H    0.975 --    10 C    0.954
    22   1 H    0.977 --     6 C    0.931
    23   1 H    0.987 --    14 C    0.958
    24   1 H    0.976 --    14 C    0.948
    25   1 H    0.953 --     4 N    0.915
 ---------------------------------------------------------------------------

molecular dipole:
                 x           y           z       tot (Debye)
 q only:        1.373      -1.820      -0.282
   full:        1.678      -2.474      -0.327       7.643

           -------------------------------------------------
          | TOTAL ENERGY              -42.144716512972 Eh   |
          | GRADIENT NORM               0.007633430881 Eh/α |
          | HOMO-LUMO GAP               1.202515548228 eV   |
           -------------------------------------------------

 * finished run on 2024/06/05 at 19:58:12.722
