   * xtb version 6.6.1 (8d0f1dd) compiled by 'conda@1efc2f54142f' on 2023-08-01
          program call               : xtb struc.xyz --opt loose --input .xc1 --gfn2

   ID    Z sym.   atoms
    1    6 C      1, 3, 5-7, 10, 11, 14
    2    7 N      2, 4, 9, 13
    3    8 O      8, 12
    4    1 H      15-25
constraining bond 5 7 to    5.0000000 Å, actual value:    2.4816200 Å

          :  Hamiltonian                  GFN2-xTB          :
 * total energy  :   -30.9357813 Eh     change       -0.2401990E-09 Eh
 * total energy  :   -35.0165894 Eh     change       -0.4080808E+01 Eh
 * total energy  :   -38.0616845 Eh     change       -0.3045095E+01 Eh
 * total energy  :   -40.1968386 Eh     change       -0.2135154E+01 Eh
 * total energy  :   -41.3788760 Eh     change       -0.1182037E+01 Eh
 * total energy  :   -41.6424583 Eh     change       -0.2635824E+00 Eh
 * total energy  :   -41.6599612 Eh     change       -0.1750288E-01 Eh
 * total energy  :   -41.6827477 Eh     change       -0.2278649E-01 Eh
 * total energy  :   -41.7084317 Eh     change       -0.2568399E-01 Eh
 * total energy  :   -41.7327244 Eh     change       -0.2429270E-01 Eh
 * total energy  :   -42.0792517 Eh     change       -0.2105433E-03 Eh
 * total energy  :   -42.0793815 Eh     change       -0.1298563E-03 Eh
 * total energy  :   -42.0795403 Eh     change       -0.1587522E-03 Eh
 * total energy  :   -42.0796299 Eh     change       -0.8968452E-04 Eh
 * total energy  :   -42.0796936 Eh     change       -0.6369234E-04 Eh
 * total energy  :   -42.0797835 Eh     change       -0.8982857E-04 Eh
 * total energy  :   -42.0798641 Eh     change       -0.8063049E-04 Eh
 * total energy  :   -42.0799437 Eh     change       -0.7957069E-04 Eh
 * total energy  :   -42.0799802 Eh     change       -0.3655612E-04 Eh
   *** GEOMETRY OPTIMIZATION CONVERGED AFTER 74 ITERATIONS ***

 final structure:
================
25
 xtb: 6.6.1 (8d0f1dd)
C            2.55076932141252        1.22324829315483       -0.32204404889370
N            1.68206388990550        0.08357196345237       -0.05707610837757
C            2.26403410718644       -1.11954192997792       -0.17756821981804
N            1.73401941420891       -2.37878937226940       -0.13629305388145
C            0.46665589553030       -2.83054498290770       -0.15310129464567
C            0.40303862867928        0.37479170206492        0.32948519722336
C            0.12853312328709        2.02768229158209        0.90892015671858
O            0.99361004040103        2.34730966170210        1.67937520239438
N           -0.89197103355586        2.60429073985214        0.43396582535616
C           -1.97670504960003        2.28087612637637       -0.36905404763626
C           -0.63211267304807       -0.57624794992869        0.52273651418386
O           -1.71728400904342       -0.29060285064514        0.99593284064031
N           -0.54899895162038       -2.02165050687969        0.04691792673927
C           -1.87058411839662       -2.61673869756411       -0.02987744616867
H            2.85378938058411        1.68849327053298        0.61978013245431
H            3.43538972003663        0.91748226362989       -0.87543109223849
H            2.01269236072971        1.96873754130363       -0.90665449970862
H            3.32508071133416       -1.09794803217033       -0.37921541863413
H           -2.45334874810571        3.22116779404989       -0.66390813383369
H           -1.69550092468834        1.72919023671594       -1.27476132520382
H           -2.70879153520387        1.68899464886961        0.19541540961853
H           -2.33751678029026       -2.62986355047113        0.96030761721717
H           -1.77752401140791       -3.63451971801473       -0.40746656477851
H           -2.50966533161241       -2.02698957816528       -0.69265676193193
H            2.43075808737791       -3.11416082268652       -0.21655718889681

          :  Hamiltonian                  GFN2-xTB          :
         :: total energy             -42.079980240113 Eh    ::
         :: gradient norm              0.003812807969 Eh/a0 ::
         :: HOMO-LUMO gap              0.344948823642 eV    ::
         :: SCC energy               -42.581541789316 Eh    ::
         :: -> dispersion             -0.021966209621 Eh    ::
         :: repulsion energy           0.500892957950 Eh    ::

    * Orbital Energies and Occupations

         #    Occupation            Energy/Eh            Energy/eV
      -------------------------------------------------------------
         1        2.0000           -0.8756140             -23.8267
       ...           ...                  ...                  ...
        25        1.9975           -0.6653952             -18.1063
        26        1.9965           -0.6575195             -17.8920
        27        1.9953           -0.6504271             -17.6990
        28        1.9926           -0.6396360             -17.4054
        29        1.9907           -0.6342384             -17.2585
        30        1.9850           -0.6228881             -16.9496
        31        1.9839           -0.6211447             -16.9022
        32        1.9551           -0.5964294             -16.2297
        33        1.9467           -0.5922754             -16.1166
        34        1.8860           -0.5734433             -15.6042
        35        1.6851           -0.5466500             -14.8751
        36        1.6173           -0.5410378             -14.7224
        37        1.4293           -0.5286131             -14.3843 (HOMO)
        38        1.1898           -0.5159365             -14.0393 (LUMO)
        39        0.3447           -0.4695394             -12.7768
        40        0.0079           -0.3754874             -10.2175
        41        0.0031           -0.3529052              -9.6030
        42        0.0010           -0.3257439              -8.8639
        43        0.0001           -0.2670898              -7.2679
        44        0.0000           -0.1998623              -5.4385
        45        0.0000           -0.1793832              -4.8813
        46        0.0000           -0.1335691              -3.6346
        47                         -0.0872551              -2.3743
        48                         -0.0584030              -1.5892
       ...                                ...                  ...
        67                          0.6096096              16.5883
      -------------------------------------------------------------
                  HL-Gap            0.0126766 Eh            0.3449 eV

     #   Z          covCN         q      C6AA      α(0)
     1   6 C        3.723    -0.086    22.259     6.737
     2   7 N        2.729     0.076    19.920     6.629
     3   6 C        2.786     0.051    26.847     8.487
     4   7 N        2.689    -0.044    22.104     6.983
     5   6 C        1.857    -0.013    31.478     9.063
     6   6 C        2.788    -0.044    29.087     8.834
     7   6 C        2.641     0.296    21.978     7.669
     8   8 O        0.857    -0.295    19.692     5.950
     9   7 N        1.822    -0.116    24.281     7.301
    10   6 C        3.686    -0.043    21.539     6.644
    11   6 C        2.747     0.244    22.919     7.839
    12   8 O        0.859    -0.329    20.319     6.044
    13   7 N        2.728    -0.005    21.361     6.864
    14   6 C        3.719    -0.063    21.837     6.675
    15   1 H        0.924     0.137     1.484     1.905
    16   1 H        0.925     0.098     1.805     2.101
    17   1 H        0.925     0.106     1.734     2.059
    18   1 H        0.926     0.106     1.734     2.059
    19   1 H        0.924     0.132     1.522     1.929
    20   1 H        0.924     0.090     1.882     2.146
    21   1 H        0.924     0.135     1.497     1.913
    22   1 H        0.924     0.121     1.602     1.980
    23   1 H        0.925     0.108     1.717     2.049
    24   1 H        0.924     0.103     1.759     2.074
    25   1 H        0.860     0.237     0.933     1.514

Wiberg/Mayer (AO) data.
largest (>0.10) Wiberg bond orders for each atom

     #   Z sym  total        # sym  WBO       # sym  WBO       # sym  WBO
 ---------------------------------------------------------------------------
     1   6 C    3.899 --     2 N    0.975    16 H    0.968    17 H    0.961
                            15 H    0.937
     2   7 N    3.589 --     3 C    1.310     6 C    1.196     1 C    0.975
     3   6 C    3.614 --     2 N    1.310     4 N    1.208    18 H    0.945
     4   7 N    3.499 --     5 C    1.249     3 C    1.208    25 H    0.911
     5   6 C    2.860 --    13 N    1.466     4 N    1.249
     6   6 C    3.272 --    11 C    1.221     2 N    1.196     7 C    0.624
     7   6 C    3.903 --     8 O    1.670     9 N    1.534     6 C    0.624
     8   8 O    1.926 --     7 C    1.670     9 N    0.157
     9   7 N    2.814 --     7 C    1.534    10 C    1.094     8 O    0.157
    10   6 C    3.854 --     9 N    1.094    20 H    0.917    19 H    0.916
                            21 H    0.894
    11   6 C    3.806 --    12 O    1.660     6 C    1.221    13 N    0.841
    12   8 O    1.876 --    11 C    1.660
    13   7 N    3.451 --     5 C    1.466    14 C    0.989    11 C    0.841
    14   6 C    3.877 --    13 N    0.989    23 H    0.961    24 H    0.950
                            22 H    0.936
    15   1 H    0.966 --     1 C    0.937
    16   1 H    0.985 --     1 C    0.968
    17   1 H    0.980 --     1 C    0.961
    18   1 H    0.982 --     3 C    0.945
    19   1 H    0.931 --    10 C    0.916
    20   1 H    0.929 --    10 C    0.917
    21   1 H    0.918 --    10 C    0.894
    22   1 H    0.956 --    14 C    0.936
    23   1 H    0.976 --    14 C    0.961
    24   1 H    0.968 --    14 C    0.950
    25   1 H    0.938 --     4 N    0.911
 ---------------------------------------------------------------------------

molecular dipole:
                 x           y           z       tot (Debye)
 q only:        1.286      -1.563      -1.538
   full:        1.573      -1.753      -1.663       7.328

           -------------------------------------------------
          | TOTAL ENERGY              -42.079980240113 Eh   |
          | GRADIENT NORM               0.003812807969 Eh/α |
          | HOMO-LUMO GAP               0.344948823642 eV   |
           -------------------------------------------------

 * finished run on 2024/06/05 at 19:58:47.635
