   * xtb version 6.6.1 (8d0f1dd) compiled by 'conda@1efc2f54142f' on 2023-08-01
          program call               : xtb xtbopt.xyz --opt crude --input .xc2 --gfn2

   ID    Z sym.   atoms
    1    6 C      1, 3, 5-7, 10, 11, 14
    2    7 N      2, 4, 9, 13
    3    8 O      8, 12
    4    1 H      15-25
########################################################################
[WARNING] Please study the warnings concerning your input carefully
-1- readin_getIntValue: could not parse ''
########################################################################

          :  Hamiltonian                  GFN2-xTB          :
 * total energy  :   -42.0804128 Eh     change       -0.2369660E-10 Eh
 * total energy  :   -42.0871623 Eh     change       -0.6749442E-02 Eh
 * total energy  :   -42.0931202 Eh     change       -0.5957965E-02 Eh
 * total energy  :   -42.0939611 Eh     change       -0.8408478E-03 Eh
 * total energy  :   -42.0945369 Eh     change       -0.5757845E-03 Eh
 * total energy  :   -42.0947812 Eh     change       -0.2443672E-03 Eh
   *** GEOMETRY OPTIMIZATION CONVERGED AFTER 6 ITERATIONS ***

 final structure:
================
25
 xtb: 6.6.1 (8d0f1dd)
C            2.53491934374005        1.27021528370434       -0.35631892460421
N            1.70702562351747        0.09973253313139       -0.10104278115370
C            2.31838028138282       -1.08060723363027       -0.19464435552165
N            1.74146300913064       -2.31478617872075       -0.09080544523090
C            0.46639083502513       -2.69111804123157       -0.08128402332058
C            0.41070811783064        0.33947176832474        0.29401726409374
C            0.14205376623293        1.74816375410119        0.89763923999697
O            0.95795788665266        2.09485098330044        1.74394095379929
N           -0.86658119091478        2.44251595950886        0.47638943490655
C           -1.93790817337023        2.25417330655462       -0.37904484920654
C           -0.67086043916053       -0.55797301421447        0.49275117124856
O           -1.73970813320308       -0.21973013889154        0.97458129490096
N           -0.59553236609919       -1.95142727303142        0.05263215270719
C           -1.89452456204866       -2.59802979781046       -0.01128472893165
H            2.83499138042127        1.73149004675247        0.58903306365367
H            3.42210194711631        0.99092145671288       -0.91979027542552
H            1.97221455246783        2.00998828719163       -0.92564303099311
H            3.37586548869999       -1.07261184580777       -0.40880963581654
H           -2.33936410874312        3.24398673360603       -0.61720059064675
H           -1.67523095484338        1.74809958932733       -1.31922495276621
H           -2.72919394965434        1.67851695602979        0.12279391630188
H           -2.36370003741134       -2.58939975752173        0.97564186948470
H           -1.76428541903293       -3.62076887069002       -0.35406918422236
H           -2.54357668134661       -2.04766689282862       -0.69422051029040
H            2.39682529771112       -3.08976907226103       -0.13486545506480

          :  Hamiltonian                  GFN2-xTB          :
         :: total energy             -42.094781220190 Eh    ::
         :: gradient norm              0.005665244120 Eh/a0 ::
         :: HOMO-LUMO gap              0.271148547170 eV    ::
         :: SCC energy               -42.600099473941 Eh    ::
         :: -> dispersion             -0.022420351531 Eh    ::
         :: repulsion energy           0.505082777927 Eh    ::

    * Orbital Energies and Occupations

         #    Occupation            Energy/Eh            Energy/eV
      -------------------------------------------------------------
         1        2.0000           -0.8808503             -23.9692
       ...           ...                  ...                  ...
        25        1.9976           -0.6656455             -18.1131
        26        1.9968           -0.6588606             -17.9285
        27        1.9954           -0.6500427             -17.6886
        28        1.9925           -0.6384012             -17.3718
        29        1.9908           -0.6335062             -17.2386
        30        1.9868           -0.6249971             -17.0070
        31        1.9856           -0.6228626             -16.9490
        32        1.9581           -0.5972066             -16.2508
        33        1.9502           -0.5929642             -16.1354
        34        1.8723           -0.5696496             -15.5010
        35        1.6446           -0.5422618             -14.7557
        36        1.5803           -0.5373637             -14.6224
        37        1.4186           -0.5270580             -14.3420 (HOMO)
        38        1.2319           -0.5170935             -14.0708 (LUMO)
        39        0.3907           -0.4722538             -12.8507
        40        0.0101           -0.3803829             -10.3507
        41        0.0037           -0.3564946              -9.7007
        42        0.0009           -0.3232248              -8.7954
        43        0.0000           -0.1983684              -5.3979
        44        0.0000           -0.1840151              -5.0073
        45        0.0000           -0.1313177              -3.5733
        46        0.0000           -0.1148028              -3.1239
        47                         -0.0669235              -1.8211
        48                         -0.0452443              -1.2312
       ...                                ...                  ...
        67                          0.4832085              13.1488
      -------------------------------------------------------------
                  HL-Gap            0.0099645 Eh            0.2711 eV

     #   Z          covCN         q      C6AA      α(0)
     1   6 C        3.721    -0.086    22.258     6.738
     2   7 N        2.731     0.074    19.962     6.636
     3   6 C        2.790     0.049    26.875     8.492
     4   7 N        2.685    -0.040    22.026     6.970
     5   6 C        1.859    -0.007    31.319     9.040
     6   6 C        2.894    -0.028    28.694     8.783
     7   6 C        2.749     0.288    22.116     7.700
     8   8 O        0.860    -0.320    20.154     6.019
     9   7 N        1.825    -0.120    24.385     7.317
    10   6 C        3.684    -0.042    21.532     6.644
    11   6 C        2.764     0.246    22.882     7.834
    12   8 O        0.860    -0.343    20.567     6.080
    13   7 N        2.731     0.009    21.099     6.822
    14   6 C        3.718    -0.067    21.912     6.687
    15   1 H        0.924     0.138     1.478     1.901
    16   1 H        0.925     0.099     1.794     2.094
    17   1 H        0.925     0.105     1.743     2.065
    18   1 H        0.926     0.109     1.702     2.040
    19   1 H        0.924     0.133     1.511     1.922
    20   1 H        0.923     0.089     1.891     2.151
    21   1 H        0.923     0.139     1.471     1.896
    22   1 H        0.924     0.122     1.597     1.976
    23   1 H        0.925     0.108     1.717     2.049
    24   1 H        0.924     0.105     1.741     2.063
    25   1 H        0.860     0.241     0.919     1.502

Wiberg/Mayer (AO) data.
largest (>0.10) Wiberg bond orders for each atom

     #   Z sym  total        # sym  WBO       # sym  WBO       # sym  WBO
 ---------------------------------------------------------------------------
     1   6 C    3.899 --     2 N    0.976    16 H    0.968    17 H    0.962
                            15 H    0.936
     2   7 N    3.575 --     3 C    1.330     6 C    1.156     1 C    0.976
     3   6 C    3.613 --     2 N    1.330     4 N    1.188    18 H    0.945
     4   7 N    3.514 --     5 C    1.278     3 C    1.188    25 H    0.907
     5   6 C    2.867 --    13 N    1.446     4 N    1.278
     6   6 C    3.419 --    11 C    1.200     2 N    1.156     7 C    0.844
     7   6 C    3.903 --     8 O    1.567     9 N    1.417     6 C    0.844
     8   8 O    1.784 --     7 C    1.567     9 N    0.124
     9   7 N    2.685 --     7 C    1.417    10 C    1.111     8 O    0.124
    10   6 C    3.852 --     9 N    1.111    20 H    0.911    19 H    0.910
                            21 H    0.887
    11   6 C    3.819 --    12 O    1.629     6 C    1.200    13 N    0.906
    12   8 O    1.856 --    11 C    1.629
    13   7 N    3.485 --     5 C    1.446    14 C    0.977    11 C    0.906
    14   6 C    3.877 --    13 N    0.977    23 H    0.965    24 H    0.954
                            22 H    0.940
    15   1 H    0.965 --     1 C    0.936
    16   1 H    0.984 --     1 C    0.968
    17   1 H    0.980 --     1 C    0.962
    18   1 H    0.981 --     3 C    0.945
    19   1 H    0.924 --    10 C    0.910
    20   1 H    0.920 --    10 C    0.911
    21   1 H    0.913 --    10 C    0.887
    22   1 H    0.960 --    14 C    0.940
    23   1 H    0.979 --    14 C    0.965
    24   1 H    0.971 --    14 C    0.954
    25   1 H    0.933 --     4 N    0.907
 ---------------------------------------------------------------------------

molecular dipole:
                 x           y           z       tot (Debye)
 q only:        1.340      -1.757      -1.705
   full:        1.600      -1.914      -1.867       7.919

           -------------------------------------------------
          | TOTAL ENERGY              -42.094781220190 Eh   |
          | GRADIENT NORM               0.005665244120 Eh/α |
          | HOMO-LUMO GAP               0.271148547170 eV   |
           -------------------------------------------------

 * finished run on 2024/06/05 at 19:58:47.937
