   * xtb version 6.6.1 (8d0f1dd) compiled by 'conda@1efc2f54142f' on 2023-08-01
          program call               : xtb struc.xyz --opt loose --input .xc1 --gfn2

   ID    Z sym.   atoms
    1    6 C      1, 3, 5-7, 10, 11, 14
    2    7 N      2, 4, 9, 13
    3    8 O      8, 12
    4    1 H      15-25
constraining bond 6 19 to    4.7133300 Å, actual value:    3.8841935 Å

          :  Hamiltonian                  GFN2-xTB          :
 * total energy  :   -43.4875454 Eh     change       -0.2401990E-09 Eh
 * total energy  :   -46.4539791 Eh     change       -0.2966434E+01 Eh
 * total energy  :   -50.8292294 Eh     change       -0.4375250E+01 Eh
 * total energy  :   -56.5020889 Eh     change       -0.5672860E+01 Eh
 * total energy  :   -62.1162601 Eh     change       -0.5614171E+01 Eh
 * total energy  :   -69.7049401 Eh     change       -0.7588680E+01 Eh
 * total energy  :   -51.2184478 Eh     change        0.1848649E+02 Eh
 * total energy  :   -71.6364975 Eh     change       -0.2041805E+02 Eh
 * total energy  :   -71.9901901 Eh     change       -0.3536926E+00 Eh
 * total energy  :   -72.8309662 Eh     change       -0.8407761E+00 Eh
 * total energy  :   -73.3736897 Eh     change       -0.4378207E-04 Eh
 * total energy  :   -73.3737683 Eh     change       -0.7853507E-04 Eh
 * total energy  :   -73.3738074 Eh     change       -0.3912298E-04 Eh
 * total energy  :   -73.3738342 Eh     change       -0.2682131E-04 Eh
 * total energy  :   -73.3738564 Eh     change       -0.2221838E-04 Eh
 * total energy  :   -73.3738725 Eh     change       -0.1608130E-04 Eh
 * total energy  :   -73.3738689 Eh     change        0.3622108E-05 Eh
 * total energy  :   -73.3738905 Eh     change       -0.2158561E-04 Eh
 * total energy  :   -73.3738976 Eh     change       -0.7119983E-05 Eh
   *** GEOMETRY OPTIMIZATION CONVERGED AFTER 84 ITERATIONS ***

 final structure:
================
25
 xtb: 6.6.1 (8d0f1dd)
C            3.96500449507349        0.80204706782012        0.31406301518037
N            2.68248327139135        0.21444131018733        0.22920887492170
C            2.46883730970216       -1.02604047776468        0.10198948272303
N            1.19946648289544       -1.52793942387274        0.01862129322651
C            0.07245055646392       -0.75883029995139        0.06143198916897
C           -0.00091513739518        0.63775612409613        0.24929165692839
C           -1.86169075129059        2.91411401105366       -0.89579318907028
O           -1.48960218411353        3.31438979661394       -1.91955060567832
N           -1.41793139531594        0.84762921032187        0.20562441202831
C           -2.08262501170238        2.13686233372804        0.28573318604218
C           -2.12722406151941       -0.31724579258861       -0.00653745691326
O           -3.32387137962945       -0.42716015733107       -0.09428541625195
N           -1.17078248315626       -1.31368770133134       -0.08183589559473
C           -1.50457635948981       -2.69979332164642       -0.28354028488052
H            4.04309782598199        1.32921804327381        1.26718683507720
H            4.78393043762049        0.07810668819445        0.23147855717926
H            4.05672779057570        1.54568808031207       -0.48019256108636
H            3.25243947396219       -1.78763150827962        0.04544934011924
H            0.26356617001961        0.90897909915451        0.30761004111403
H           -3.15984521569226        1.92514186743682        0.40113957231662
H           -1.74004306308516        2.69040871151459        1.17281074657458
H           -1.18071805419692       -3.30643962938409        0.56414112145920
H           -1.06134402318083       -3.07805804259484       -1.20637942810962
H           -2.59021334575074       -2.75800892091500       -0.36358725868998
H            1.08381016592936       -2.52570852644824       -0.09290640988735

          :  Hamiltonian                  GFN2-xTB          :
         :: total energy             -73.373897607255 Eh    ::
         :: gradient norm              0.003437864353 Eh/a0 ::
         :: HOMO-LUMO gap              1.902937707470 eV    ::
         :: SCC energy               -42.721995409547 Eh    ::
         :: -> dispersion             -0.020468683501 Eh    ::
         :: repulsion energy           2.825353541320 Eh    ::

    * Orbital Energies and Occupations

         #    Occupation            Energy/Eh            Energy/eV
      -------------------------------------------------------------
         1        2.0000           -0.9230239             -25.1168
       ...           ...                  ...                  ...
        25        1.9990           -0.6596839             -17.9509
        26        1.9990           -0.6580250             -17.9058
        27        1.9985           -0.6499698             -17.6866
        28        1.9982           -0.6448582             -17.5475
        29        1.9981           -0.6438217             -17.5193
        30        1.9952           -0.6215393             -16.9129
        31        1.9945           -0.6183591             -16.8264
        32        1.9936           -0.6146000             -16.7241
        33        1.9836           -0.5923266             -16.1180
        34        1.9638           -0.5731904             -15.5973
        35        1.9268           -0.5560336             -15.1304
        36        1.7924           -0.5295740             -14.4104
        37        1.6663           -0.5165647             -14.0564 (HOMO)
        38        0.4163           -0.4466330             -12.1535 (LUMO)
        39        0.2175           -0.4284080             -11.6576
        40        0.0487           -0.3907018             -10.6315
        41        0.0070           -0.3442715              -9.3681
        42        0.0035           -0.3274421              -8.9102
        43        0.0000           -0.1954233              -5.3177
        44        0.0000           -0.1650937              -4.4924
        45        0.0000           -0.1061654              -2.8889
        46        0.0000           -0.0810517              -2.2055
        47                         -0.0641095              -1.7445
        48                         -0.0560751              -1.5259
       ...                                ...                  ...
        67                         14.6308748             398.1264
      -------------------------------------------------------------
                  HL-Gap            0.0699317 Eh            1.9029 eV

     #   Z          covCN         q      C6AA      α(0)
     1   6 C        3.705    -0.045    21.524     6.632
     2   7 N        1.831    -0.173    25.556     7.491
     3   6 C        2.782     0.115    25.444     8.262
     4   7 N        2.696    -0.097    23.134     7.143
     5   6 C        3.012     0.108    25.606     8.301
     6   6 C        2.879    -0.100    30.516     9.056
     7   6 C        1.843     0.230    25.772     8.201
     8   8 O        0.856    -0.084    16.277     5.409
     9   7 N        2.865    -0.078    22.748     7.084
    10   6 C        3.740    -0.011    20.858     6.516
    11   6 C        2.815     0.304    21.853     7.659
    12   8 O        0.857    -0.382    21.323     6.191
    13   7 N        2.801    -0.058    22.366     7.024
    14   6 C        3.689    -0.067    21.980     6.710
    15   1 H        0.924     0.098     1.801     2.099
    16   1 H        0.924     0.069     2.099     2.266
    17   1 H        0.924     0.099     1.799     2.097
    18   1 H        0.924     0.065     2.140     2.288
    19   1 H        0.958     0.182     1.193     1.708
    20   1 H        0.923     0.171     1.258     1.754
    21   1 H        0.923     0.148     1.403     1.853
    22   1 H        0.924     0.086     1.922     2.168
    23   1 H        0.924     0.085     1.926     2.170
    24   1 H        0.925     0.120     1.611     1.985
    25   1 H        0.860     0.215     1.033     1.592

Wiberg/Mayer (AO) data.
largest (>0.10) Wiberg bond orders for each atom

     #   Z sym  total        # sym  WBO       # sym  WBO       # sym  WBO
 ---------------------------------------------------------------------------
     1   6 C    3.916 --     2 N    1.056    16 H    0.945    17 H    0.940
                            15 H    0.939
     2   7 N    2.932 --     3 C    1.713     1 C    1.056
     3   6 C    3.897 --     2 N    1.713     4 N    1.166    18 H    0.921
     4   7 N    3.454 --     3 C    1.166     5 C    1.158    25 H    0.921
     5   6 C    3.872 --     6 C    1.415    13 N    1.168     4 N    1.158
     6   6 C    3.683 --     5 C    1.415     9 N    1.099    19 H    0.951
     7   6 C    3.288 --     8 O    2.121    10 C    1.099
     8   8 O    2.238 --     7 C    2.121
     9   7 N    3.427 --    11 C    1.107     6 C    1.099    10 C    0.962
                            12 O    0.125
    10   6 C    3.942 --     7 C    1.099     9 N    0.962    21 H    0.905
                            20 H    0.894
    11   6 C    3.932 --    12 O    1.633     9 N    1.107    13 N    1.097
    12   8 O    1.931 --    11 C    1.633     9 N    0.125    13 N    0.120
    13   7 N    3.518 --     5 C    1.168    11 C    1.097    14 C    0.988
                            12 O    0.120
    14   6 C    3.923 --    13 N    0.988    23 H    0.964    22 H    0.964
                            24 H    0.964
    15   1 H    0.968 --     1 C    0.939
    16   1 H    0.955 --     1 C    0.945
    17   1 H    0.968 --     1 C    0.940
    18   1 H    0.963 --     3 C    0.921
    19   1 H    0.966 --     6 C    0.951
    20   1 H    0.951 --    10 C    0.894
    21   1 H    0.956 --    10 C    0.905
    22   1 H    0.984 --    14 C    0.964
    23   1 H    0.984 --    14 C    0.964
    24   1 H    0.982 --    14 C    0.964
    25   1 H    0.953 --     4 N    0.921
 ---------------------------------------------------------------------------

molecular dipole:
                 x           y           z       tot (Debye)
 q only:        0.896       0.159       0.391
   full:        1.187      -0.273       0.432       3.285

           -------------------------------------------------
          | TOTAL ENERGY              -73.373897607255 Eh   |
          | GRADIENT NORM               0.003437864353 Eh/α |
          | HOMO-LUMO GAP               1.902937707470 eV   |
           -------------------------------------------------

 * finished run on 2024/06/05 at 19:59:00.441
