   * xtb version 6.6.1 (8d0f1dd) compiled by 'conda@1efc2f54142f' on 2023-08-01
          program call               : xtb xtbopt.xyz --opt crude --input .xc2 --gfn2

   ID    Z sym.   atoms
    1    6 C      1, 3, 5-7, 10, 11, 14
    2    7 N      2, 4, 9, 13
    3    8 O      8, 12
    4    1 H      15-25
########################################################################
[WARNING] Please study the warnings concerning your input carefully
-1- readin_getIntValue: could not parse ''
########################################################################

          :  Hamiltonian                  GFN2-xTB          :
 * total energy  :   -39.8965590 Eh     change       -0.6394885E-13 Eh
 * total energy  :   -42.1172542 Eh     change       -0.2220695E+01 Eh
 * total energy  :   -42.1620361 Eh     change       -0.4478184E-01 Eh
 * total energy  :   -42.1673238 Eh     change       -0.5287785E-02 Eh
 * total energy  :   -42.1683964 Eh     change       -0.1072594E-02 Eh
 * total energy  :   -42.1688277 Eh     change       -0.4312403E-03 Eh
 * total energy  :   -42.1694100 Eh     change       -0.5823133E-03 Eh
 * total energy  :   -42.1698844 Eh     change       -0.4744439E-03 Eh
 * total energy  :   -42.1702282 Eh     change       -0.3437672E-03 Eh
 * total energy  :   -42.1703317 Eh     change       -0.1035203E-03 Eh
   *** GEOMETRY OPTIMIZATION CONVERGED AFTER 10 ITERATIONS ***

 final structure:
================
25
 xtb: 6.6.1 (8d0f1dd)
C            4.02386125047931        0.75167736028174        0.32302558244038
N            2.71743485964779        0.21439397578440        0.23970431449823
C            2.46652343542413       -1.01759597190946        0.09282889933208
N            1.19319739483550       -1.50211816652078        0.00831341750718
C            0.05415304265944       -0.74841683110989        0.06110810412255
C           -0.11206025500949        0.60161375613181        0.24413584429563
C           -1.93846672522614        2.89739421834740       -0.90335378090392
O           -1.54146480064963        3.22639299294286       -1.94562885963408
N           -1.46611906113917        0.84892913826904        0.22072344405132
C           -2.15616152803882        2.12483064244098        0.28517047595859
C           -2.15506834126912       -0.33482554464731        0.00114923986416
O           -3.35238518877908       -0.45400694856501       -0.08463915552024
N           -1.18892092231801       -1.31882744376403       -0.08269182024404
C           -1.50700508287223       -2.70644023484565       -0.29359323773928
H            4.12161561959597        1.28340026813399        1.27182848862292
H            4.81261082892705       -0.00613403310356        0.24942838037633
H            4.15004058898663        1.48269285633526       -0.47849144153668
H            3.23630208778785       -1.79269716425096        0.01977262967976
H            0.62676829486654        1.35779179419429        0.40197159447020
H           -3.22948036515856        1.88413679524327        0.38185629487157
H           -1.84626208042154        2.69189645999802        1.17416344348038
H           -1.17125830345411       -3.31626401413541        0.54727667416047
H           -1.06390183932832       -3.07252641140797       -1.22158259315807
H           -2.59203736220040       -2.77805945306695       -0.36887529021514
H            1.07851596675163       -2.49899949917681       -0.11242903088301

          :  Hamiltonian                  GFN2-xTB          :
         :: total energy             -42.170331719796 Eh    ::
         :: gradient norm              0.004259856149 Eh/a0 ::
         :: HOMO-LUMO gap              1.768312826001 eV    ::
         :: SCC energy               -42.708589747486 Eh    ::
         :: -> dispersion             -0.020363622665 Eh    ::
         :: repulsion energy           0.538175174103 Eh    ::

    * Orbital Energies and Occupations

         #    Occupation            Energy/Eh            Energy/eV
      -------------------------------------------------------------
         1        2.0000           -0.9193261             -25.0161
       ...           ...                  ...                  ...
        25        1.9991           -0.6589692             -17.9315
        26        1.9990           -0.6568665             -17.8742
        27        1.9986           -0.6500391             -17.6885
        28        1.9983           -0.6448728             -17.5479
        29        1.9983           -0.6443564             -17.5338
        30        1.9954           -0.6211320             -16.9019
        31        1.9952           -0.6202190             -16.8770
        32        1.9937           -0.6133544             -16.6902
        33        1.9843           -0.5917852             -16.1033
        34        1.9661           -0.5732122             -15.5979
        35        1.9280           -0.5548665             -15.0987
        36        1.7986           -0.5287982             -14.3893
        37        1.6355           -0.5124521             -13.9445 (HOMO)
        38        0.4507           -0.4474678             -12.1762 (LUMO)
        39        0.2123           -0.4261886             -11.5972
        40        0.0398           -0.3842117             -10.4549
        41        0.0062           -0.3396491              -9.2423
        42        0.0029           -0.3217749              -8.7559
        43        0.0000           -0.1827677              -4.9734
        44        0.0000           -0.1672513              -4.5511
        45        0.0000           -0.1105190              -3.0074
        46                         -0.0696036              -1.8940
        47                         -0.0589488              -1.6041
        48                         -0.0485123              -1.3201
       ...                                ...                  ...
        67                          0.7300722              19.8663
      -------------------------------------------------------------
                  HL-Gap            0.0649843 Eh            1.7683 eV

     #   Z          covCN         q      C6AA      α(0)
     1   6 C        3.706    -0.043    21.492     6.627
     2   7 N        1.829    -0.181    25.721     7.515
     3   6 C        2.781     0.116    25.440     8.261
     4   7 N        2.694    -0.096    23.120     7.141
     5   6 C        2.974     0.111    25.547     8.291
     6   6 C        2.960    -0.035    28.858     8.811
     7   6 C        1.843     0.224    25.910     8.223
     8   8 O        0.856    -0.093    16.408     5.431
     9   7 N        2.842    -0.047    22.137     6.988
    10   6 C        3.740    -0.014    20.903     6.523
    11   6 C        2.860     0.302    21.883     7.668
    12   8 O        0.857    -0.383    21.340     6.194
    13   7 N        2.828    -0.055    22.302     7.014
    14   6 C        3.689    -0.067    21.975     6.709
    15   1 H        0.924     0.096     1.821     2.110
    16   1 H        0.924     0.067     2.119     2.277
    17   1 H        0.924     0.097     1.817     2.108
    18   1 H        0.924     0.064     2.150     2.293
    19   1 H        0.927     0.112     1.679     2.027
    20   1 H        0.923     0.172     1.251     1.749
    21   1 H        0.923     0.146     1.418     1.862
    22   1 H        0.924     0.085     1.930     2.173
    23   1 H        0.924     0.085     1.933     2.174
    24   1 H        0.925     0.119     1.618     1.989
    25   1 H        0.860     0.216     1.026     1.587

Wiberg/Mayer (AO) data.
largest (>0.10) Wiberg bond orders for each atom

     #   Z sym  total        # sym  WBO       # sym  WBO       # sym  WBO
 ---------------------------------------------------------------------------
     1   6 C    3.918 --     2 N    1.054    16 H    0.947    15 H    0.941
                            17 H    0.941
     2   7 N    2.926 --     3 C    1.708     1 C    1.054
     3   6 C    3.899 --     2 N    1.708     4 N    1.172    18 H    0.921
     4   7 N    3.444 --     3 C    1.172     5 C    1.147    25 H    0.921
     5   6 C    3.867 --     6 C    1.442     4 N    1.147    13 N    1.147
     6   6 C    3.745 --     5 C    1.442     9 N    1.157    19 H    0.954
     7   6 C    3.266 --     8 O    2.107    10 C    1.092
     8   8 O    2.220 --     7 C    2.107
     9   7 N    3.457 --     6 C    1.157    11 C    1.086    10 C    0.961
                            12 O    0.119
    10   6 C    3.937 --     7 C    1.092     9 N    0.961    21 H    0.909
                            20 H    0.895
    11   6 C    3.926 --    12 O    1.630    13 N    1.111     9 N    1.086
    12   8 O    1.924 --    11 C    1.630    13 N    0.124     9 N    0.119
    13   7 N    3.511 --     5 C    1.147    11 C    1.111    14 C    0.990
                            12 O    0.124
    14   6 C    3.924 --    13 N    0.990    23 H    0.964    22 H    0.964
                            24 H    0.964
    15   1 H    0.969 --     1 C    0.941
    16   1 H    0.957 --     1 C    0.947
    17   1 H    0.969 --     1 C    0.941
    18   1 H    0.963 --     3 C    0.921
    19   1 H    0.985 --     6 C    0.954
    20   1 H    0.951 --    10 C    0.895
    21   1 H    0.958 --    10 C    0.909
    22   1 H    0.984 --    14 C    0.964
    23   1 H    0.983 --    14 C    0.964
    24   1 H    0.982 --    14 C    0.964
    25   1 H    0.952 --     4 N    0.921
 ---------------------------------------------------------------------------

molecular dipole:
                 x           y           z       tot (Debye)
 q only:        0.808       0.123       0.421
   full:        1.177      -0.233       0.475       3.281

           -------------------------------------------------
          | TOTAL ENERGY              -42.170331719796 Eh   |
          | GRADIENT NORM               0.004259856149 Eh/α |
          | HOMO-LUMO GAP               1.768312826001 eV   |
           -------------------------------------------------

 * finished run on 2024/06/05 at 19:59:00.832
