   * xtb version 6.6.1 (8d0f1dd) compiled by 'conda@1efc2f54142f' on 2023-08-01
          program call               : xtb xtbopt.xyz --opt crude --input .xc2 --gfn2

   ID    Z sym.   atoms
    1    7 N      1, 17
    2    6 C      2-6, 8, 9, 11-16, 18-23, 25, 26, 28-33
    3    8 O      7, 10, 24, 27
    4    1 H      34-72

          :  Hamiltonian                  GFN2-xTB          :
 * total energy  :   -99.3313253 Eh     change       -0.6146195E-10 Eh
   *** GEOMETRY OPTIMIZATION CONVERGED AFTER 1 ITERATIONS ***

 final structure:
================
72
 xtb: 6.6.1 (8d0f1dd)
N           -1.77560249335667        3.19517874165988        2.14666317357642
C           -1.89042892055403        2.49095803175426        1.12247619367163
C           -3.19388312638233        2.32252488855039        0.37300192251208
C           -3.51102354939636        0.82213377180100        0.31480612685825
C           -4.33515571711742        0.33270989689438       -0.69573244493997
C           -4.67396905230766       -1.01006421795184       -0.75476448335462
O           -5.46106135054479       -1.57562702426883       -1.68893432312353
C           -6.03978546724317       -0.76619376943959       -2.68643381533773
C           -4.17098697348500       -1.90220171846330        0.23323659330859
O           -4.54675450205406       -3.18810676399596        0.09633404852746
C           -4.14973606423132       -4.12843592204121        1.06694648542295
C           -3.35423002941123       -1.39914963983438        1.23592438556880
C           -3.02707823881894       -0.05064229519637        1.27601102752102
C           -2.92913563294233        2.81535038126988       -0.99308766018563
C           -1.37463568800723       -0.11610756353937       -2.27921395981333
C           -0.23116834434353        0.20527477813245       -1.66172020353559
N            0.41362687015233       -0.53614011382248       -0.71809658868808
C            1.75896435828463       -0.19205222973219       -0.34427623660623
C            2.81036585444047       -0.74706888199289       -1.33189668992911
C            4.19635148869555       -0.38851163762451       -0.88598293416112
C            4.72589385054114        0.86520585534819       -1.16354625868612
C            5.99915650555413        1.21008520462110       -0.74183676749358
C            6.77818934416350        0.30553792593770       -0.03098068502752
O            8.02593778393064        0.52504416580312        0.41506516563700
C            8.65857132903752        1.75034714496142        0.12535271208449
C            6.24297255528312       -0.98165212206446        0.26383355900249
O            7.06502420952494       -1.79795947275221        0.94752091212227
C            6.64788780774516       -3.10871167187003        1.24926643428458
C            4.96166828236240       -1.29918384575936       -0.16274072462361
C           -0.07120241075136       -1.85453587060409       -0.40247811508899
C           -4.41171517918006        3.06164687898889        0.99826341725125
C           -4.76236397773318        2.53637756719627        2.38551882483136
C           -4.17965432693382        4.56901026935176        1.05247999105464
H           -4.71487610833418        1.01636512229247       -1.43629196454623
H           -6.70137954540227       -0.01030632233403       -2.25362510482764
H           -6.62341263478696       -1.44212338441248       -3.30793214077706
H           -5.27628261791059       -0.27799985254955       -3.29924282673991
H           -4.51784529618083       -3.85822846895693        2.06086377662237
H           -4.59822406500242       -5.07114131645302        0.76041506490792
H           -3.06110448651525       -4.23839563897506        1.09784939847655
H           -2.97705215385859       -2.05075548376253        2.00781542478021
H           -2.40858712839360        0.31433401276533        2.08082221366284
H           -3.70090087589334        3.28348967870430       -1.57355265839765
H           -1.95306426883184        2.71982093111638       -1.42757577008542
H           -1.89983066710924       -1.03674726476936       -2.11008877730796
H           -1.81113525382928        0.55763514263065       -2.99237363599591
H           -1.06338277631562        1.94745417935405        0.64112097555227
H            0.25515218025969        1.14570245455633       -1.88556578232280
H            1.96110123469924       -0.58675513481835        0.65502894121802
H            1.85241699227318        0.89655360547981       -0.30449732415730
H            2.61370207350534       -0.32524878520127       -2.31934952082340
H            2.70264838498388       -1.83058391454301       -1.39280267839140
H            4.14738755648380        1.58135696555561       -1.72689063665626
H            6.38362290268279        2.18907616580911       -0.97717989674311
H            8.13561632380889        2.59105121724823        0.59072089111940
H            8.73168735869464        1.91725851252740       -0.95308899389316
H            9.65833678215147        1.66977420683323        0.54693592309587
H            7.48456305928593       -3.56880960453510        1.77154294681132
H            5.76957859946516       -3.10992132880731        1.90222547064981
H            6.43037546281957       -3.67876775306230        0.34083352183500
H            4.55006549158500       -2.27299655335302        0.05169450638908
H           -0.02891501557290       -2.51884640693251       -1.27093404144389
H           -1.10826884015439       -1.79004574930890       -0.06665228209700
H            0.52985195335155       -2.28136496722776        0.39656092140414
H           -5.25879063850600        2.86260036882606        0.33058746850450
H           -3.93146503337873        2.69755883341543        3.06593738391618
H           -5.00142156441521        1.47586447432205        2.35910501451399
H           -5.62743680439316        3.07218874509165        2.76742454545903
H           -3.40232796661934        4.79956362704682        1.77483602302167
H           -3.87743146141057        4.95707432080690        0.08248347721352
H           -5.09509672457795        5.07024366228840        1.35561102122529
H           -0.85639802625076        3.28317048983819        2.56751488534576

          :  Hamiltonian                  GFN2-xTB          :
         :: total energy             -99.331325335924 Eh    ::
         :: gradient norm              0.002339469255 Eh/a0 ::
         :: HOMO-LUMO gap              0.833199590119 eV    ::
         :: SCC energy              -100.736208494491 Eh    ::
         :: -> dispersion             -0.074079904029 Eh    ::
         :: repulsion energy           1.403411365984 Eh    ::

    * Orbital Energies and Occupations

         #    Occupation            Energy/Eh            Energy/eV
      -------------------------------------------------------------
         1        2.0000           -0.8168338             -22.2272
       ...           ...                  ...                  ...
        78        1.9970           -0.5320865             -14.4788
        79        1.9969           -0.5314374             -14.4611
        80        1.9960           -0.5273544             -14.3500
        81        1.9950           -0.5237658             -14.2524
        82        1.9932           -0.5188776             -14.1194
        83        1.9919           -0.5159862             -14.0407
        84        1.9915           -0.5152833             -14.0216
        85        1.9718           -0.4961566             -13.5011
        86        1.9668           -0.4935329             -13.4297
        87        1.8921           -0.4742607             -12.9053
        88        1.8176           -0.4653051             -12.6616
        89        1.8063           -0.4642557             -12.6330
        90        1.6953           -0.4560793             -12.4105 (HOMO)
        91        0.8917           -0.4254598             -11.5773 (LUMO)
        92        0.0069           -0.3392684              -9.2320
        93        0.0023           -0.3219802              -8.7615
        94        0.0019           -0.3188391              -8.6761
        95        0.0017           -0.3171892              -8.6312
        96        0.0015           -0.3154453              -8.5837
        97        0.0003           -0.2914602              -7.9310
        98        0.0000           -0.1962687              -5.3407
        99        0.0000           -0.1921041              -5.2274
       100                         -0.1012678              -2.7556
       101                         -0.0697077              -1.8968
       ...                                ...                  ...
       171                          0.5689513              15.4820
      -------------------------------------------------------------
                  HL-Gap            0.0306195 Eh            0.8332 eV

     #   Z          covCN         q      C6AA      α(0)
     1   7 N        1.774    -0.263    27.641     7.785
     2   6 C        2.839     0.107    25.624     8.296
     3   6 C        3.912     0.024    20.118     6.375
     4   6 C        2.980     0.013    27.725     8.637
     5   6 C        2.918    -0.073    29.823     8.955
     6   6 C        2.863     0.134    25.061     8.206
     7   8 O        1.706    -0.221    17.668     5.675
     8   6 C        3.645     0.025    20.497     6.507
     9   6 C        2.863     0.131    25.137     8.218
    10   8 O        1.706    -0.222    17.688     5.678
    11   6 C        3.645     0.025    20.492     6.506
    12   6 C        2.914    -0.071    29.777     8.948
    13   6 C        2.919    -0.045    29.123     8.850
    14   6 C        2.865    -0.085    30.129     8.997
    15   6 C        2.838    -0.120    31.051     9.132
    16   6 C        2.841     0.021    27.539     8.600
    17   7 N        2.732    -0.048    22.170     6.993
    18   6 C        3.752    -0.005    20.731     6.493
    19   6 C        3.807    -0.071    21.849     6.654
    20   6 C        2.967     0.008    27.840     8.655
    21   6 C        2.922    -0.044    29.103     8.847
    22   6 C        2.913    -0.065    29.626     8.925
    23   6 C        2.864     0.136    25.032     8.201
    24   8 O        1.706    -0.214    17.552     5.656
    25   6 C        3.645     0.023    20.521     6.510
    26   6 C        2.862     0.136    25.030     8.201
    27   8 O        1.706    -0.217    17.604     5.665
    28   6 C        3.645     0.025    20.493     6.507
    29   6 C        2.919    -0.076    29.904     8.967
    30   6 C        3.700    -0.057    21.767     6.672
    31   6 C        3.854    -0.006    20.646     6.463
    32   6 C        3.755    -0.117    22.804     6.809
    33   6 C        3.756    -0.118    22.820     6.811
    34   1 H        0.926     0.060     2.205     2.322
    35   1 H        0.924     0.057     2.233     2.337
    36   1 H        0.925     0.084     1.934     2.175
    37   1 H        0.924     0.054     2.274     2.358
    38   1 H        0.924     0.058     2.221     2.331
    39   1 H        0.925     0.084     1.935     2.175
    40   1 H        0.924     0.050     2.319     2.382
    41   1 H        0.926     0.057     2.234     2.337
    42   1 H        0.926     0.050     2.315     2.379
    43   1 H        0.926     0.067     2.122     2.278
    44   1 H        0.926     0.052     2.291     2.367
    45   1 H        0.926     0.045     2.381     2.413
    46   1 H        0.926     0.049     2.332     2.388
    47   1 H        0.923     0.016     2.796     2.615
    48   1 H        0.925     0.046     2.372     2.409
    49   1 H        0.924     0.055     2.262     2.352
    50   1 H        0.924     0.056     2.249     2.345
    51   1 H        0.924     0.057     2.238     2.339
    52   1 H        0.924     0.054     2.269     2.356
    53   1 H        0.926     0.051     2.309     2.376
    54   1 H        0.926     0.061     2.184     2.311
    55   1 H        0.924     0.058     2.220     2.330
    56   1 H        0.924     0.059     2.207     2.323
    57   1 H        0.925     0.085     1.925     2.170
    58   1 H        0.925     0.085     1.933     2.174
    59   1 H        0.924     0.054     2.276     2.359
    60   1 H        0.924     0.057     2.238     2.340
    61   1 H        0.926     0.053     2.278     2.360
    62   1 H        0.924     0.062     2.177     2.307
    63   1 H        0.924     0.064     2.154     2.295
    64   1 H        0.925     0.062     2.174     2.306
    65   1 H        0.924     0.044     2.391     2.418
    66   1 H        0.925     0.065     2.144     2.290
    67   1 H        0.925     0.037     2.493     2.469
    68   1 H        0.925     0.056     2.243     2.342
    69   1 H        0.925     0.070     2.081     2.256
    70   1 H        0.925     0.042     2.427     2.436
    71   1 H        0.925     0.055     2.253     2.347
    72   1 H        0.860     0.163     1.318     1.799

Wiberg/Mayer (AO) data.
largest (>0.10) Wiberg bond orders for each atom

     #   Z sym  total        # sym  WBO       # sym  WBO       # sym  WBO
 ---------------------------------------------------------------------------
     1   7 N    3.012 --     2 C    1.958    72 H    0.936
     2   6 C    3.926 --     1 N    1.958     3 C    0.963    47 H    0.930
     3   6 C    3.960 --    14 C    1.062     2 C    0.963    31 C    0.931
                             4 C    0.909
     4   6 C    3.873 --    13 C    1.402     5 C    1.377     3 C    0.909
     5   6 C    3.950 --     6 C    1.391     4 C    1.377    34 H    0.958
     6   6 C    3.894 --     5 C    1.391     9 C    1.215     7 O    1.110
     7   8 O    2.254 --     6 C    1.110     8 C    0.975
     8   6 C    3.927 --    36 H    0.976     7 O    0.975    37 H    0.972
                            35 H    0.972
     9   6 C    3.887 --    12 C    1.382     6 C    1.215    10 O    1.108
    10   8 O    2.250 --     9 C    1.108    11 C    0.976
    11   6 C    3.928 --    39 H    0.976    10 O    0.976    40 H    0.973
                            38 H    0.972
    12   6 C    3.953 --    13 C    1.407     9 C    1.382    41 H    0.962
    13   6 C    3.935 --    12 C    1.407     4 C    1.402    42 H    0.962
    14   6 C    3.139 --     3 C    1.062    44 H    0.978    43 H    0.975
    15   6 C    3.804 --    16 C    1.732    46 H    0.977    45 H    0.974
    16   6 C    3.942 --    15 C    1.732    17 N    1.201    48 H    0.958
    17   7 N    3.353 --    16 C    1.201    30 C    1.007    18 C    1.006
    18   6 C    3.962 --    17 N    1.006    49 H    0.968    50 H    0.968
                            19 C    0.959
    19   6 C    3.971 --    20 C    1.015    52 H    0.972    51 H    0.968
                            18 C    0.959
    20   6 C    3.926 --    21 C    1.389    29 C    1.385    19 C    1.015
    21   6 C    3.928 --    22 C    1.427    20 C    1.389    53 H    0.967
    22   6 C    3.949 --    21 C    1.427    23 C    1.371    54 H    0.962
    23   6 C    3.872 --    22 C    1.371    26 C    1.209    24 O    1.119
    24   8 O    2.249 --    23 C    1.119    25 C    0.974
    25   6 C    3.924 --    57 H    0.976    24 O    0.974    56 H    0.971
                            55 H    0.971
    26   6 C    3.880 --    29 C    1.386    23 C    1.209    27 O    1.113
    27   8 O    2.250 --    26 C    1.113    28 C    0.976
    28   6 C    3.927 --    27 O    0.976    58 H    0.976    59 H    0.972
                            60 H    0.972
    29   6 C    3.949 --    26 C    1.386    20 C    1.385    61 H    0.961
    30   6 C    3.965 --    17 N    1.007    64 H    0.980    62 H    0.967
                            63 H    0.966
    31   6 C    3.957 --    32 C    1.010    33 C    1.006    65 H    0.958
                             3 C    0.931
    32   6 C    3.975 --    31 C    1.010    67 H    0.980    68 H    0.979
                            66 H    0.974
    33   6 C    3.965 --    31 C    1.006    71 H    0.979    70 H    0.976
                            69 H    0.970
    34   1 H    0.995 --     5 C    0.958
    35   1 H    0.991 --     8 C    0.972
    36   1 H    0.992 --     8 C    0.976
    37   1 H    0.991 --     8 C    0.972
    38   1 H    0.991 --    11 C    0.972
    39   1 H    0.992 --    11 C    0.976
    40   1 H    0.992 --    11 C    0.973
    41   1 H    0.994 --    12 C    0.962
    42   1 H    0.996 --    13 C    0.962
    43   1 H    0.995 --    14 C    0.975
    44   1 H    0.996 --    14 C    0.978
    45   1 H    0.997 --    15 C    0.974
    46   1 H    0.997 --    15 C    0.977
    47   1 H    0.977 --     2 C    0.930
    48   1 H    0.997 --    16 C    0.958
    49   1 H    0.993 --    18 C    0.968
    50   1 H    0.994 --    18 C    0.968
    51   1 H    0.994 --    19 C    0.968
    52   1 H    0.995 --    19 C    0.972
    53   1 H    0.996 --    21 C    0.967
    54   1 H    0.994 --    22 C    0.962
    55   1 H    0.989 --    25 C    0.971
    56   1 H    0.989 --    25 C    0.971
    57   1 H    0.992 --    25 C    0.976
    58   1 H    0.992 --    28 C    0.976
    59   1 H    0.990 --    28 C    0.972
    60   1 H    0.990 --    28 C    0.972
    61   1 H    0.996 --    29 C    0.961
    62   1 H    0.982 --    30 C    0.967
    63   1 H    0.988 --    30 C    0.966
    64   1 H    0.996 --    30 C    0.980
    65   1 H    0.988 --    31 C    0.958
    66   1 H    0.990 --    32 C    0.974
    67   1 H    0.995 --    32 C    0.980
    68   1 H    0.992 --    32 C    0.979
    69   1 H    0.988 --    33 C    0.970
    70   1 H    0.995 --    33 C    0.976
    71   1 H    0.992 --    33 C    0.979
    72   1 H    0.963 --     1 N    0.936
 ---------------------------------------------------------------------------

molecular dipole:
                 x           y           z       tot (Debye)
 q only:        0.611      -0.110      -0.130
   full:        0.941      -0.192      -0.389       2.635

           -------------------------------------------------
          | TOTAL ENERGY              -99.331325335924 Eh   |
          | GRADIENT NORM               0.002339469255 Eh/α |
          | HOMO-LUMO GAP               0.833199590119 eV   |
           -------------------------------------------------

 * finished run on 2024/04/06 at 11:13:11.237
