   * xtb version 6.6.1 (8d0f1dd) compiled by 'conda@1efc2f54142f' on 2023-08-01
          program call               : xtb xtbopt.xyz --opt crude --input .xc2 --gfn2

   ID    Z sym.   atoms
    1    6 C      1, 3, 5-7, 10, 11, 14
    2    7 N      2, 4, 9, 13
    3    8 O      8, 12
    4    1 H      15-25
########################################################################
[WARNING] Please study the warnings concerning your input carefully
-1- readin_getIntValue: could not parse ''
########################################################################

          :  Hamiltonian                  GFN2-xTB          :
 * total energy  :   -40.4268420 Eh     change        0.9947598E-13 Eh
 * total energy  :   -42.1296705 Eh     change       -0.1702828E+01 Eh
 * total energy  :   -42.1513702 Eh     change       -0.2169972E-01 Eh
 * total energy  :   -42.1564248 Eh     change       -0.5054657E-02 Eh
 * total energy  :   -42.1571523 Eh     change       -0.7274342E-03 Eh
 * total energy  :   -42.1577229 Eh     change       -0.5706359E-03 Eh
 * total energy  :   -42.1582085 Eh     change       -0.4856160E-03 Eh
 * total energy  :   -42.1586048 Eh     change       -0.3963042E-03 Eh
 * total energy  :   -42.1588627 Eh     change       -0.2578480E-03 Eh
   *** GEOMETRY OPTIMIZATION CONVERGED AFTER 9 ITERATIONS ***

 final structure:
================
25
 xtb: 6.6.1 (8d0f1dd)
C            2.88151122085046        0.74370292180937       -0.39192246942042
N            1.84025949036271       -0.21495394766918       -0.07587836206271
C            2.13656544371327       -1.40163081731741        0.40149804149856
N            1.18970278565299       -2.28767217539785        0.82279167786922
C           -0.18641257358500       -2.11014648373468        0.51998231465499
C            0.52246619552363        0.16305304650797       -0.28289659884442
C           -0.04694962489431        1.45256522591515       -0.15749264914490
O            0.42993859526475        2.55801935682176       -0.23634530195598
N           -1.45271893524927        1.22303434284748        0.07698566089235
C           -2.38213044274913        2.32062049749253        0.23605157988040
C           -1.78052890194160       -0.05314674171603        0.20930162306922
O           -2.77807410221244       -0.65096380686399        0.45683809028093
N           -0.49370681692373       -0.82598893203638       -0.08285342347556
C           -0.61453323163289       -2.03548056348304       -0.89684324760165
H            3.51716610173174        0.90678881027911        0.47971848130499
H            3.49466499577691        0.37971106917346       -1.21837680563121
H            2.41846790725407        1.68971414573990       -0.67202541887835
H            3.16969798659019       -1.67671761176881        0.52771918314205
H           -1.79579304201567        3.21067355473605        0.46147953211563
H           -2.93775272256494        2.48108749914490       -0.68836171718123
H           -3.07764728558769        2.10197141508903        1.04373615448048
H           -0.87206182404491       -2.46931733183641        1.27626970578762
H            0.12189224731276       -2.16312148530253       -1.67966609483271
H           -1.63217727925220       -2.30238984891639       -1.16138190765997
H            1.48858532671986       -3.22117359791294        1.06284356961480

          :  Hamiltonian                  GFN2-xTB          :
         :: total energy             -42.158862681468 Eh    ::
         :: gradient norm              0.008413841927 Eh/a0 ::
         :: HOMO-LUMO gap              2.391668960603 eV    ::
         :: SCC energy               -42.667272390343 Eh    ::
         :: -> dispersion             -0.023267986298 Eh    ::
         :: repulsion energy           0.508222158460 Eh    ::

    * Orbital Energies and Occupations

         #    Occupation            Energy/Eh            Energy/eV
      -------------------------------------------------------------
         1        2.0000           -0.9187869             -25.0015
       ...           ...                  ...                  ...
        25        2.0000           -0.6754691             -18.3804
        26        2.0000           -0.6718398             -18.2817
        27        2.0000           -0.6645337             -18.0829
        28        2.0000           -0.6558377             -17.8463
        29        2.0000           -0.6397663             -17.4089
        30        1.9999           -0.6361067             -17.3093
        31        1.9999           -0.6300808             -17.1454
        32        1.9998           -0.6128507             -16.6765
        33        1.9996           -0.6053701             -16.4730
        34        1.9993           -0.5956038             -16.2072
        35        1.9959           -0.5671466             -15.4328
        36        1.9916           -0.5557616             -15.1230
        37        1.8748           -0.5120267             -13.9330 (HOMO)
        38        0.1099           -0.4241345             -11.5413 (LUMO)
        39        0.0291           -0.4024052             -10.9500
        40        0.0002           -0.3219546              -8.7608
        41        0.0000           -0.2831997              -7.7063
        42        0.0000           -0.2625253              -7.1437
        43        0.0000           -0.2042981              -5.5592
        44                         -0.1824120              -4.9637
        45                         -0.1663910              -4.5277
        46                         -0.1332190              -3.6251
        47                         -0.0862350              -2.3466
        48                         -0.0685515              -1.8654
       ...                                ...                  ...
        67                          0.6065004              16.5037
      -------------------------------------------------------------
                  HL-Gap            0.0878922 Eh            2.3917 eV

     #   Z          covCN         q      C6AA      α(0)
     1   6 C        3.707    -0.094    22.452     6.773
     2   7 N        2.735     0.062    20.168     6.670
     3   6 C        2.803     0.052    26.812     8.483
     4   7 N        2.687    -0.133    23.881     7.258
     5   6 C        3.734     0.096    19.078     6.234
     6   6 C        2.906    -0.052    29.299     8.876
     7   6 C        2.806     0.251    22.792     7.821
     8   8 O        0.857    -0.379    21.267     6.183
     9   7 N        2.780    -0.082    22.825     7.096
    10   6 C        3.693    -0.058    21.809     6.682
    11   6 C        2.744     0.305    21.825     7.649
    12   8 O        0.857    -0.340    20.525     6.074
    13   7 N        3.662     0.062    20.161     6.669
    14   6 C        3.740    -0.033    21.242     6.576
    15   1 H        0.924     0.102     1.771     2.081
    16   1 H        0.924     0.100     1.785     2.089
    17   1 H        0.925     0.134     1.508     1.920
    18   1 H        0.926     0.110     1.700     2.039
    19   1 H        0.925     0.116     1.642     2.004
    20   1 H        0.924     0.095     1.831     2.116
    21   1 H        0.925     0.095     1.832     2.116
    22   1 H        0.925     0.125     1.575     1.963
    23   1 H        0.925     0.115     1.652     2.010
    24   1 H        0.925     0.132     1.522     1.929
    25   1 H        0.860     0.221     1.003     1.569

Wiberg/Mayer (AO) data.
largest (>0.10) Wiberg bond orders for each atom

     #   Z sym  total        # sym  WBO       # sym  WBO       # sym  WBO
 ---------------------------------------------------------------------------
     1   6 C    3.915 --     2 N    0.971    15 H    0.967    16 H    0.963
                            17 H    0.961
     2   7 N    3.648 --     3 C    1.419     6 C    1.090     1 C    0.971
                             4 N    0.101
     3   6 C    3.824 --     2 N    1.419     4 N    1.207    18 H    0.950
     4   7 N    3.381 --     3 C    1.207     5 C    1.026    25 H    0.921
                             2 N    0.101
     5   6 C    3.896 --     4 N    1.026    14 C    0.960    22 H    0.946
                            13 N    0.892
     6   6 C    3.630 --     7 C    1.213     2 N    1.090    13 N    0.951
                             8 O    0.137
     7   6 C    3.938 --     8 O    1.662     6 C    1.213     9 N    0.952
     8   8 O    2.024 --     7 C    1.662     6 C    0.137     9 N    0.101
     9   7 N    3.570 --    11 C    1.294    10 C    0.967     7 C    0.952
                            12 O    0.195     8 O    0.101
    10   6 C    3.919 --    21 H    0.972     9 N    0.967    19 H    0.967
                            20 H    0.964
    11   6 C    3.929 --    12 O    1.744     9 N    1.294    13 N    0.788
    12   8 O    2.128 --    11 C    1.744     9 N    0.195
    13   7 N    3.709 --     6 C    0.951     5 C    0.892    14 C    0.882
                            11 C    0.788
    14   6 C    3.869 --    23 H    0.964     5 C    0.960    24 H    0.958
                            13 N    0.882
    15   1 H    0.987 --     1 C    0.967
    16   1 H    0.986 --     1 C    0.963
    17   1 H    0.982 --     1 C    0.961
    18   1 H    0.987 --     3 C    0.950
    19   1 H    0.985 --    10 C    0.967
    20   1 H    0.988 --    10 C    0.964
    21   1 H    0.990 --    10 C    0.972
    22   1 H    0.984 --     5 C    0.946
    23   1 H    0.986 --    14 C    0.964
    24   1 H    0.981 --    14 C    0.958
    25   1 H    0.949 --     4 N    0.921
 ---------------------------------------------------------------------------

molecular dipole:
                 x           y           z       tot (Debye)
 q only:        1.591      -2.410       0.004
   full:        1.655      -2.827       0.062       8.327

           -------------------------------------------------
          | TOTAL ENERGY              -42.158862681468 Eh   |
          | GRADIENT NORM               0.008413841927 Eh/α |
          | HOMO-LUMO GAP               2.391668960603 eV   |
           -------------------------------------------------

 * finished run on 2024/06/05 at 19:58:10.233
