   * xtb version 6.6.1 (8d0f1dd) compiled by 'conda@1efc2f54142f' on 2023-08-01
          program call               : xtb struc.xyz --opt loose --input .xc1 --gfn2

   ID    Z sym.   atoms
    1    6 C      1, 3, 5-7, 10, 11, 14
    2    7 N      2, 4, 9, 13
    3    8 O      8, 12
    4    1 H      15-25
constraining bond 5 19 to    5.7133300 Å, actual value:    4.6357093 Å

          :  Hamiltonian                  GFN2-xTB          :
 * total energy  :   -44.3213371 Eh     change       -0.6650680E-10 Eh
 * total energy  :   -47.9765679 Eh     change       -0.3655231E+01 Eh
 * total energy  :   -53.4371128 Eh     change       -0.5460545E+01 Eh
 * total energy  :   -60.8341818 Eh     change       -0.7397069E+01 Eh
 * total energy  :   -70.0740098 Eh     change       -0.9239828E+01 Eh
 * total energy  :   -80.8229036 Eh     change       -0.1074889E+02 Eh
 * total energy  :   -87.4151632 Eh     change       -0.6592260E+01 Eh
 * total energy  :   -87.2412818 Eh     change        0.1738814E+00 Eh
 * total energy  :   -89.1433864 Eh     change       -0.1902105E+01 Eh
 * total energy  :   -86.4164796 Eh     change        0.2726907E+01 Eh
 * total energy  :   -90.5806218 Eh     change       -0.3340684E-03 Eh
 * total energy  :   -90.5809239 Eh     change       -0.3021313E-03 Eh
 * total energy  :   -90.5811646 Eh     change       -0.2406846E-03 Eh
 * total energy  :   -90.5813521 Eh     change       -0.1874819E-03 Eh
 * total energy  :   -90.5814894 Eh     change       -0.1372463E-03 Eh
 * total energy  :   -90.5815762 Eh     change       -0.8682861E-04 Eh
 * total energy  :   -90.5816323 Eh     change       -0.5611569E-04 Eh
 * total energy  :   -90.5816592 Eh     change       -0.2692170E-04 Eh
 * total energy  :   -90.5816733 Eh     change       -0.1407094E-04 Eh
   *** GEOMETRY OPTIMIZATION CONVERGED AFTER 81 ITERATIONS ***

 final structure:
================
25
 xtb: 6.6.1 (8d0f1dd)
C            2.61085105557072       -0.06892190355698        0.74101189423819
N            1.57533439395355        0.30863833392899       -0.19135494833174
C            1.27999116881481       -0.44528534958132       -1.27675308714650
N            0.42092348162315       -0.07490274300263       -2.13001719209831
C           -0.46087454704032        1.84269526847794       -0.22355323395650
C            0.95770512807698        1.56745340985151       -0.04206548034979
C            1.74319940366181        2.63591234977875        0.20367447628956
O            2.40409251005997        3.53598888680603        0.46979402262960
N           -1.28644616317412        0.74448514874343       -0.12844683166677
C           -2.71457693511436        0.63552875352199       -0.38340433830816
C           -1.32102434901293       -0.59107733120179        0.25879201865538
O           -2.66528649176381       -0.72243149628802        0.01901831813141
N           -0.43054337135612       -1.34021541609788        0.70943404277744
C           -0.67175245770659       -2.69015456292151        1.10709106491231
H            2.29411998441931        0.16625686214461        1.75624960650274
H            2.78668215471610       -1.13968262144651        0.67311556130735
H            3.54867488887187        0.45280488083503        0.53313601535792
H            1.86229089675787       -1.36966827339376       -1.32348201814054
H           -0.58811389121547        2.16618978010065       -0.28248267344985
H           -2.99679532224822        0.75546122762240       -1.43396577574662
H           -3.34733199636815        1.24676754646539        0.26847967329572
H           -0.27061021741785       -2.81765542922280        2.11340570890130
H           -0.11599241045836       -3.35022891169476        0.43866005524926
H           -1.72956555241719       -2.96039948262868        1.08864606975714
H            0.27548015284594       -0.66932038563159       -2.93381133094310

          :  Hamiltonian                  GFN2-xTB          :
         :: total energy             -90.581673301656 Eh    ::
         :: gradient norm              0.003669997344 Eh/a0 ::
         :: HOMO-LUMO gap              1.661780043939 eV    ::
         :: SCC energy               -42.628170804650 Eh    ::
         :: -> dispersion             -0.023224171870 Eh    ::
         :: repulsion energy           3.358213583313 Eh    ::

    * Orbital Energies and Occupations

         #    Occupation            Energy/Eh            Energy/eV
      -------------------------------------------------------------
         1        2.0000           -0.9393510             -25.5610
       ...           ...                  ...                  ...
        25        2.0000           -0.6686939             -18.1961
        26        1.9999           -0.6626637             -18.0320
        27        1.9999           -0.6551251             -17.8269
        28        1.9998           -0.6476531             -17.6235
        29        1.9995           -0.6315651             -17.1858
        30        1.9994           -0.6282393             -17.0953
        31        1.9992           -0.6250716             -17.0091
        32        1.9991           -0.6216929             -16.9171
        33        1.9949           -0.5946177             -16.1804
        34        1.9610           -0.5622301             -15.2991
        35        1.9136           -0.5492475             -14.9458
        36        1.8656           -0.5418498             -14.7445
        37        1.8222           -0.5370441             -14.6137 (HOMO)
        38        0.3560           -0.4759748             -12.9519 (LUMO)
        39        0.0890           -0.4516336             -12.2896
        40        0.0008           -0.3753895             -10.2149
        41        0.0003           -0.3598007              -9.7907
        42        0.0000           -0.3292152              -8.9584
        43                         -0.2276074              -6.1935
        44                         -0.1807304              -4.9179
        45                         -0.1361005              -3.7035
        46                         -0.1189687              -3.2373
        47                         -0.0777220              -2.1149
        48                         -0.0742676              -2.0209
       ...                                ...                  ...
        67                         17.0948030             465.1733
      -------------------------------------------------------------
                  HL-Gap            0.0610693 Eh            1.6618 eV

     #   Z          covCN         q      C6AA      α(0)
     1   6 C        3.698    -0.080    22.209     6.740
     2   7 N        2.750     0.003    21.207     6.840
     3   6 C        2.774     0.132    25.098     8.205
     4   7 N        1.784    -0.312    28.913     7.964
     5   6 C        2.842    -0.038    28.935     8.816
     6   6 C        2.934     0.021    27.538     8.606
     7   6 C        1.868     0.261    25.121     8.096
     8   8 O        0.856    -0.070    16.076     5.376
     9   7 N        2.853    -0.036    21.940     6.957
    10   6 C        4.170     0.130    18.396     6.092
    11   6 C        3.266     0.290    21.109     7.415
    12   8 O        1.780    -0.248    18.096     5.744
    13   7 N        1.821    -0.230    26.862     7.679
    14   6 C        3.711    -0.036    21.355     6.604
    15   1 H        0.925     0.090     1.881     2.145
    16   1 H        0.925     0.101     1.780     2.086
    17   1 H        0.924     0.085     1.929     2.172
    18   1 H        0.924     0.069     2.101     2.267
    19   1 H        1.000     0.198     1.103     1.641
    20   1 H        0.924     0.111     1.689     2.032
    21   1 H        0.924     0.107     1.727     2.055
    22   1 H        0.924     0.098     1.805     2.101
    23   1 H        0.924     0.091     1.867     2.137
    24   1 H        0.924     0.076     2.022     2.224
    25   1 H        0.860     0.187     1.172     1.696

Wiberg/Mayer (AO) data.
largest (>0.10) Wiberg bond orders for each atom

     #   Z sym  total        # sym  WBO       # sym  WBO       # sym  WBO
 ---------------------------------------------------------------------------
     1   6 C    3.935 --     2 N    0.990    15 H    0.972    16 H    0.970
                            17 H    0.961
     2   7 N    3.461 --     3 C    1.212     6 C    1.024     1 C    0.990
                             4 N    0.116
     3   6 C    3.946 --     4 N    1.749     2 N    1.212    18 H    0.914
     4   7 N    2.877 --     3 C    1.749    25 H    0.932     2 N    0.116
     5   6 C    3.661 --     9 N    1.267     6 C    1.224    19 H    0.935
     6   6 C    3.900 --     7 C    1.395     5 C    1.224     2 N    1.024
                             8 O    0.133
     7   6 C    3.682 --     8 O    2.164     6 C    1.395
     8   8 O    2.404 --     7 C    2.164     6 C    0.133
     9   7 N    3.523 --     5 C    1.267    11 C    1.057    10 C    0.972
    10   6 C    3.902 --    12 O    0.973     9 N    0.972    21 H    0.951
                            20 H    0.950
    11   6 C    3.908 --    13 N    1.704     9 N    1.057    12 O    1.015
    12   8 O    2.205 --    11 C    1.015    10 C    0.973    13 N    0.131
    13   7 N    2.985 --    11 C    1.704    14 C    1.024    12 O    0.131
    14   6 C    3.926 --    13 N    1.024    24 H    0.959    22 H    0.948
                            23 H    0.945
    15   1 H    0.986 --     1 C    0.972
    16   1 H    0.987 --     1 C    0.970
    17   1 H    0.980 --     1 C    0.961
    18   1 H    0.964 --     3 C    0.914
    19   1 H    0.960 --     5 C    0.935
    20   1 H    0.979 --    10 C    0.950
    21   1 H    0.982 --    10 C    0.951
    22   1 H    0.975 --    14 C    0.948
    23   1 H    0.976 --    14 C    0.945
    24   1 H    0.970 --    14 C    0.959
    25   1 H    0.956 --     4 N    0.932
 ---------------------------------------------------------------------------

molecular dipole:
                 x           y           z       tot (Debye)
 q only:        0.465       0.764       0.113
   full:        0.361       0.464      -0.051       1.499

           -------------------------------------------------
          | TOTAL ENERGY              -90.581673301656 Eh   |
          | GRADIENT NORM               0.003669997344 Eh/α |
          | HOMO-LUMO GAP               1.661780043939 eV   |
           -------------------------------------------------

 * finished run on 2024/06/05 at 19:58:09.487
