   * xtb version 6.6.1 (8d0f1dd) compiled by 'conda@1efc2f54142f' on 2023-08-01
          program call               : xtb xtbopt.xyz --opt crude --input .xc2 --gfn2

   ID    Z sym.   atoms
    1    6 C      1, 3, 5-7, 10, 11, 14
    2    7 N      2, 4, 9, 13
    3    8 O      8, 12
    4    1 H      15-25
########################################################################
[WARNING] Please study the warnings concerning your input carefully
-1- readin_getIntValue: could not parse ''
########################################################################

          :  Hamiltonian                  GFN2-xTB          :
 * total energy  :   -39.2696560 Eh     change       -0.9805490E-12 Eh
 * total energy  :   -42.0482729 Eh     change       -0.2778617E+01 Eh
 * total energy  :   -42.0712530 Eh     change       -0.2298007E-01 Eh
 * total energy  :   -42.0766918 Eh     change       -0.5438808E-02 Eh
 * total energy  :   -42.0784065 Eh     change       -0.1714741E-02 Eh
 * total energy  :   -42.0791204 Eh     change       -0.7139281E-03 Eh
 * total energy  :   -42.0800343 Eh     change       -0.9138339E-03 Eh
 * total energy  :   -42.0807625 Eh     change       -0.7281972E-03 Eh
 * total energy  :   -42.0814573 Eh     change       -0.6947763E-03 Eh
 * total energy  :   -42.0817823 Eh     change       -0.3250456E-03 Eh
   *** GEOMETRY OPTIMIZATION CONVERGED AFTER 10 ITERATIONS ***

 final structure:
================
25
 xtb: 6.6.1 (8d0f1dd)
C            2.65189706318192       -0.05183184821005        0.75488302315691
N            1.59439618748700        0.29298697659204       -0.16618533248669
C            1.31694329024542       -0.46978723053318       -1.25104746039150
N            0.45529337374549       -0.11737975161442       -2.10863474035214
C           -0.41830892873666        1.70961241481942       -0.16335759927756
C            0.96874610674498        1.55331420011310       -0.03604987472690
C            1.76047827407851        2.63626661776200        0.13720868631790
O            2.46450883972226        3.51864484074691        0.35344197491787
N           -1.29751198469307        0.72184670530737       -0.09705964799929
C           -2.72646440598916        0.63745365315234       -0.35354565679257
C           -1.34746562606228       -0.62387885983934        0.26516337847683
O           -2.69425451231239       -0.72817237205945        0.02519603745741
N           -0.46421397524904       -1.38962140042810        0.69605326519237
C           -0.70658338656074       -2.74474236964815        1.07483678106851
H            2.33367201885519        0.16113272083813        1.77488371882044
H            2.86873622712808       -1.11383711565267        0.67541961313056
H            3.56635826501381        0.50956232581599        0.54444121027116
H            1.90995640746422       -1.38703230123226       -1.28945744905503
H           -0.82082296697001        2.69521376962033       -0.33736441235270
H           -3.00245805682500        0.77810767522882       -1.40301355091226
H           -3.35261204082577        1.24458119174460        0.30791728457643
H           -0.34733245684330       -2.87349945364877        2.09664523761099
H           -0.11186945760940       -3.39093326701685        0.42767458705185
H           -1.75901168297737       -3.02915698454364        1.01049524995291
H            0.31835494206580       -0.72061159570552       -2.90737270578803

          :  Hamiltonian                  GFN2-xTB          :
         :: total energy             -42.081782300812 Eh    ::
         :: gradient norm              0.006901574444 Eh/a0 ::
         :: HOMO-LUMO gap              1.848814335582 eV    ::
         :: SCC energy               -42.632161022811 Eh    ::
         :: -> dispersion             -0.023017195978 Eh    ::
         :: repulsion energy           0.550080135935 Eh    ::

    * Orbital Energies and Occupations

         #    Occupation            Energy/Eh            Energy/eV
      -------------------------------------------------------------
         1        2.0000           -0.9379218             -25.5222
       ...           ...                  ...                  ...
        25        2.0000           -0.6672744             -18.1575
        26        2.0000           -0.6636237             -18.0581
        27        1.9999           -0.6524093             -17.7530
        28        1.9999           -0.6469255             -17.6037
        29        1.9996           -0.6282347             -17.0951
        30        1.9995           -0.6248465             -17.0029
        31        1.9994           -0.6241402             -16.9837
        32        1.9993           -0.6195407             -16.8586
        33        1.9959           -0.5927392             -16.1293
        34        1.9680           -0.5598570             -15.2345
        35        1.9260           -0.5462206             -14.8634
        36        1.8762           -0.5376674             -14.6307
        37        1.8423           -0.5335462             -14.5185 (HOMO)
        38        0.2759           -0.4656035             -12.6697 (LUMO)
        39        0.1171           -0.4506479             -12.2628
        40        0.0007           -0.3696113             -10.0576
        41        0.0004           -0.3584613              -9.7542
        42        0.0000           -0.3179898              -8.6529
        43                         -0.2281478              -6.2082
        44                         -0.1631370              -4.4392
        45                         -0.1534643              -4.1760
        46                         -0.1106804              -3.0118
        47                         -0.0783242              -2.1313
        48                         -0.0631564              -1.7186
       ...                                ...                  ...
        67                          0.9206071              25.0510
      -------------------------------------------------------------
                  HL-Gap            0.0679427 Eh            1.8488 eV

     #   Z          covCN         q      C6AA      α(0)
     1   6 C        3.698    -0.078    22.171     6.735
     2   7 N        2.752    -0.003    21.315     6.857
     3   6 C        2.774     0.133    25.080     8.202
     4   7 N        1.784    -0.319    29.105     7.990
     5   6 C        2.842     0.040    27.093     8.530
     6   6 C        2.902     0.032    27.287     8.565
     7   6 C        1.866     0.260    25.156     8.101
     8   8 O        0.856    -0.071    16.100     5.380
     9   7 N        2.813    -0.007    21.395     6.870
    10   6 C        4.161     0.128    18.431     6.097
    11   6 C        3.257     0.290    21.200     7.443
    12   8 O        1.781    -0.247    18.073     5.741
    13   7 N        1.821    -0.228    26.834     7.676
    14   6 C        3.709    -0.036    21.352     6.604
    15   1 H        0.925     0.088     1.903     2.157
    16   1 H        0.925     0.099     1.798     2.097
    17   1 H        0.924     0.081     1.964     2.192
    18   1 H        0.924     0.066     2.129     2.282
    19   1 H        0.926     0.109     1.701     2.040
    20   1 H        0.924     0.112     1.680     2.027
    21   1 H        0.924     0.107     1.721     2.051
    22   1 H        0.924     0.097     1.815     2.107
    23   1 H        0.924     0.090     1.876     2.142
    24   1 H        0.924     0.073     2.055     2.242
    25   1 H        0.860     0.185     1.184     1.705

Wiberg/Mayer (AO) data.
largest (>0.10) Wiberg bond orders for each atom

     #   Z sym  total        # sym  WBO       # sym  WBO       # sym  WBO
 ---------------------------------------------------------------------------
     1   6 C    3.938 --     2 N    0.991    15 H    0.972    16 H    0.971
                            17 H    0.963
     2   7 N    3.455 --     3 C    1.213     6 C    1.008     1 C    0.991
                             4 N    0.123
     3   6 C    3.947 --     4 N    1.750     2 N    1.213    18 H    0.915
     4   7 N    2.884 --     3 C    1.750    25 H    0.933     2 N    0.123
     5   6 C    3.774 --     9 N    1.330     6 C    1.286    19 H    0.948
     6   6 C    3.915 --     7 C    1.374     5 C    1.286     2 N    1.008
                             8 O    0.127
     7   6 C    3.658 --     8 O    2.156     6 C    1.374
     8   8 O    2.393 --     7 C    2.156     6 C    0.127
     9   7 N    3.567 --     5 C    1.330    11 C    1.038    10 C    0.969
    10   6 C    3.903 --    12 O    0.975     9 N    0.969    21 H    0.952
                            20 H    0.950
    11   6 C    3.907 --    13 N    1.724     9 N    1.038    12 O    1.012
    12   8 O    2.207 --    11 C    1.012    10 C    0.975    13 N    0.137
    13   7 N    3.011 --    11 C    1.724    14 C    1.022    12 O    0.137
    14   6 C    3.931 --    13 N    1.022    24 H    0.963    22 H    0.949
                            23 H    0.948
    15   1 H    0.987 --     1 C    0.972
    16   1 H    0.988 --     1 C    0.971
    17   1 H    0.981 --     1 C    0.963
    18   1 H    0.966 --     3 C    0.915
    19   1 H    0.986 --     5 C    0.948
    20   1 H    0.980 --    10 C    0.950
    21   1 H    0.982 --    10 C    0.952
    22   1 H    0.978 --    14 C    0.949
    23   1 H    0.979 --    14 C    0.948
    24   1 H    0.974 --    14 C    0.963
    25   1 H    0.958 --     4 N    0.933
 ---------------------------------------------------------------------------

molecular dipole:
                 x           y           z       tot (Debye)
 q only:        0.350       0.854       0.145
   full:        0.222       0.681      -0.042       1.824

           -------------------------------------------------
          | TOTAL ENERGY              -42.081782300812 Eh   |
          | GRADIENT NORM               0.006901574444 Eh/α |
          | HOMO-LUMO GAP               1.848814335582 eV   |
           -------------------------------------------------

 * finished run on 2024/06/05 at 19:58:09.905
