   * xtb version 6.6.1 (8d0f1dd) compiled by 'conda@1efc2f54142f' on 2023-08-01
          program call               : xtb struc.xyz --opt loose --input .xc1 --gfn2

   ID    Z sym.   atoms
    1    6 C      1, 3, 5-7, 10, 11, 14
    2    7 N      2, 4, 9, 13
    3    8 O      8, 12
    4    1 H      15-25
constraining bond 3 5 to    5.0000000 Å, actual value:    2.1957592 Å

          :  Hamiltonian                  GFN2-xTB          :
 * total energy  :   -28.2190428 Eh     change       -0.2401990E-09 Eh
 * total energy  :   -32.8972766 Eh     change       -0.4678234E+01 Eh
 * total energy  :   -36.0744396 Eh     change       -0.3177163E+01 Eh
 * total energy  :   -38.5043358 Eh     change       -0.2429896E+01 Eh
 * total energy  :   -40.3208160 Eh     change       -0.1816480E+01 Eh
 * total energy  :   -41.1584121 Eh     change       -0.8375961E+00 Eh
 * total energy  :   -41.3487568 Eh     change       -0.1903447E+00 Eh
 * total energy  :   -41.4196105 Eh     change       -0.7085373E-01 Eh
 * total energy  :   -41.4833817 Eh     change       -0.6377114E-01 Eh
 * total energy  :   -41.5270630 Eh     change       -0.4368134E-01 Eh
 * total energy  :   -41.9828281 Eh     change       -0.3541749E-03 Eh
 * total energy  :   -41.9829676 Eh     change       -0.1395671E-03 Eh
 * total energy  :   -41.9831368 Eh     change       -0.1691672E-03 Eh
 * total energy  :   -41.9832209 Eh     change       -0.8413394E-04 Eh
 * total energy  :   -41.9831420 Eh     change        0.7891054E-04 Eh
 * total energy  :   -41.9834617 Eh     change       -0.3196778E-03 Eh
 * total energy  :   -41.9835494 Eh     change       -0.8775175E-04 Eh
 * total energy  :   -41.9836048 Eh     change       -0.5531871E-04 Eh
 * total energy  :   -41.9836362 Eh     change       -0.3140101E-04 Eh
   *** GEOMETRY OPTIMIZATION CONVERGED AFTER 71 ITERATIONS ***

 final structure:
================
25
 xtb: 6.6.1 (8d0f1dd)
C            2.62325943187003        1.48252419984661        0.88526170818850
N            1.74066915933743        0.57864050917523        0.79718626452004
C            4.12213101648608       -2.06109445188295       -1.17645634890402
N            1.15692974188424       -2.04075455240320        0.35796695522397
C           -0.40686987127737       -0.42111397344721        0.16523973448215
C            0.47155497530720        0.64660859874433        0.42815615690661
C           -0.30660653306269        1.90550915865397        0.30262065593210
O            0.10136532527847        3.03555974362555        0.43225785256164
N           -1.59396596540758        1.52358301673841       -0.02326763377188
C           -2.67692386322976        2.44627953650794       -0.23093698690483
C           -1.73252095851289        0.14531461581042       -0.12560402334729
O           -2.76730587031769       -0.41647408890288       -0.41533808401959
N           -0.06710407616127       -1.73544516419149        0.16457766716397
C           -1.08160441796678       -2.75440688760441       -0.01916148630556
H            3.56909110851693        1.23065357723102        1.34175777610055
H            4.53194130490705       -1.13002340558655       -1.51161126197530
H            2.47628965148126        2.50216521913956        0.52377337159720
H            4.52895620910536       -3.05072785360019       -1.22002469916820
H           -2.26289182993504        3.44757742839815       -0.34542593525518
H           -3.23630926742892        2.15804270095793       -1.12267880390330
H           -3.36004581974681        2.43163747214525        0.62279637611711
H           -1.28013249913254       -3.24808843227297        0.93600346190666
H           -0.72505020102483       -3.50361652884306       -0.72825716320908
H           -2.00969379487968       -2.31515968248621       -0.38486830323125
H            1.34526855801515       -3.03895221415442        0.37720436719742

          :  Hamiltonian                  GFN2-xTB          :
         :: total energy             -41.983636165454 Eh    ::
         :: gradient norm              0.001761232538 Eh/a0 ::
         :: HOMO-LUMO gap              0.271940170318 eV    ::
         :: SCC energy               -42.491803726857 Eh    ::
         :: -> dispersion             -0.020382148675 Eh    ::
         :: repulsion energy           0.508059562033 Eh    ::

    * Orbital Energies and Occupations

         #    Occupation            Energy/Eh            Energy/eV
      -------------------------------------------------------------
         1        2.0000           -0.8801700             -23.9506
       ...           ...                  ...                  ...
        25        1.9962           -0.6547084             -17.8155
        26        1.9945           -0.6458476             -17.5744
        27        1.9916           -0.6358020             -17.3011
        28        1.9910           -0.6342471             -17.2587
        29        1.9870           -0.6255849             -17.0230
        30        1.9825           -0.6184618             -16.8292
        31        1.9606           -0.5988708             -16.2961
        32        1.9347           -0.5865440             -15.9607
        33        1.8962           -0.5750593             -15.6482
        34        1.8630           -0.5680360             -15.4570
        35        1.8517           -0.5660123             -15.4020
        36        1.5420           -0.5348896             -14.5551
        37        1.1528           -0.5133719             -13.9696 (HOMO)
        38        0.9437           -0.5033783             -13.6976 (LUMO)
        39        0.6938           -0.4910280             -13.3616
        40        0.1897           -0.4524744             -12.3125
        41        0.0374           -0.4119776             -11.2105
        42        0.0013           -0.3318792              -9.0309
        43        0.0003           -0.2947225              -8.0198
        44        0.0000           -0.1735169              -4.7216
        45        0.0000           -0.1472008              -4.0055
        46                         -0.0987597              -2.6874
        47                         -0.0547479              -1.4898
        48                         -0.0293415              -0.7984
       ...                                ...                  ...
        67                          0.5684921              15.4695
      -------------------------------------------------------------
                  HL-Gap            0.0099936 Eh            0.2719 eV

     #   Z          covCN         q      C6AA      α(0)
     1   6 C        2.790     0.016    27.636     8.611
     2   7 N        1.825    -0.036    22.660     7.054
     3   6 C        1.853    -0.101    33.945     9.411
     4   7 N        1.889    -0.227    26.804     7.675
     5   6 C        2.989    -0.005    28.128     8.700
     6   6 C        2.970     0.042    27.057     8.532
     7   6 C        2.839     0.261    22.609     7.792
     8   8 O        0.857    -0.307    19.910     5.982
     9   7 N        2.786    -0.054    22.286     7.011
    10   6 C        3.690    -0.057    21.799     6.682
    11   6 C        2.841     0.261    22.612     7.793
    12   8 O        0.857    -0.330    20.330     6.045
    13   7 N        2.801     0.209    17.807     6.267
    14   6 C        3.699    -0.108    22.740     6.820
    15   1 H        0.926     0.130     1.533     1.936
    16   1 H        0.926     0.132     1.520     1.928
    17   1 H        0.924     0.131     1.524     1.930
    18   1 H        0.926     0.138     1.475     1.899
    19   1 H        0.925     0.117     1.639     2.002
    20   1 H        0.924     0.116     1.650     2.009
    21   1 H        0.924     0.113     1.672     2.022
    22   1 H        0.924     0.116     1.648     2.008
    23   1 H        0.924     0.109     1.709     2.045
    24   1 H        0.925     0.140     1.465     1.892
    25   1 H        0.860     0.196     1.127     1.663

Wiberg/Mayer (AO) data.
largest (>0.10) Wiberg bond orders for each atom

     #   Z sym  total        # sym  WBO       # sym  WBO       # sym  WBO
 ---------------------------------------------------------------------------
     1   6 C    3.642 --     2 N    1.716    15 H    0.932    17 H    0.892
     2   7 N    3.090 --     1 C    1.716     6 C    1.289
     3   6 C    1.887 --    16 H    0.944    18 H    0.941
     4   7 N    2.560 --    13 N    1.405    25 H    0.925
     5   6 C    3.770 --     6 C    1.267    13 N    1.199    11 C    1.037
     6   6 C    3.673 --     2 N    1.289     5 C    1.267     7 C    0.966
     7   6 C    3.843 --     8 O    1.686     9 N    1.105     6 C    0.966
     8   8 O    1.925 --     7 C    1.686     9 N    0.103
     9   7 N    3.454 --     7 C    1.105    11 C    1.095    10 C    0.991
                            12 O    0.105     8 O    0.103
    10   6 C    3.866 --     9 N    0.991    19 H    0.956    20 H    0.946
                            21 H    0.936
    11   6 C    3.879 --    12 O    1.663     9 N    1.095     5 C    1.037
    12   8 O    1.924 --    11 C    1.663     9 N    0.105
    13   7 N    3.633 --     4 N    1.405     5 C    1.199    14 C    0.971
    14   6 C    3.880 --    13 N    0.971    23 H    0.956    22 H    0.942
                            24 H    0.940
    15   1 H    0.951 --     1 C    0.932
    16   1 H    0.950 --     3 C    0.944
    17   1 H    0.910 --     1 C    0.892
    18   1 H    0.947 --     3 C    0.941
    19   1 H    0.971 --    10 C    0.956
    20   1 H    0.961 --    10 C    0.946
    21   1 H    0.952 --    10 C    0.936
    22   1 H    0.969 --    14 C    0.942
    23   1 H    0.976 --    14 C    0.956
    24   1 H    0.970 --    14 C    0.940
    25   1 H    0.948 --     4 N    0.925
 ---------------------------------------------------------------------------

molecular dipole:
                 x           y           z       tot (Debye)
 q only:        1.447      -1.271      -0.062
   full:        1.534      -1.425      -0.155       5.336

           -------------------------------------------------
          | TOTAL ENERGY              -41.983636165454 Eh   |
          | GRADIENT NORM               0.001761232538 Eh/α |
          | HOMO-LUMO GAP               0.271940170318 eV   |
           -------------------------------------------------

 * finished run on 2024/06/05 at 19:58:45.146
