   * xtb version 6.6.1 (8d0f1dd) compiled by 'conda@1efc2f54142f' on 2023-08-01
          program call               : xtb xtbopt.xyz --opt crude --input .xc2 --gfn2

   ID    Z sym.   atoms
    1    6 C      1, 3, 5-7, 10, 11, 14
    2    7 N      2, 4, 9, 13
    3    8 O      8, 12
    4    1 H      15-25

          :  Hamiltonian                  GFN2-xTB          :
 * total energy  :   -42.0462586 Eh     change       -0.8242296E-12 Eh
   *** GEOMETRY OPTIMIZATION CONVERGED AFTER 1 ITERATIONS ***

 final structure:
================
25
 xtb: 6.6.1 (8d0f1dd)
C            3.30969872022441        1.13181009454697       -0.03959022089216
N            2.35334066112733        0.05459826234759       -0.02147973877337
C            2.66984216124641       -1.23455713474008       -0.03955558550394
N            1.56036051006276       -1.97927356876991        0.01296669839364
C            0.44244902413542       -1.13051228348412        0.06733563932531
C            0.99621511708261        0.18038965932549        0.04832630905126
C            0.24839412179534        1.44471411013820        0.05680280139481
O            0.79740671486202        2.54095238019041       -0.08892471250238
N           -1.05100172091705        1.26597166617607        0.24311111824108
C           -2.03447003802503        2.24327164854944        0.24615790226196
C           -4.22477908429691        0.39745484572625       -0.87365033688907
O           -4.13017862791477       -0.72124533872827       -0.79228482248446
N           -0.79807882371613       -1.44483600075236        0.10991149596156
C           -1.33986874413048       -2.74758707551155        0.13394847019654
H            3.84244845796625        1.17617598428542        0.91131871510065
H            4.02975313886615        0.98044782695574       -0.84254546095801
H            2.77766718652087        2.07261427835675       -0.19126430458905
H            3.67257712518511       -1.61609102277227       -0.09027374068833
H           -1.73518983606502        3.15586388480179       -0.28931180859405
H           -2.93914657018993        1.81554594303578       -0.23003550903726
H           -2.31211080043022        2.50476876635503        1.27565996256227
H           -0.96865692949023       -3.33477979762098        0.98200283888016
H           -1.11991174223048       -3.29443303696684       -0.79073608137381
H           -2.42200501760470       -2.65472495960583        0.22613155662744
H            1.53567651003620       -2.98830059023821        0.00715043218956

          :  Hamiltonian                  GFN2-xTB          :
         :: total energy             -42.046258572223 Eh    ::
         :: gradient norm              0.002178584320 Eh/a0 ::
         :: HOMO-LUMO gap              0.230732269963 eV    ::
         :: SCC energy               -42.582068663300 Eh    ::
         :: -> dispersion             -0.020209215767 Eh    ::
         :: repulsion energy           0.535685984662 Eh    ::

    * Orbital Energies and Occupations

         #    Occupation            Energy/Eh            Energy/eV
      -------------------------------------------------------------
         1        2.0000           -0.8994053             -24.4741
       ...           ...                  ...                  ...
        25        1.9999           -0.6562418             -17.8572
        26        1.9999           -0.6547303             -17.8161
        27        1.9994           -0.6322526             -17.2045
        28        1.9993           -0.6305335             -17.1577
        29        1.9990           -0.6240231             -16.9805
        30        1.9986           -0.6187652             -16.8375
        31        1.9973           -0.6084160             -16.5558
        32        1.9959           -0.6016599             -16.3720
        33        1.9778           -0.5747052             -15.6385
        34        1.9095           -0.5518939             -15.0178
        35        1.7925           -0.5377621             -14.6333
        36        1.6780           -0.5297608             -14.4155
        37        1.4406           -0.5185988             -14.1118 (HOMO)
        38        1.2024           -0.5101196             -13.8811 (LUMO)
        39        0.0074           -0.4150413             -11.2938
        40        0.0011           -0.3854038             -10.4874
        41        0.0011           -0.3853179             -10.4850
        42        0.0003           -0.3657131              -9.9516
        43        0.0000           -0.2867851              -7.8038
        44                         -0.1811280              -4.9287
        45                         -0.1465548              -3.9880
        46                         -0.0737829              -2.0077
        47                         -0.0708806              -1.9288
        48                         -0.0221723              -0.6033
       ...                                ...                  ...
        67                          0.7187567              19.5584
      -------------------------------------------------------------
                  HL-Gap            0.0084793 Eh            0.2307 eV

     #   Z          covCN         q      C6AA      α(0)
     1   6 C        3.693    -0.096    22.513     6.789
     2   7 N        2.824     0.087    19.741     6.599
     3   6 C        3.011     0.067    26.481     8.441
     4   7 N        2.787    -0.081    22.823     7.095
     5   6 C        2.967     0.142    24.913     8.187
     6   6 C        3.099     0.004    27.803     8.641
     7   6 C        2.758     0.283    22.205     7.717
     8   8 O        0.858    -0.379    21.272     6.184
     9   7 N        1.839    -0.161    25.287     7.452
    10   6 C        3.690    -0.041    21.505     6.637
    11   6 C        0.856     0.068    33.134     9.605
    12   8 O        0.856    -0.030    15.517     5.281
    13   7 N        1.825    -0.164    25.349     7.460
    14   6 C        3.696    -0.043    21.526     6.637
    15   1 H        0.924     0.106     1.731     2.057
    16   1 H        0.925     0.102     1.764     2.077
    17   1 H        0.924     0.146     1.420     1.864
    18   1 H        0.926     0.119     1.622     1.991
    19   1 H        0.923     0.122     1.598     1.977
    20   1 H        0.922     0.135     1.497     1.913
    21   1 H        0.924     0.124     1.585     1.969
    22   1 H        0.924     0.081     1.974     2.197
    23   1 H        0.924     0.085     1.928     2.172
    24   1 H        0.925     0.106     1.730     2.057
    25   1 H        0.860     0.221     1.006     1.571

Wiberg/Mayer (AO) data.
largest (>0.10) Wiberg bond orders for each atom

     #   Z sym  total        # sym  WBO       # sym  WBO       # sym  WBO
 ---------------------------------------------------------------------------
     1   6 C    3.898 --     2 N    0.982    16 H    0.964    15 H    0.956
                            17 H    0.944
     2   7 N    3.710 --     3 C    1.366     6 C    1.213     1 C    0.982
     3   6 C    3.819 --     2 N    1.366     4 N    1.327    18 H    0.951
     4   7 N    3.521 --     3 C    1.327     5 C    1.068    25 H    0.923
     5   6 C    3.945 --    13 N    1.530     6 C    1.208     4 N    1.068
     6   6 C    3.692 --     2 N    1.213     5 C    1.208     7 C    1.032
     7   6 C    3.924 --     8 O    1.522     9 N    1.299     6 C    1.032
     8   8 O    1.757 --     7 C    1.522     9 N    0.116
     9   7 N    2.610 --     7 C    1.299    10 C    1.131     8 O    0.116
    10   6 C    3.845 --     9 N    1.131    19 H    0.901    21 H    0.895
                            20 H    0.851
    11   6 C    2.680 --    12 O    2.597
    12   8 O    2.614 --    11 C    2.597
    13   7 N    2.731 --     5 C    1.530    14 C    1.063
    14   6 C    3.914 --    13 N    1.063    24 H    0.954    22 H    0.933
                            23 H    0.929
    15   1 H    0.985 --     1 C    0.956
    16   1 H    0.987 --     1 C    0.964
    17   1 H    0.976 --     1 C    0.944
    18   1 H    0.984 --     3 C    0.951
    19   1 H    0.908 --    10 C    0.901
    20   1 H    0.923 --    10 C    0.851
    21   1 H    0.918 --    10 C    0.895
    22   1 H    0.950 --    14 C    0.933
    23   1 H    0.947 --    14 C    0.929
    24   1 H    0.965 --    14 C    0.954
    25   1 H    0.950 --     4 N    0.923
 ---------------------------------------------------------------------------

molecular dipole:
                 x           y           z       tot (Debye)
 q only:        1.382      -1.599       0.094
   full:        1.738      -2.351       0.098       7.434

           -------------------------------------------------
          | TOTAL ENERGY              -42.046258572223 Eh   |
          | GRADIENT NORM               0.002178584320 Eh/α |
          | HOMO-LUMO GAP               0.230732269963 eV   |
           -------------------------------------------------

 * finished run on 2024/06/05 at 19:57:54.163
