   * xtb version 6.6.1 (8d0f1dd) compiled by 'conda@1efc2f54142f' on 2023-08-01
          program call               : xtb struc.xyz --opt loose --input .xc1 --gfn2

   ID    Z sym.   atoms
    1    6 C      1, 3, 5-7, 10, 11, 14
    2    7 N      2, 4, 9, 13
    3    8 O      8, 12
    4    1 H      15-25
constraining bond 1 7 to    6.0000000 Å, actual value:    3.1529964 Å

          :  Hamiltonian                  GFN2-xTB          :
 * total energy  :    15.6421599 Eh     change       -0.6650680E-10 Eh
 * total energy  :    -8.7320530 Eh     change       -0.2437421E+02 Eh
 * total energy  :   -24.1370671 Eh     change       -0.1540501E+02 Eh
 * total energy  :   -34.0621699 Eh     change       -0.9925103E+01 Eh
 * total energy  :   -39.5311814 Eh     change       -0.5469012E+01 Eh
 * total energy  :   -41.1617282 Eh     change       -0.1630547E+01 Eh
 * total energy  :   -41.3687254 Eh     change       -0.2069973E+00 Eh
 * total energy  :   -41.4692334 Eh     change       -0.1005079E+00 Eh
 * total energy  :   -41.5316761 Eh     change       -0.6244270E-01 Eh
 * total energy  :   -41.5759701 Eh     change       -0.4429405E-01 Eh
 * total energy  :   -42.0609126 Eh     change       -0.1255932E-03 Eh
 * total energy  :   -42.0608276 Eh     change        0.8499356E-04 Eh
 * total energy  :   -42.0616603 Eh     change       -0.8326395E-03 Eh
 * total energy  :   -42.0617258 Eh     change       -0.6552283E-04 Eh
 * total energy  :   -42.0619187 Eh     change       -0.1928786E-03 Eh
 * total energy  :   -42.0620241 Eh     change       -0.1054120E-03 Eh
 * total energy  :   -42.0621257 Eh     change       -0.1016063E-03 Eh
 * total energy  :   -42.0621620 Eh     change       -0.3628827E-04 Eh
 * total energy  :   -42.0622047 Eh     change       -0.4276337E-04 Eh
   *** GEOMETRY OPTIMIZATION CONVERGED AFTER 60 ITERATIONS ***

 final structure:
================
25
 xtb: 6.6.1 (8d0f1dd)
C            5.57552757684049        0.93673358870532        0.14490414445055
N            1.90342289607326        0.33767406625842       -0.02846174039800
C            2.29741889572117       -0.92888691353154       -0.01579057272678
N            1.20953115902180       -1.72962184151430       -0.01023124323296
C            0.09415984649271       -0.93816963544531       -0.01934544208270
C            0.53257299579482        0.37535302748906       -0.03197877348540
C           -0.39572870512566        1.49655340638424       -0.02877258126852
O           -0.08253962363708        2.66012879327411       -0.01819435919833
N           -1.71504517576265        1.04661305901069       -0.03676459635323
C           -2.76468519881083        2.05899054231658       -0.04108203285472
C           -2.17583366900190       -0.25693248680962       -0.02076470375244
O           -3.34236786227246       -0.52859767841598       -0.01189885551866
N           -1.20108121289890       -1.28517590155751       -0.01558717536793
C           -1.64136913069362       -2.66662366039168        0.00347015169121
H            6.06261620849524        1.16774556136670        1.07951324438774
H            6.13643968350728        1.02721045592585       -0.77473728141080
H            2.50543405695874        1.15344385825553       -0.03222318475889
H            3.31569630946597       -1.26525853488042       -0.01050924957924
H           -2.29042544096313        3.03695870576057       -0.03602525427626
H           -3.38458020456887        1.94235517922695       -0.92935028305170
H           -3.39617439727937        1.93902889376282        0.83832862194146
H           -1.28246401881561       -3.17135793395246        0.90069559796786
H           -1.29793002983497       -3.19092844678647       -0.88860745377593
H           -2.73099232596471       -2.65895721635021        0.01284133951897
H            1.22882888138955       -2.74004034639987        0.00174330102555

          :  Hamiltonian                  GFN2-xTB          :
         :: total energy             -42.062204723567 Eh    ::
         :: gradient norm              0.002592523227 Eh/a0 ::
         :: HOMO-LUMO gap              0.925071711497 eV    ::
         :: SCC energy               -42.581821861561 Eh    ::
         :: -> dispersion             -0.020851662858 Eh    ::
         :: repulsion energy           0.519578988451 Eh    ::

    * Orbital Energies and Occupations

         #    Occupation            Energy/Eh            Energy/eV
      -------------------------------------------------------------
         1        2.0000           -0.9193639             -25.0172
       ...           ...                  ...                  ...
        25        2.0000           -0.6641210             -18.0717
        26        2.0000           -0.6629991             -18.0411
        27        1.9999           -0.6534002             -17.7799
        28        1.9998           -0.6302224             -17.1492
        29        1.9997           -0.6245014             -16.9935
        30        1.9995           -0.6187233             -16.8363
        31        1.9982           -0.5978081             -16.2672
        32        1.9979           -0.5950701             -16.1927
        33        1.9933           -0.5770108             -15.7013
        34        1.9821           -0.5613734             -15.2757
        35        1.9784           -0.5583076             -15.1923
        36        1.9768           -0.5571671             -15.1613
        37        1.4736           -0.5031112             -13.6904 (HOMO)
        38        0.4929           -0.4691155             -12.7653 (LUMO)
        39        0.0954           -0.4393981             -11.9566
        40        0.0114           -0.4051026             -11.0234
        41        0.0014           -0.3716972             -10.1144
        42        0.0000           -0.2874456              -7.8218
        43                         -0.2066560              -5.6234
        44                         -0.1964668              -5.3461
        45                         -0.1464531              -3.9852
        46                         -0.1262762              -3.4361
        47                         -0.0789678              -2.1488
        48                         -0.0399270              -1.0865
       ...                                ...                  ...
        67                          0.5623697              15.3029
      -------------------------------------------------------------
                  HL-Gap            0.0339958 Eh            0.9251 eV

     #   Z          covCN         q      C6AA      α(0)
     1   6 C        1.851    -0.160    35.729     9.656
     2   7 N        2.799    -0.003    21.327     6.859
     3   6 C        3.033     0.068    26.457     8.437
     4   7 N        2.801    -0.047    22.148     6.990
     5   6 C        3.042     0.117    25.385     8.264
     6   6 C        3.106    -0.011    28.160     8.695
     7   6 C        2.764     0.272    22.408     7.752
     8   8 O        0.858    -0.352    20.754     6.108
     9   7 N        2.745    -0.083    22.851     7.100
    10   6 C        3.710    -0.063    21.857     6.681
    11   6 C        2.728     0.317    21.607     7.610
    12   8 O        0.859    -0.353    20.765     6.110
    13   7 N        2.738    -0.056    22.330     7.018
    14   6 C        3.696    -0.074    22.091     6.724
    15   1 H        0.926     0.099     1.792     2.093
    16   1 H        0.926     0.098     1.804     2.100
    17   1 H        0.860     0.253     0.873     1.463
    18   1 H        0.926     0.138     1.477     1.900
    19   1 H        0.925     0.114     1.662     2.016
    20   1 H        0.925     0.100     1.788     2.091
    21   1 H        0.925     0.100     1.784     2.089
    22   1 H        0.924     0.083     1.952     2.185
    23   1 H        0.924     0.083     1.947     2.182
    24   1 H        0.925     0.130     1.538     1.939
    25   1 H        0.860     0.233     0.951     1.528

Wiberg/Mayer (AO) data.
largest (>0.10) Wiberg bond orders for each atom

     #   Z sym  total        # sym  WBO       # sym  WBO       # sym  WBO
 ---------------------------------------------------------------------------
     1   6 C    1.910 --    15 H    0.954    16 H    0.954
     2   7 N    3.629 --     3 C    1.399     6 C    1.176    17 H    0.908
     3   6 C    3.846 --     2 N    1.399     4 N    1.292    18 H    0.949
     4   7 N    3.596 --     3 C    1.292     5 C    1.183    25 H    0.917
     5   6 C    3.952 --     6 C    1.359    13 N    1.225     4 N    1.183
     6   6 C    3.909 --     5 C    1.359     2 N    1.176     7 C    1.052
     7   6 C    3.951 --     8 O    1.706     9 N    1.103     6 C    1.052
     8   8 O    2.045 --     7 C    1.706     9 N    0.153
     9   7 N    3.557 --    11 C    1.126     7 C    1.103    10 C    0.968
                             8 O    0.153    12 O    0.137
    10   6 C    3.910 --    19 H    0.968     9 N    0.968    21 H    0.964
                            20 H    0.963
    11   6 C    3.957 --    12 O    1.714     9 N    1.126    13 N    1.026
    12   8 O    2.065 --    11 C    1.714     9 N    0.137    13 N    0.121
    13   7 N    3.554 --     5 C    1.225    11 C    1.026    14 C    0.974
                            12 O    0.121
    14   6 C    3.923 --    13 N    0.974    22 H    0.971    23 H    0.971
                            24 H    0.963
    15   1 H    0.956 --     1 C    0.954
    16   1 H    0.956 --     1 C    0.954
    17   1 H    0.935 --     2 N    0.908
    18   1 H    0.980 --     3 C    0.949
    19   1 H    0.985 --    10 C    0.968
    20   1 H    0.984 --    10 C    0.963
    21   1 H    0.984 --    10 C    0.964
    22   1 H    0.990 --    14 C    0.971
    23   1 H    0.990 --    14 C    0.971
    24   1 H    0.983 --    14 C    0.963
    25   1 H    0.945 --     4 N    0.917
 ---------------------------------------------------------------------------

molecular dipole:
                 x           y           z       tot (Debye)
 q only:        2.254      -2.010      -0.022
   full:        3.045      -2.224      -0.014       9.583

           -------------------------------------------------
          | TOTAL ENERGY              -42.062204723567 Eh   |
          | GRADIENT NORM               0.002592523227 Eh/α |
          | HOMO-LUMO GAP               0.925071711497 eV   |
           -------------------------------------------------

 * finished run on 2024/06/05 at 20:00:06.949
