   * xtb version 6.6.1 (8d0f1dd) compiled by 'conda@1efc2f54142f' on 2023-08-01
          program call               : xtb xtbopt.xyz --opt crude --input .xc2 --gfn2

   ID    Z sym.   atoms
    1    6 C      1, 3, 5-7, 10, 11, 14
    2    7 N      2, 4, 9, 13
    3    8 O      8, 12
    4    1 H      15-25
########################################################################
[WARNING] Please study the warnings concerning your input carefully
-1- readin_getIntValue: could not parse ''
########################################################################

          :  Hamiltonian                  GFN2-xTB          :
 * total energy  :   -40.3074425 Eh     change        0.2131628E-13 Eh
 * total energy  :   -42.1397201 Eh     change       -0.1832278E+01 Eh
 * total energy  :   -42.1592386 Eh     change       -0.1951850E-01 Eh
 * total energy  :   -42.1607385 Eh     change       -0.1499880E-02 Eh
 * total energy  :   -42.1615836 Eh     change       -0.8451654E-03 Eh
 * total energy  :   -42.1622248 Eh     change       -0.6411578E-03 Eh
 * total energy  :   -42.1632594 Eh     change       -0.1034594E-02 Eh
 * total energy  :   -42.1639822 Eh     change       -0.7228174E-03 Eh
 * total energy  :   -42.1643129 Eh     change       -0.3307111E-03 Eh
   *** GEOMETRY OPTIMIZATION CONVERGED AFTER 9 ITERATIONS ***

 final structure:
================
25
 xtb: 6.6.1 (8d0f1dd)
C            3.25692692010220        1.05651116194326        0.01986161846385
N            2.31073512034424       -0.02311042721049       -0.01850108279720
C            2.57777893756616       -1.32466741892925        0.00394178975882
N            1.42210108636790       -2.03583254535333       -0.01463712880943
C            0.39125515045802       -1.15144922219510       -0.04771716087874
C            0.94326481754210        0.13415679724094       -0.04996070113204
C            0.14314576962251        1.28758637449038       -0.06665200831025
O           -1.70235877833033        3.04332587492830        0.99687883917618
N           -1.16739739385426        1.02102787764296       -0.08384956297794
C           -2.07620582261906        2.18614792106860       -0.01536681146028
C           -1.79073500857079       -0.23403447624902       -0.12787267913867
O           -2.97821755131674       -0.37219481353625       -0.20591531509522
N           -0.93370031785605       -1.35425859434555       -0.08771088677370
C           -1.51221312774866       -2.68379421879975       -0.08283091132182
H            3.62546398574862        1.20335403607676        1.03674275318307
H            4.10121130352077        0.84569255878134       -0.63439096774461
H            2.75306878531495        1.96507294457371       -0.30389753805874
H            3.55727177229222       -1.75831996723844        0.03137407572771
H           -2.06934535174785        2.67251875116478       -0.99514347069600
H           -3.07830049897692        1.81495172574096        0.20807923365334
H           -0.96044033536708        3.60146926598197        0.71973233262995
H           -1.22409734152776       -3.21841418491335        0.82256300456232
H           -1.19517615944148       -3.24044112323951       -0.96522735691103
H           -2.59543905265573       -2.57256037623745       -0.10342152198460
H            1.36183460523273       -3.04449937978689       -0.00490692516357

          :  Hamiltonian                  GFN2-xTB          :
         :: total energy             -42.164312901452 Eh    ::
         :: gradient norm              0.009982076982 Eh/a0 ::
         :: HOMO-LUMO gap              1.765326064521 eV    ::
         :: SCC energy               -42.672141181631 Eh    ::
         :: -> dispersion             -0.022152207820 Eh    ::
         :: repulsion energy           0.507721728134 Eh    ::

    * Orbital Energies and Occupations

         #    Occupation            Energy/Eh            Energy/eV
      -------------------------------------------------------------
         1        2.0000           -0.9056483             -24.6439
       ...           ...                  ...                  ...
        25        2.0000           -0.6656694             -18.1138
        26        2.0000           -0.6610558             -17.9882
        27        2.0000           -0.6457936             -17.5729
        28        1.9999           -0.6351269             -17.2827
        29        1.9999           -0.6302068             -17.1488
        30        1.9998           -0.6238890             -16.9769
        31        1.9998           -0.6192290             -16.8501
        32        1.9996           -0.6095639             -16.5871
        33        1.9982           -0.5869667             -15.9722
        34        1.9948           -0.5705121             -15.5244
        35        1.9890           -0.5585690             -15.1994
        36        1.9850           -0.5536867             -15.0666
        37        1.7758           -0.5091081             -13.8535 (HOMO)
        38        0.2326           -0.4442335             -12.0882 (LUMO)
        39        0.0230           -0.4058423             -11.0435
        40        0.0028           -0.3725872             -10.1386
        41        0.0000           -0.2858409              -7.7781
        42                         -0.2012424              -5.4761
        43                         -0.1921434              -5.2285
        44                         -0.1380814              -3.7574
        45                         -0.1201322              -3.2690
        46                         -0.0740758              -2.0157
        47                         -0.0453648              -1.2344
        48                         -0.0413969              -1.1265
       ...                                ...                  ...
        67                          0.5382002              14.6452
      -------------------------------------------------------------
                  HL-Gap            0.0648745 Eh            1.7653 eV

     #   Z          covCN         q      C6AA      α(0)
     1   6 C        3.692    -0.089    22.393     6.771
     2   7 N        2.828     0.068    20.048     6.650
     3   6 C        3.053     0.051    26.815     8.493
     4   7 N        2.783    -0.062    22.446     7.037
     5   6 C        3.049     0.115    25.428     8.270
     6   6 C        3.121     0.022    27.343     8.564
     7   6 C        1.924    -0.115    34.297     9.458
     8   8 O        1.657    -0.389    20.641     6.133
     9   7 N        2.757    -0.030    21.827     6.939
    10   6 C        3.634     0.129    18.843     6.247
    11   6 C        2.722     0.313    21.677     7.622
    12   8 O        0.859    -0.363    20.962     6.139
    13   7 N        2.738    -0.044    22.099     6.982
    14   6 C        3.697    -0.070    22.025     6.713
    15   1 H        0.924     0.108     1.710     2.045
    16   1 H        0.925     0.103     1.760     2.074
    17   1 H        0.925     0.120     1.612     1.985
    18   1 H        0.926     0.118     1.632     1.998
    19   1 H        0.924     0.069     2.096     2.264
    20   1 H        0.924     0.111     1.686     2.030
    21   1 H        0.804     0.323     0.655     1.272
    22   1 H        0.924     0.082     1.958     2.188
    23   1 H        0.924     0.082     1.959     2.189
    24   1 H        0.925     0.125     1.571     1.960
    25   1 H        0.860     0.224     0.991     1.559

Wiberg/Mayer (AO) data.
largest (>0.10) Wiberg bond orders for each atom

     #   Z sym  total        # sym  WBO       # sym  WBO       # sym  WBO
 ---------------------------------------------------------------------------
     1   6 C    3.925 --     2 N    0.990    17 H    0.968    16 H    0.967
                            15 H    0.955
     2   7 N    3.647 --     3 C    1.387     6 C    1.135     1 C    0.990
     3   6 C    3.807 --     2 N    1.387     4 N    1.256    18 H    0.954
     4   7 N    3.585 --     3 C    1.256     5 C    1.203    25 H    0.919
     5   6 C    3.907 --     6 C    1.281    13 N    1.230     4 N    1.203
     6   6 C    3.898 --     5 C    1.281     7 C    1.239     2 N    1.135
     7   6 C    2.782 --     9 N    1.356     6 C    1.239
     8   8 O    2.013 --    10 C    1.055    21 H    0.879
     9   7 N    3.598 --     7 C    1.356    11 C    1.073    10 C    0.920
                            12 O    0.116
    10   6 C    3.916 --     8 O    1.055    19 H    0.951    20 H    0.951
                             9 N    0.920
    11   6 C    3.937 --    12 O    1.713     9 N    1.073    13 N    1.050
    12   8 O    2.054 --    11 C    1.713    13 N    0.131     9 N    0.116
    13   7 N    3.563 --     5 C    1.230    11 C    1.050    14 C    0.974
                            12 O    0.131
    14   6 C    3.925 --    13 N    0.974    22 H    0.970    23 H    0.970
                            24 H    0.965
    15   1 H    0.983 --     1 C    0.955
    16   1 H    0.987 --     1 C    0.967
    17   1 H    0.985 --     1 C    0.968
    18   1 H    0.985 --     3 C    0.954
    19   1 H    0.988 --    10 C    0.951
    20   1 H    0.985 --    10 C    0.951
    21   1 H    0.895 --     8 O    0.879
    22   1 H    0.991 --    14 C    0.970
    23   1 H    0.991 --    14 C    0.970
    24   1 H    0.984 --    14 C    0.965
    25   1 H    0.949 --     4 N    0.919
 ---------------------------------------------------------------------------

molecular dipole:
                 x           y           z       tot (Debye)
 q only:        3.039      -1.272      -0.318
   full:        3.338      -2.038      -0.486      10.018

           -------------------------------------------------
          | TOTAL ENERGY              -42.164312901452 Eh   |
          | GRADIENT NORM               0.009982076982 Eh/α |
          | HOMO-LUMO GAP               1.765326064521 eV   |
           -------------------------------------------------

 * finished run on 2024/06/05 at 19:58:36.225
