   * xtb version 6.6.1 (8d0f1dd) compiled by 'conda@1efc2f54142f' on 2023-08-01
          program call               : xtb xtbopt.xyz --opt crude --input .xc2 --gfn2

   ID    Z sym.   atoms
    1    6 C      1, 3, 5-7, 10, 11, 14
    2    7 N      2, 4, 9, 13
    3    8 O      8, 12
    4    1 H      15-25

          :  Hamiltonian                  GFN2-xTB          :
 * total energy  :   -41.9891702 Eh     change       -0.7105427E-13 Eh
   *** GEOMETRY OPTIMIZATION CONVERGED AFTER 1 ITERATIONS ***

 final structure:
================
25
 xtb: 6.6.1 (8d0f1dd)
C            4.42486151511347        1.33768633451464        0.07534017059110
N            3.16152964882174        0.62304634177380        0.08298198169362
C            3.19541088130473       -0.72532623954192       -0.08494514018662
N            2.11532117587391       -1.43298507792311       -0.10874041113779
C            1.13915518796973       -2.05194686248269        0.15035647353497
C            2.02467730161159        1.25067536660194        0.27272018884136
C            1.19448524102036        2.17484349945358        0.44403902069136
O            0.26393739347501        2.87940360638845        0.59577590700931
N           -2.28072238090379        2.66954095442049       -0.87969216516104
C           -3.40091200032171        2.63191466132621       -0.35256035680854
C           -2.46005401519548       -1.35343132319039        0.23627219118551
O           -2.48754589867628       -0.20102109420922        0.36154171515475
N           -2.18866574815330       -2.49622838881089        0.05440010696593
C           -2.64364712496850       -3.83665315799479        0.02820036877811
H            4.98342437731727        1.12450161111402        0.98915709352753
H            5.02480958084853        1.03191178884823       -0.78218012717437
H            4.23844490457020        2.40795814730120        0.01974874512579
H            4.14423868350032       -1.20741666097153       -0.25572598875605
H           -1.43985847811195        2.84114245431087       -0.32951706011916
H           -4.26791028504625        2.45043065307354       -0.97935024984039
H           -3.60656308765453        2.76824318284646        0.71437276562955
H           -2.09479432242992       -4.40892271990842        0.77821741374736
H           -2.43970810957450       -4.25535236147469       -0.95841291551101
H           -3.71250643766113       -3.90645350797202        0.23362990746323
H            0.27302351136950       -2.49732266589478       -0.27445801733923

          :  Hamiltonian                  GFN2-xTB          :
         :: total energy             -41.989170248652 Eh    ::
         :: gradient norm              0.003817696531 Eh/a0 ::
         :: HOMO-LUMO gap              1.029285868001 eV    ::
         :: SCC energy               -42.681857170654 Eh    ::
         :: -> dispersion             -0.015486064688 Eh    ::
         :: repulsion energy           0.692633250677 Eh    ::

    * Orbital Energies and Occupations

         #    Occupation            Energy/Eh            Energy/eV
      -------------------------------------------------------------
         1        2.0000           -0.8569146             -23.3178
       ...           ...                  ...                  ...
        25        2.0000           -0.6479604             -17.6319
        26        1.9999           -0.6411787             -17.4474
        27        1.9998           -0.6273410             -17.0708
        28        1.9998           -0.6256325             -17.0243
        29        1.9998           -0.6234817             -16.9658
        30        1.9995           -0.6090017             -16.5718
        31        1.9992           -0.6029611             -16.4074
        32        1.9991           -0.5997529             -16.3201
        33        1.9710           -0.5453131             -14.8387
        34        1.9518           -0.5371087             -14.6155
        35        1.9104           -0.5269440             -14.3389
        36        1.8588           -0.5193098             -14.1311
        37        1.6587           -0.5035339             -13.7019 (HOMO)
        38        0.6168           -0.4657083             -12.6726 (LUMO)
        39        0.0323           -0.4134241             -11.2498
        40        0.0019           -0.3681262             -10.0172
        41        0.0012           -0.3611571              -9.8276
        42        0.0001           -0.3148040              -8.5663
        43        0.0000           -0.2941201              -8.0034
        44        0.0000           -0.2873520              -7.8192
        45        0.0000           -0.2480735              -6.7504
        46                         -0.1492877              -4.0623
        47                         -0.0805855              -2.1928
        48                         -0.0701659              -1.9093
       ...                                ...                  ...
        67                          1.2206496              33.2156
      -------------------------------------------------------------
                  HL-Gap            0.0378256 Eh            1.0293 eV

     #   Z          covCN         q      C6AA      α(0)
     1   6 C        3.711    -0.087    22.295     6.748
     2   7 N        2.737     0.118    19.224     6.512
     3   6 C        2.810     0.030    27.313     8.562
     4   7 N        1.830     0.088    20.356     6.686
     5   6 C        1.845    -0.003    31.227     9.027
     6   6 C        1.948    -0.089    33.516     9.349
     7   6 C        1.837     0.223    25.929     8.226
     8   8 O        0.856    -0.252    18.931     5.834
     9   7 N        1.770    -0.173    25.521     7.480
    10   6 C        2.759     0.059    26.663     8.456
    11   6 C        1.770     0.312    24.218     7.956
    12   8 O        0.856    -0.278    19.393     5.904
    13   7 N        1.820    -0.173    25.543     7.489
    14   6 C        3.686    -0.030    21.314     6.609
    15   1 H        0.924     0.100     1.787     2.091
    16   1 H        0.924     0.096     1.818     2.109
    17   1 H        0.925     0.101     1.774     2.083
    18   1 H        0.926     0.111     1.687     2.031
    19   1 H        0.860     0.223     0.994     1.562
    20   1 H        0.925     0.111     1.690     2.033
    21   1 H        0.924     0.095     1.827     2.114
    22   1 H        0.924     0.086     1.916     2.164
    23   1 H        0.924     0.087     1.913     2.163
    24   1 H        0.924     0.080     1.983     2.202
    25   1 H        0.927     0.163     1.304     1.786

Wiberg/Mayer (AO) data.
largest (>0.10) Wiberg bond orders for each atom

     #   Z sym  total        # sym  WBO       # sym  WBO       # sym  WBO
 ---------------------------------------------------------------------------
     1   6 C    3.929 --    17 H    0.976     2 N    0.971    16 H    0.965
                            15 H    0.958
     2   7 N    3.563 --     6 C    1.302     3 C    1.199     1 C    0.971
     3   6 C    3.826 --     4 N    1.352     2 N    1.199    18 H    0.929
                             5 C    0.167
     4   7 N    3.653 --     5 C    2.249     3 C    1.352
     5   6 C    3.487 --     4 N    2.249    25 H    0.921     3 C    0.167
     6   6 C    3.560 --     7 C    1.905     2 N    1.302     8 O    0.197
     7   6 C    3.806 --     6 C    1.905     8 O    1.815
     8   8 O    2.138 --     7 C    1.815     6 C    0.197
     9   7 N    2.967 --    10 C    2.060    19 H    0.879
    10   6 C    3.897 --     9 N    2.060    20 H    0.931    21 H    0.904
    11   6 C    3.938 --    13 N    1.987    12 O    1.881
    12   8 O    2.290 --    11 C    1.881    13 N    0.364
    13   7 N    3.370 --    11 C    1.987    14 C    1.010    12 O    0.364
    14   6 C    3.934 --    13 N    1.010    24 H    0.961    23 H    0.961
                            22 H    0.960
    15   1 H    0.978 --     1 C    0.958
    16   1 H    0.983 --     1 C    0.965
    17   1 H    0.988 --     1 C    0.976
    18   1 H    0.985 --     3 C    0.929
    19   1 H    0.928 --     9 N    0.879
    20   1 H    0.952 --    10 C    0.931
    21   1 H    0.915 --    10 C    0.904
    22   1 H    0.984 --    14 C    0.960
    23   1 H    0.984 --    14 C    0.961
    24   1 H    0.986 --    14 C    0.961
    25   1 H    0.960 --     5 C    0.921
 ---------------------------------------------------------------------------

molecular dipole:
                 x           y           z       tot (Debye)
 q only:        1.811      -1.206      -0.282
   full:        1.681      -1.311      -0.071       5.421

           -------------------------------------------------
          | TOTAL ENERGY              -41.989170248652 Eh   |
          | GRADIENT NORM               0.003817696531 Eh/α |
          | HOMO-LUMO GAP               1.029285868001 eV   |
           -------------------------------------------------

 * finished run on 2024/06/05 at 19:59:12.541
