   * xtb version 6.6.1 (8d0f1dd) compiled by 'conda@1efc2f54142f' on 2023-08-01
          program call               : xtb struc.xyz --opt loose --input .xc1 --gfn2

   ID    Z sym.   atoms
    1    7 N      1, 17
    2    6 C      2-6, 8, 9, 11-16, 18-23, 25, 26, 28-33
    3    8 O      7, 10, 24, 27
    4    1 H      34-72
constraining bond 7 36 to    2.6333300 Å, actual value:    1.9963770 Å

          :  Hamiltonian                  GFN2-xTB          :
 * total energy  :   -99.4765716 Eh     change       -0.4035485E-08 Eh
 * total energy  :   -99.5942103 Eh     change       -0.1176387E+00 Eh
 * total energy  :   -99.7277192 Eh     change       -0.1335090E+00 Eh
 * total energy  :   -98.0840973 Eh     change        0.1643622E+01 Eh
 * total energy  :   -99.7787269 Eh     change       -0.1694630E+01 Eh
 * total energy  :   -99.8098185 Eh     change       -0.3109154E-01 Eh
 * total energy  :   -99.8088186 Eh     change        0.9998766E-03 Eh
 * total energy  :   -99.8186434 Eh     change       -0.9824778E-02 Eh
 * total energy  :   -99.8214647 Eh     change       -0.2821364E-02 Eh
 * total energy  :   -99.8242593 Eh     change       -0.2794538E-02 Eh
 * total energy  :   -99.8490321 Eh     change       -0.7376055E-03 Eh
 * total energy  :   -99.8493577 Eh     change       -0.3256716E-03 Eh
 * total energy  :   -99.8497221 Eh     change       -0.3643594E-03 Eh
 * total energy  :   -99.8500260 Eh     change       -0.3039065E-03 Eh
 * total energy  :   -99.8501906 Eh     change       -0.1645773E-03 Eh
 * total energy  :   -99.8503539 Eh     change       -0.1633346E-03 Eh
 * total energy  :   -99.8504407 Eh     change       -0.8683698E-04 Eh
 * total energy  :   -99.8504910 Eh     change       -0.5022071E-04 Eh
 * total energy  :   -99.8505349 Eh     change       -0.4391802E-04 Eh
   *** GEOMETRY OPTIMIZATION CONVERGED AFTER 29 ITERATIONS ***

 final structure:
================
72
 xtb: 6.6.1 (8d0f1dd)
N           -1.85886067902132        2.76944943356316        2.26107811283560
C           -1.84311709108522        2.00176453304960        1.27305089393414
C           -2.96634567606839        1.87436146218959        0.27799510789713
C           -3.49762680064175        0.45264494888921        0.28794666683437
C           -4.33200270973911        0.00792228430750       -0.73820572786151
C           -4.84475904763282       -1.26890623321376       -0.70090639961631
O           -5.69804356216708       -1.77440472000128       -1.76176461401360
C           -6.55411149870178       -0.85965336265613       -2.50621495583465
C           -4.57976006527961       -2.15793186084062        0.34754438050934
O           -5.18205229734081       -3.37414476714777        0.25024947153306
C           -4.97217323048179       -4.31621788837683        1.28265965062055
C           -3.75108589987052       -1.71223881883503        1.36879596904953
C           -3.22426098614591       -0.42734114321741        1.32872042982052
C           -2.34872286337804        2.20844382698220       -1.10494585622641
C           -1.40460214820946        1.13124351156513       -1.66897011979044
C           -0.08641977891828        1.09266294545362       -0.99638538725459
N            0.56285203519110       -0.01269352080687       -0.62075626150808
C            1.94920434740064        0.05480888929353       -0.22837671354059
C            2.89055762006467       -0.38322762514029       -1.36775877136950
C            4.31808421608847       -0.15051408799087       -0.96121167099517
C            4.94294687595116        1.05227309288126       -1.24156617772901
C            6.24624424968426        1.28755937814884       -0.83042504485712
C            6.94780933633751        0.32340643626153       -0.12286645692729
O            8.21208689372049        0.44574150497197        0.32977197407982
C            8.91606407095358        1.63890521019676        0.07491358621934
C            6.31491883558437       -0.91464091878135        0.16936892588434
O            7.07057582068325       -1.79775311302933        0.85734237996674
C            6.53502032516984       -3.06026757278066        1.17053461688517
C            5.01259021020443       -1.12770142983367       -0.25118357966723
C           -0.04735722644585       -1.31726094014559       -0.69173628133570
C           -4.16581848284471        2.82865743972753        0.56257643996754
C           -4.82049444671776        2.52068257105893        1.90771307153403
C           -3.78250926501821        4.30522414339214        0.50781786001479
H           -4.60277837182723        0.64694212343674       -1.56270778240827
H           -7.16420442272629       -0.23997154313370       -1.86195527553125
H           -6.12538042040260       -2.35787248081008       -1.46640328841417
H           -5.98099005752911       -0.32311235356894       -3.24780082671910
H           -5.34061537042635       -3.94168606474870        2.24060033966828
H           -5.54153069344812       -5.19649717221422        0.99274791858186
H           -3.91470975133175       -4.57814804431018        1.36794231152260
H           -3.52232466112626       -2.34930427857605        2.20684175478336
H           -2.60799159561733       -0.10219923718370        2.15233660393749
H           -3.15599466880952        2.36401869026064       -1.81995664687020
H           -1.80051404742604        3.14675985525344       -1.02050355479246
H           -1.89364896966149        0.15893611164162       -1.64800910943031
H           -1.22979242370674        1.39109733287367       -2.72121399730961
H           -0.97689000430063        1.37577701388630        0.99456021543286
H            0.46379535047228        2.01797102613356       -0.92210182431616
H            2.11012396841659       -0.58483339833565        0.64386240543902
H            2.19281573837629        1.08136103387790        0.05246980482005
H            2.65649719294010        0.20318332812753       -2.25786052947684
H            2.72670158037129       -1.43749831124261       -1.59447605828566
H            4.41981743493964        1.81680739896715       -1.79581187051981
H            6.70846228046440        2.23076471899000       -1.07087184277923
H            8.42195932131227        2.50152087558571        0.53272268066591
H            9.03468814027412        1.81295494176829       -0.99884880074804
H            9.89581698977920        1.50230915277021        0.52844688863907
H            7.32333047527951       -3.58798597597947        1.70385426572279
H            5.65622303347080       -2.97487592790383        1.81833455089643
H            6.27165958738399       -3.62065284277185        0.26782590058020
H            4.52444499586502       -2.06651601671239       -0.04064904947121
H           -0.19623803761323       -1.63371490822357       -1.72711152682714
H           -1.01494537539333       -1.31270056541971       -0.18340386506066
H            0.59806851176963       -2.04019915504921       -0.19902984203765
H           -4.90527400999690        2.63918693636652       -0.22479583140262
H           -4.12386065230230        2.72553011785690        2.71371089606130
H           -5.13649264775832        1.48167669398973        1.96754177839714
H           -5.69588780880632        3.15077448906107        2.03852103718897
H           -3.00066241513591        4.51662610901815        1.22989666774700
H           -3.44975404825254        4.60250924290552       -0.48274782179251
H           -4.65117237368306        4.90722323249826        0.76026432514523
H           -1.02506725815839        2.79712376427536        2.84023832250577

          :  Hamiltonian                  GFN2-xTB          :
         :: total energy             -99.850534879318 Eh    ::
         :: gradient norm              0.003274352309 Eh/a0 ::
         :: HOMO-LUMO gap              1.041452351506 eV    ::
         :: SCC energy              -100.681513403410 Eh    ::
         :: -> dispersion             -0.075010883294 Eh    ::
         :: repulsion energy           1.442214732306 Eh    ::

    * Orbital Energies and Occupations

         #    Occupation            Energy/Eh            Energy/eV
      -------------------------------------------------------------
         1        2.0000           -0.8793175             -23.9274
       ...           ...                  ...                  ...
        78        1.9992           -0.5261024             -14.3160
        79        1.9991           -0.5236779             -14.2500
        80        1.9991           -0.5233898             -14.2422
        81        1.9988           -0.5196861             -14.1414
        82        1.9986           -0.5171667             -14.0728
        83        1.9980           -0.5115003             -13.9186
        84        1.9979           -0.5105754             -13.8935
        85        1.9978           -0.5100416             -13.8789
        86        1.9934           -0.4924538             -13.4004
        87        1.9841           -0.4784185             -13.0184
        88        1.9654           -0.4660002             -12.6805
        89        1.8848           -0.4462747             -12.1438
        90        1.5730           -0.4226744             -11.5016 (HOMO)
        91        0.4946           -0.3844018             -10.4601 (LUMO)
        92        0.0555           -0.3457013              -9.4070
        93        0.0318           -0.3367161              -9.1625
        94        0.0259           -0.3334363              -9.0733
        95        0.0037           -0.3022474              -8.2246
        96        0.0031           -0.2995679              -8.1517
        97        0.0000           -0.2158112              -5.8725
        98        0.0000           -0.1769859              -4.8160
        99        0.0000           -0.1757206              -4.7816
       100                         -0.1266241              -3.4456
       101                         -0.0882918              -2.4025
       ...                                ...                  ...
       171                          0.5876834              15.9917
      -------------------------------------------------------------
                  HL-Gap            0.0382727 Eh            1.0415 eV

     #   Z          covCN         q      C6AA      α(0)
     1   7 N        1.774    -0.281    28.102     7.850
     2   6 C        2.827     0.096    25.856     8.332
     3   6 C        3.907     0.006    20.419     6.423
     4   6 C        2.978     0.007    27.853     8.657
     5   6 C        2.920    -0.054    29.332     8.881
     6   6 C        2.849     0.067    26.493     8.436
     7   8 O        2.499    -0.116    16.036     5.408
     8   6 C        2.698    -0.136    31.451     9.179
     9   6 C        2.860     0.121    25.328     8.249
    10   8 O        1.705    -0.276    18.579     5.820
    11   6 C        3.643     0.029    20.435     6.498
    12   6 C        2.918    -0.070    29.742     8.943
    13   6 C        2.924    -0.046    29.132     8.851
    14   6 C        3.812    -0.066    21.760     6.640
    15   6 C        3.802    -0.067    21.786     6.645
    16   6 C        2.842    -0.005    28.150     8.695
    17   7 N        2.729    -0.002    21.307     6.856
    18   6 C        3.755    -0.014    20.887     6.516
    19   6 C        3.808    -0.070    21.830     6.651
    20   6 C        2.970    -0.003    28.086     8.693
    21   6 C        2.922    -0.051    29.255     8.870
    22   6 C        2.914    -0.069    29.714     8.939
    23   6 C        2.865     0.131    25.126     8.217
    24   8 O        1.706    -0.228    17.786     5.694
    25   6 C        3.646     0.027    20.454     6.500
    26   6 C        2.863     0.131    25.135     8.218
    27   8 O        1.706    -0.231    17.828     5.701
    28   6 C        3.645     0.029    20.413     6.494
    29   6 C        2.920    -0.081    30.017     8.984
    30   6 C        3.699    -0.064    21.898     6.693
    31   6 C        3.853    -0.008    20.676     6.467
    32   6 C        3.756    -0.118    22.824     6.812
    33   6 C        3.755    -0.120    22.850     6.816
    34   1 H        0.926     0.075     2.032     2.229
    35   1 H        0.925     0.022     2.701     2.570
    36   1 H        0.811     0.357     0.572     1.187
    37   1 H        0.926     0.033     2.545     2.495
    38   1 H        0.924     0.056     2.246     2.344
    39   1 H        0.925     0.078     1.995     2.209
    40   1 H        0.924     0.052     2.300     2.372
    41   1 H        0.926     0.061     2.191     2.315
    42   1 H        0.926     0.054     2.275     2.359
    43   1 H        0.925     0.058     2.223     2.332
    44   1 H        0.925     0.057     2.229     2.335
    45   1 H        0.925     0.057     2.231     2.336
    46   1 H        0.924     0.075     2.034     2.230
    47   1 H        0.923     0.002     3.023     2.719
    48   1 H        0.926     0.063     2.162     2.299
    49   1 H        0.924     0.062     2.170     2.304
    50   1 H        0.924     0.066     2.128     2.281
    51   1 H        0.924     0.053     2.284     2.364
    52   1 H        0.924     0.052     2.293     2.368
    53   1 H        0.926     0.042     2.417     2.431
    54   1 H        0.926     0.055     2.253     2.347
    55   1 H        0.924     0.051     2.306     2.375
    56   1 H        0.924     0.053     2.283     2.363
    57   1 H        0.925     0.079     1.986     2.204
    58   1 H        0.925     0.079     1.992     2.207
    59   1 H        0.924     0.045     2.382     2.413
    60   1 H        0.924     0.049     2.328     2.386
    61   1 H        0.926     0.043     2.405     2.425
    62   1 H        0.924     0.071     2.079     2.255
    63   1 H        0.924     0.068     2.109     2.271
    64   1 H        0.925     0.076     2.018     2.222
    65   1 H        0.924     0.033     2.540     2.493
    66   1 H        0.925     0.068     2.104     2.268
    67   1 H        0.925     0.027     2.624     2.533
    68   1 H        0.925     0.050     2.318     2.381
    69   1 H        0.925     0.063     2.161     2.299
    70   1 H        0.925     0.035     2.513     2.479
    71   1 H        0.925     0.054     2.275     2.358
    72   1 H        0.860     0.153     1.384     1.843

Wiberg/Mayer (AO) data.
largest (>0.10) Wiberg bond orders for each atom

     #   Z sym  total        # sym  WBO       # sym  WBO       # sym  WBO
 ---------------------------------------------------------------------------
     1   7 N    3.023 --     2 C    1.946    72 H    0.945
     2   6 C    3.922 --     1 N    1.946     3 C    0.993    47 H    0.912
     3   6 C    3.981 --     2 C    0.993     4 C    0.978    14 C    0.956
                            31 C    0.942
     4   6 C    3.961 --    13 C    1.410     5 C    1.368     3 C    0.978
     5   6 C    3.946 --     6 C    1.432     4 C    1.368    34 H    0.953
     6   6 C    3.819 --     5 C    1.432     9 C    1.302     7 O    0.862
     7   8 O    2.616 --     6 C    0.862    36 H    0.853     8 C    0.813
     8   6 C    2.835 --    37 H    0.980    35 H    0.979     7 O    0.813
     9   6 C    3.915 --    12 C    1.370     6 C    1.302    10 O    1.068
    10   8 O    2.225 --     9 C    1.068    11 C    0.970
    11   6 C    3.929 --    39 H    0.978    40 H    0.977    38 H    0.977
                            10 O    0.970
    12   6 C    3.953 --    13 C    1.417     9 C    1.370    41 H    0.963
    13   6 C    3.955 --    12 C    1.417     4 C    1.410    42 H    0.962
    14   6 C    3.972 --    15 C    0.983    44 H    0.972    43 H    0.968
                             3 C    0.956
    15   6 C    3.989 --    16 C    1.057    14 C    0.983    45 H    0.963
                            46 H    0.931
    16   6 C    3.522 --    17 N    1.359    15 C    1.057    48 H    0.959
    17   7 N    3.432 --    16 C    1.359    30 C    1.002    18 C    0.990
    18   6 C    3.957 --    17 N    0.990    50 H    0.968    19 C    0.966
                            49 H    0.965
    19   6 C    3.976 --    20 C    1.008    51 H    0.973    52 H    0.972
                            18 C    0.966
    20   6 C    3.953 --    21 C    1.416    29 C    1.376    19 C    1.008
    21   6 C    3.958 --    20 C    1.416    22 C    1.413    53 H    0.968
    22   6 C    3.965 --    21 C    1.413    23 C    1.390    54 H    0.964
    23   6 C    3.904 --    22 C    1.390    26 C    1.227    24 O    1.102
    24   8 O    2.254 --    23 C    1.102    25 C    0.978
    25   6 C    3.932 --    24 O    0.978    57 H    0.977    55 H    0.974
                            56 H    0.973
    26   6 C    3.907 --    29 C    1.401    23 C    1.227    27 O    1.095
    27   8 O    2.253 --    26 C    1.095    28 C    0.981
    28   6 C    3.936 --    27 O    0.981    58 H    0.977    59 H    0.974
                            60 H    0.974
    29   6 C    3.963 --    26 C    1.401    20 C    1.376    61 H    0.963
    30   6 C    3.964 --    17 N    1.002    64 H    0.978    62 H    0.968
                            63 H    0.967
    31   6 C    3.979 --    32 C    1.009    33 C    1.009    65 H    0.964
                             3 C    0.942
    32   6 C    3.987 --    31 C    1.009    67 H    0.984    68 H    0.983
                            66 H    0.977
    33   6 C    3.986 --    31 C    1.009    70 H    0.984    71 H    0.981
                            69 H    0.978
    34   1 H    0.993 --     5 C    0.953
    35   1 H    0.991 --     8 C    0.979
    36   1 H    0.871 --     7 O    0.853
    37   1 H    0.991 --     8 C    0.980
    38   1 H    0.996 --    11 C    0.977
    39   1 H    0.993 --    11 C    0.978
    40   1 H    0.997 --    11 C    0.977
    41   1 H    0.995 --    12 C    0.963
    42   1 H    0.997 --    13 C    0.962
    43   1 H    0.995 --    14 C    0.968
    44   1 H    0.996 --    14 C    0.972
    45   1 H    0.996 --    15 C    0.963
    46   1 H    0.968 --    15 C    0.931
    47   1 H    0.992 --     2 C    0.912
    48   1 H    0.996 --    16 C    0.959
    49   1 H    0.991 --    18 C    0.965
    50   1 H    0.994 --    18 C    0.968
    51   1 H    0.996 --    19 C    0.973
    52   1 H    0.996 --    19 C    0.972
    53   1 H    0.998 --    21 C    0.968
    54   1 H    0.995 --    22 C    0.964
    55   1 H    0.993 --    25 C    0.974
    56   1 H    0.993 --    25 C    0.973
    57   1 H    0.993 --    25 C    0.977
    58   1 H    0.993 --    28 C    0.977
    59   1 H    0.995 --    28 C    0.974
    60   1 H    0.994 --    28 C    0.974
    61   1 H    0.997 --    29 C    0.963
    62   1 H    0.984 --    30 C    0.968
    63   1 H    0.988 --    30 C    0.967
    64   1 H    0.994 --    30 C    0.978
    65   1 H    0.996 --    31 C    0.964
    66   1 H    0.994 --    32 C    0.977
    67   1 H    0.999 --    32 C    0.984
    68   1 H    0.996 --    32 C    0.983
    69   1 H    0.994 --    33 C    0.978
    70   1 H    0.998 --    33 C    0.984
    71   1 H    0.995 --    33 C    0.981
    72   1 H    0.973 --     1 N    0.945
 ---------------------------------------------------------------------------

molecular dipole:
                 x           y           z       tot (Debye)
 q only:       -1.062      -1.214      -0.522
   full:       -0.768      -1.563      -0.365       4.523

           -------------------------------------------------
          | TOTAL ENERGY              -99.850534879318 Eh   |
          | GRADIENT NORM               0.003274352309 Eh/α |
          | HOMO-LUMO GAP               1.041452351506 eV   |
           -------------------------------------------------

 * finished run on 2024/04/06 at 11:16:06.610
