   * xtb version 6.6.1 (8d0f1dd) compiled by 'conda@1efc2f54142f' on 2023-08-01
          program call               : xtb xtbopt.xyz --opt crude --input .xc2 --gfn2

   ID    Z sym.   atoms
    1    7 N      1, 17
    2    6 C      2-6, 8, 9, 11-16, 18-23, 25, 26, 28-33
    3    8 O      7, 10, 24, 27
    4    1 H      34-72
########################################################################
[WARNING] Please study the warnings concerning your input carefully
-1- readin_getIntValue: could not parse ''
########################################################################

          :  Hamiltonian                  GFN2-xTB          :
 * total energy  :   -99.2380355 Eh     change       -0.1075762E-10 Eh
 * total energy  :   -99.2864740 Eh     change       -0.4843855E-01 Eh
 * total energy  :   -99.2869390 Eh     change       -0.4649502E-03 Eh
 * total energy  :   -99.2872089 Eh     change       -0.2698974E-03 Eh
   *** GEOMETRY OPTIMIZATION CONVERGED AFTER 4 ITERATIONS ***

 final structure:
================
72
 xtb: 6.6.1 (8d0f1dd)
N           -1.86212950050313        2.77658128485190        2.26707460062712
C           -1.84062751132529        2.00833282325522        1.27915534301524
C           -2.96107144878973        1.87947688170035        0.28113829971472
C           -3.49192594160069        0.45765865384125        0.28960236949258
C           -4.32054807580389        0.01471866523558       -0.74254502110877
C           -4.83218009651399       -1.26447737962091       -0.71365474503789
O           -5.65248475403047       -1.76629181707831       -1.79008716151867
C           -6.55903649611803       -0.86634930513413       -2.48994028210633
C           -4.57594370919594       -2.15090789181682        0.33697496070300
O           -5.18413232990733       -3.36639505827496        0.23491927665445
C           -4.98493643604405       -4.30591676432976        1.27252141317717
C           -3.75480395645411       -1.70765641528143        1.36507605545610
C           -3.22463090605037       -0.42357278247581        1.33089215176241
C           -2.34304851599223        2.21355794615401       -1.10174957143074
C           -1.40286302069743        1.13437102823316       -1.66908257340631
C           -0.08328642680910        1.09335482038281       -0.99927154838315
N            0.56318640228755       -0.01320417649107       -0.62106692803048
C            1.94986766339705        0.05320708296617       -0.22880513313918
C            2.89218212557140       -0.38297646215019       -1.36793464979065
C            4.31936876042181       -0.14982082918766       -0.95983818297870
C            4.94406221982566        1.05329267861733       -1.23877245191027
C            6.24754741993823        1.28814242645981       -0.82781203569254
C            6.94951731642073        0.32320282694697       -0.12185658302689
O            8.21462876223185        0.44459477389395        0.32924046708546
C            8.91908808300467        1.63728071855435        0.07355397164517
C            6.31641953944359       -0.91468084556567        0.16995008875084
O            7.07229654749004       -1.79866668897324        0.85695748807919
C            6.53653348048613       -3.06129528647162        1.16914358090464
C            5.01400004021317       -1.12736960246960       -0.25036790969876
C           -0.04636778643113       -1.31759870702384       -0.69794854348294
C           -4.16369475315049        2.83093755172884        0.56222577827872
C           -4.82321928709688        2.52090079823573        1.90452365317581
C           -3.78440269698401        4.30841922846252        0.50805030879857
H           -4.58424015610105        0.65613486453789       -1.56738006596232
H           -7.15888763243918       -0.26560416711286       -1.81932709797332
H           -6.17081321950132       -2.50800924981823       -1.41792662937750
H           -6.01456268240954       -0.30918842095554       -3.23919100791032
H           -5.35454538150203       -3.92544603266387        2.22778705758015
H           -5.55738845939657       -5.18489707570630        0.98431072156605
H           -3.92911943282731       -4.57278343410700        1.36305603494410
H           -3.53338533589694       -2.34674259875473        2.20349289525922
H           -2.61168649292957       -0.10120065426103        2.15804716790061
H           -3.15098075527217        2.37318636939004       -1.81544466887096
H           -1.79169035410630        3.15018785887407       -1.01755120462340
H           -1.89379681084593        0.16284221118175       -1.64763805713511
H           -1.23085977267349        1.39374423865879       -2.72247953027151
H           -0.97218682201407        1.38461060548012        1.00380715247923
H            0.46521531387391        2.01884528497919       -0.92083929604060
H            2.11031862371209       -0.58781570426402        0.64246808421122
H            2.19307553981599        1.07943052795174        0.05363185402222
H            2.65876343616906        0.20418489735381       -2.25771789973855
H            2.72947256218780       -1.43713429267334       -1.59596556497581
H            4.42094092733276        1.81861500305662       -1.79194774579014
H            6.70972470969662        2.23157509759114       -1.06749738517853
H            8.42636664235094        2.50027903479024        0.53214525476718
H            9.03642426559758        1.81138896423069       -1.00036462312009
H            9.89939288510145        1.49985895280604        0.52569164130255
H            7.32519251591912       -3.58989725862838        1.70106423418796
H            5.65838738754860       -2.97638159740576        1.81788815437434
H            6.27210972993018       -3.62053538291353        0.26602074997290
H            4.52586743243150       -2.06627035968919       -0.04009938444630
H           -0.19036292307321       -1.63212543012429       -1.73455557603859
H           -1.01619376847874       -1.31417285646357       -0.19417765340897
H            0.59684582471048       -2.04148219632648       -0.20358786515209
H           -4.89973793119751        2.63907848302249       -0.22783678395879
H           -4.13061639144910        2.72646187522270        2.71390253720501
H           -5.13764638797353        1.48126544239170        1.96212107451647
H           -5.70064311515900        3.14923432743390        2.03160970099269
H           -3.00571791933165        4.52263961500671        1.23279716589461
H           -3.44868347447606        4.60521175015551       -0.48171915494980
H           -4.65585319542478        4.90832019162603        0.75639047690518
H           -1.02934849613205        2.80588046144739        2.84801359286328

          :  Hamiltonian                  GFN2-xTB          :
         :: total energy             -99.287208884381 Eh    ::
         :: gradient norm              0.003760054901 Eh/a0 ::
         :: HOMO-LUMO gap              1.022916727019 eV    ::
         :: SCC energy              -100.659014019535 Eh    ::
         :: -> dispersion             -0.075043745872 Eh    ::
         :: repulsion energy           1.370543707431 Eh    ::

    * Orbital Energies and Occupations

         #    Occupation            Energy/Eh            Energy/eV
      -------------------------------------------------------------
         1        2.0000           -0.8698378             -23.6695
       ...           ...                  ...                  ...
        78        1.9992           -0.5256687             -14.3042
        79        1.9991           -0.5231208             -14.2348
        80        1.9991           -0.5227772             -14.2255
        81        1.9988           -0.5191026             -14.1255
        82        1.9987           -0.5167607             -14.0618
        83        1.9981           -0.5110239             -13.9057
        84        1.9979           -0.5099801             -13.8773
        85        1.9979           -0.5094924             -13.8640
        86        1.9938           -0.4926401             -13.4054
        87        1.9844           -0.4777823             -13.0011
        88        1.9660           -0.4653483             -12.6628
        89        1.8869           -0.4456744             -12.1274
        90        1.5621           -0.4212414             -11.4626 (HOMO)
        91        0.4986           -0.3836499             -10.4396 (LUMO)
        92        0.0569           -0.3451971              -9.3933
        93        0.0328           -0.3362934              -9.1510
        94        0.0264           -0.3327910              -9.0557
        95        0.0037           -0.3016093              -8.2072
        96        0.0031           -0.2989108              -8.1338
        97        0.0000           -0.2159800              -5.8771
        98        0.0000           -0.1828145              -4.9746
        99        0.0000           -0.1763148              -4.7978
       100                         -0.1259458              -3.4272
       101                         -0.0923514              -2.5130
       ...                                ...                  ...
       171                          0.5883488              16.0098
      -------------------------------------------------------------
                  HL-Gap            0.0375915 Eh            1.0229 eV

     #   Z          covCN         q      C6AA      α(0)
     1   7 N        1.774    -0.281    28.116     7.852
     2   6 C        2.826     0.096    25.858     8.332
     3   6 C        3.907     0.006    20.417     6.423
     4   6 C        2.977     0.007    27.854     8.657
     5   6 C        2.920    -0.053    29.319     8.879
     6   6 C        2.849     0.072    26.394     8.420
     7   8 O        2.494    -0.117    16.045     5.410
     8   6 C        2.698    -0.131    31.317     9.159
     9   6 C        2.860     0.119    25.387     8.259
    10   8 O        1.705    -0.279    18.637     5.829
    11   6 C        3.643     0.029    20.433     6.498
    12   6 C        2.918    -0.070    29.734     8.942
    13   6 C        2.923    -0.046    29.134     8.852
    14   6 C        3.812    -0.066    21.755     6.639
    15   6 C        3.801    -0.067    21.781     6.645
    16   6 C        2.842    -0.006    28.162     8.697
    17   7 N        2.729    -0.003    21.314     6.857
    18   6 C        3.755    -0.014    20.885     6.516
    19   6 C        3.808    -0.070    21.829     6.651
    20   6 C        2.970    -0.003    28.089     8.693
    21   6 C        2.922    -0.051    29.256     8.870
    22   6 C        2.914    -0.069    29.715     8.939
    23   6 C        2.865     0.131    25.128     8.217
    24   8 O        1.706    -0.229    17.793     5.695
    25   6 C        3.646     0.027    20.452     6.499
    26   6 C        2.863     0.131    25.138     8.218
    27   8 O        1.706    -0.231    17.834     5.702
    28   6 C        3.645     0.030    20.411     6.493
    29   6 C        2.920    -0.081    30.017     8.985
    30   6 C        3.699    -0.064    21.892     6.692
    31   6 C        3.853    -0.007    20.673     6.467
    32   6 C        3.756    -0.118    22.819     6.811
    33   6 C        3.755    -0.120    22.846     6.815
    34   1 H        0.926     0.074     2.044     2.236
    35   1 H        0.925     0.020     2.736     2.587
    36   1 H        0.803     0.364     0.557     1.172
    37   1 H        0.926     0.033     2.543     2.494
    38   1 H        0.924     0.057     2.240     2.341
    39   1 H        0.925     0.078     2.000     2.211
    40   1 H        0.924     0.053     2.287     2.365
    41   1 H        0.926     0.060     2.196     2.318
    42   1 H        0.926     0.053     2.277     2.360
    43   1 H        0.925     0.058     2.228     2.334
    44   1 H        0.925     0.057     2.234     2.337
    45   1 H        0.925     0.057     2.235     2.338
    46   1 H        0.923     0.074     2.039     2.233
    47   1 H        0.923     0.002     3.031     2.723
    48   1 H        0.926     0.063     2.164     2.301
    49   1 H        0.924     0.062     2.172     2.305
    50   1 H        0.924     0.066     2.129     2.282
    51   1 H        0.924     0.053     2.286     2.364
    52   1 H        0.924     0.052     2.296     2.369
    53   1 H        0.926     0.042     2.419     2.432
    54   1 H        0.926     0.055     2.256     2.349
    55   1 H        0.924     0.051     2.308     2.376
    56   1 H        0.924     0.053     2.285     2.364
    57   1 H        0.925     0.079     1.988     2.205
    58   1 H        0.925     0.079     1.994     2.208
    59   1 H        0.924     0.045     2.384     2.414
    60   1 H        0.924     0.049     2.330     2.387
    61   1 H        0.926     0.043     2.407     2.426
    62   1 H        0.924     0.070     2.082     2.256
    63   1 H        0.924     0.068     2.112     2.273
    64   1 H        0.925     0.076     2.021     2.223
    65   1 H        0.924     0.033     2.545     2.495
    66   1 H        0.925     0.068     2.106     2.269
    67   1 H        0.925     0.027     2.627     2.535
    68   1 H        0.925     0.050     2.321     2.382
    69   1 H        0.925     0.063     2.161     2.299
    70   1 H        0.925     0.035     2.515     2.480
    71   1 H        0.925     0.053     2.277     2.360
    72   1 H        0.860     0.152     1.386     1.845

Wiberg/Mayer (AO) data.
largest (>0.10) Wiberg bond orders for each atom

     #   Z sym  total        # sym  WBO       # sym  WBO       # sym  WBO
 ---------------------------------------------------------------------------
     1   7 N    3.022 --     2 C    1.945    72 H    0.945
     2   6 C    3.923 --     1 N    1.945     3 C    0.993    47 H    0.913
     3   6 C    3.981 --     2 C    0.993     4 C    0.978    14 C    0.957
                            31 C    0.942
     4   6 C    3.961 --    13 C    1.410     5 C    1.369     3 C    0.978
     5   6 C    3.945 --     6 C    1.428     4 C    1.369    34 H    0.954
     6   6 C    3.825 --     5 C    1.428     9 C    1.303     7 O    0.877
     7   8 O    2.612 --     6 C    0.877    36 H    0.830     8 C    0.816
     8   6 C    2.832 --    35 H    0.979    37 H    0.977     7 O    0.816
     9   6 C    3.913 --    12 C    1.373     6 C    1.303    10 O    1.062
    10   8 O    2.224 --     9 C    1.062    11 C    0.968
    11   6 C    3.929 --    39 H    0.978    40 H    0.977    38 H    0.977
                            10 O    0.968
    12   6 C    3.952 --    13 C    1.416     9 C    1.373    41 H    0.964
    13   6 C    3.954 --    12 C    1.416     4 C    1.410    42 H    0.963
    14   6 C    3.972 --    15 C    0.983    44 H    0.972    43 H    0.968
                             3 C    0.957
    15   6 C    3.989 --    16 C    1.057    14 C    0.983    45 H    0.963
                            46 H    0.931
    16   6 C    3.518 --    17 N    1.358    15 C    1.057    48 H    0.960
    17   7 N    3.431 --    16 C    1.358    30 C    1.002    18 C    0.990
    18   6 C    3.957 --    17 N    0.990    50 H    0.968    19 C    0.966
                            49 H    0.965
    19   6 C    3.976 --    20 C    1.008    51 H    0.973    52 H    0.972
                            18 C    0.966
    20   6 C    3.953 --    21 C    1.417    29 C    1.376    19 C    1.008
    21   6 C    3.958 --    20 C    1.417    22 C    1.412    53 H    0.968
    22   6 C    3.965 --    21 C    1.412    23 C    1.390    54 H    0.964
    23   6 C    3.905 --    22 C    1.390    26 C    1.227    24 O    1.101
    24   8 O    2.254 --    23 C    1.101    25 C    0.978
    25   6 C    3.932 --    24 O    0.978    57 H    0.977    55 H    0.974
                            56 H    0.974
    26   6 C    3.908 --    29 C    1.401    23 C    1.227    27 O    1.095
    27   8 O    2.253 --    26 C    1.095    28 C    0.981
    28   6 C    3.936 --    27 O    0.981    58 H    0.977    59 H    0.974
                            60 H    0.974
    29   6 C    3.964 --    26 C    1.401    20 C    1.376    61 H    0.963
    30   6 C    3.964 --    17 N    1.002    64 H    0.978    62 H    0.968
                            63 H    0.967
    31   6 C    3.980 --    32 C    1.009    33 C    1.009    65 H    0.964
                             3 C    0.942
    32   6 C    3.987 --    31 C    1.009    67 H    0.984    68 H    0.983
                            66 H    0.977
    33   6 C    3.986 --    31 C    1.009    70 H    0.984    71 H    0.981
                            69 H    0.978
    34   1 H    0.994 --     5 C    0.954
    35   1 H    0.990 --     8 C    0.979
    36   1 H    0.864 --     7 O    0.830
    37   1 H    0.990 --     8 C    0.977
    38   1 H    0.996 --    11 C    0.977
    39   1 H    0.993 --    11 C    0.978
    40   1 H    0.997 --    11 C    0.977
    41   1 H    0.995 --    12 C    0.964
    42   1 H    0.997 --    13 C    0.963
    43   1 H    0.995 --    14 C    0.968
    44   1 H    0.996 --    14 C    0.972
    45   1 H    0.996 --    15 C    0.963
    46   1 H    0.968 --    15 C    0.931
    47   1 H    0.992 --     2 C    0.913
    48   1 H    0.996 --    16 C    0.960
    49   1 H    0.991 --    18 C    0.965
    50   1 H    0.994 --    18 C    0.968
    51   1 H    0.996 --    19 C    0.973
    52   1 H    0.996 --    19 C    0.972
    53   1 H    0.998 --    21 C    0.968
    54   1 H    0.995 --    22 C    0.964
    55   1 H    0.993 --    25 C    0.974
    56   1 H    0.993 --    25 C    0.974
    57   1 H    0.993 --    25 C    0.977
    58   1 H    0.993 --    28 C    0.977
    59   1 H    0.995 --    28 C    0.974
    60   1 H    0.994 --    28 C    0.974
    61   1 H    0.997 --    29 C    0.963
    62   1 H    0.984 --    30 C    0.968
    63   1 H    0.988 --    30 C    0.967
    64   1 H    0.994 --    30 C    0.978
    65   1 H    0.996 --    31 C    0.964
    66   1 H    0.994 --    32 C    0.977
    67   1 H    0.999 --    32 C    0.984
    68   1 H    0.996 --    32 C    0.983
    69   1 H    0.994 --    33 C    0.978
    70   1 H    0.998 --    33 C    0.984
    71   1 H    0.995 --    33 C    0.981
    72   1 H    0.973 --     1 N    0.945
 ---------------------------------------------------------------------------

molecular dipole:
                 x           y           z       tot (Debye)
 q only:       -1.218      -1.351      -0.524
   full:       -0.909      -1.665      -0.379       4.917

           -------------------------------------------------
          | TOTAL ENERGY              -99.287208884381 Eh   |
          | GRADIENT NORM               0.003760054901 Eh/α |
          | HOMO-LUMO GAP               1.022916727019 eV   |
           -------------------------------------------------

 * finished run on 2024/04/06 at 11:16:07.583
