   * xtb version 6.6.1 (8d0f1dd) compiled by 'conda@1efc2f54142f' on 2023-08-01
          program call               : xtb xtbopt.xyz --opt crude --input .xc2 --gfn2

   ID    Z sym.   atoms
    1    6 C      1, 3, 5-7, 10, 11, 14
    2    7 N      2, 4, 9, 13
    3    8 O      8, 12
    4    1 H      15-25

          :  Hamiltonian                  GFN2-xTB          :
 * total energy  :   -42.0903990 Eh     change       -0.5400125E-12 Eh
   *** GEOMETRY OPTIMIZATION CONVERGED AFTER 1 ITERATIONS ***

 final structure:
================
25
 xtb: 6.6.1 (8d0f1dd)
C            3.15954452362618        1.09910510574766        0.01743127894154
N            2.19574758973966        0.03338046752705       -0.00048438730335
C            2.47756615684532       -1.27219349992257       -0.00908279952704
N            1.30252204744453       -1.94565139901204       -0.00787078408769
C            0.26167969330652       -1.06213982750172        0.00100837547609
C            0.83143194176192        0.20627210743382        0.00652319186222
C            0.01569912310885        1.39990057507454       -0.00125537232470
O            0.42042609948302        2.53886092466189       -0.01336671210042
N           -1.34541653564550        1.08726726871712        0.00219121591065
C           -2.28698187486384        2.19565519896723       -0.00166706252930
C           -1.92829044964032       -0.16894572966132        0.00451150137312
O           -3.11986143345430       -0.31828307055581        0.00715150493063
N           -1.06433134231845       -1.27931572268587        0.00207442130907
C           -1.63212361967726       -2.61098470119410       -0.00172846824298
H            3.66161166178294        1.13579907042855        0.98605163552040
H            3.91069099661825        0.93303322534915       -0.75431307698130
H            2.65150307404290        2.04728016621895       -0.15481231344768
H            5.34283204493963       -1.83064294571035       -0.02046626765139
H           -1.72160189677083        3.12516338671158        0.00564672487789
H           -2.91848828272868        2.14341198692185       -0.88963597745726
H           -2.93247697849120        2.13658477072244        0.87562533855632
H           -1.31631282286259       -3.16157018620553        0.88508367883789
H           -1.32968182115001       -3.15111982680662       -0.89965741030857
H           -2.71648769954544       -2.50950947687301        0.00672722469560
H            1.24123131854873       -2.95311932675288       -0.01451384242973

          :  Hamiltonian                  GFN2-xTB          :
         :: total energy             -42.090398976313 Eh    ::
         :: gradient norm              0.005323806634 Eh/a0 ::
         :: HOMO-LUMO gap              0.943901276242 eV    ::
         :: SCC energy               -42.595459186197 Eh    ::
         :: -> dispersion             -0.022599235275 Eh    ::
         :: repulsion energy           0.504971797107 Eh    ::

    * Orbital Energies and Occupations

         #    Occupation            Energy/Eh            Energy/eV
      -------------------------------------------------------------
         1        2.0000           -0.8972485             -24.4154
       ...           ...                  ...                  ...
        25        1.9997           -0.6671958             -18.1553
        26        1.9997           -0.6662640             -18.1300
        27        1.9987           -0.6428096             -17.4917
        28        1.9978           -0.6343142             -17.2606
        29        1.9964           -0.6264752             -17.0473
        30        1.9936           -0.6172864             -16.7972
        31        1.9913           -0.6124562             -16.6658
        32        1.9877           -0.6069841             -16.5169
        33        1.9717           -0.5936235             -16.1533
        34        1.9284           -0.5785637             -15.7435
        35        1.9099           -0.5747855             -15.6407
        36        1.7190           -0.5551064             -15.1052
        37        1.7093           -0.5544775             -15.0881 (HOMO)
        38        0.7935           -0.5197898             -14.1442 (LUMO)
        39        0.0031           -0.4237772             -11.5316
        40        0.0005           -0.3942518             -10.7281
        41        0.0001           -0.3748398             -10.1999
        42        0.0000           -0.2958030              -8.0492
        43                         -0.2113636              -5.7515
        44                         -0.1681048              -4.5744
        45                         -0.1437297              -3.9111
        46                         -0.1337631              -3.6399
        47                         -0.0680609              -1.8520
        48                         -0.0408634              -1.1119
       ...                                ...                  ...
        67                          0.5400238              14.6948
      -------------------------------------------------------------
                  HL-Gap            0.0346877 Eh            0.9439 eV

     #   Z          covCN         q      C6AA      α(0)
     1   6 C        3.692    -0.085    22.308     6.758
     2   7 N        2.847     0.076    19.912     6.628
     3   6 C        2.067    -0.053    32.363     9.189
     4   7 N        2.813    -0.059    22.378     7.026
     5   6 C        3.014     0.116    25.418     8.270
     6   6 C        3.094    -0.011    28.177     8.700
     7   6 C        2.764     0.274    22.372     7.746
     8   8 O        0.858    -0.336    20.434     6.061
     9   7 N        2.746    -0.074    22.670     7.072
    10   6 C        3.709    -0.062    21.834     6.678
    11   6 C        2.730     0.319    21.584     7.606
    12   8 O        0.860    -0.339    20.492     6.069
    13   7 N        2.738    -0.043    22.065     6.976
    14   6 C        3.697    -0.071    22.034     6.714
    15   1 H        0.924     0.108     1.710     2.045
    16   1 H        0.925     0.108     1.714     2.048
    17   1 H        0.925     0.122     1.597     1.976
    18   1 H        0.000     0.129     3.846     3.586
    19   1 H        0.925     0.121     1.607     1.982
    20   1 H        0.924     0.111     1.691     2.033
    21   1 H        0.924     0.111     1.688     2.032
    22   1 H        0.924     0.094     1.842     2.122
    23   1 H        0.924     0.094     1.841     2.122
    24   1 H        0.925     0.129     1.545     1.944
    25   1 H        0.860     0.219     1.013     1.577

Wiberg/Mayer (AO) data.
largest (>0.10) Wiberg bond orders for each atom

     #   Z sym  total        # sym  WBO       # sym  WBO       # sym  WBO
 ---------------------------------------------------------------------------
     1   6 C    3.905 --     2 N    0.996    17 H    0.959    16 H    0.958
                            15 H    0.949
     2   7 N    3.647 --     3 C    1.365     6 C    1.169     1 C    0.996
     3   6 C    2.882 --     2 N    1.365     4 N    1.289
     4   7 N    3.583 --     3 C    1.289     5 C    1.195    25 H    0.924
     5   6 C    3.907 --     6 C    1.319    13 N    1.212     4 N    1.195
     6   6 C    3.823 --     5 C    1.319     2 N    1.169     7 C    1.072
     7   6 C    3.949 --     8 O    1.682     9 N    1.096     6 C    1.072
     8   8 O    1.986 --     7 C    1.682     9 N    0.130
     9   7 N    3.512 --    11 C    1.119     7 C    1.096    10 C    0.975
                             8 O    0.130    12 O    0.124
    10   6 C    3.878 --     9 N    0.975    19 H    0.961    21 H    0.949
                            20 H    0.949
    11   6 C    3.954 --    12 O    1.694     9 N    1.119    13 N    1.049
    12   8 O    2.004 --    11 C    1.694     9 N    0.124    13 N    0.109
    13   7 N    3.499 --     5 C    1.212    11 C    1.049    14 C    0.978
                            12 O    0.109
    14   6 C    3.908 --    13 N    0.978    24 H    0.962    22 H    0.961
                            23 H    0.961
    15   1 H    0.975 --     1 C    0.949
    16   1 H    0.978 --     1 C    0.958
    17   1 H    0.980 --     1 C    0.959
    18   1 H    0.066
    19   1 H    0.979 --    10 C    0.961
    20   1 H    0.967 --    10 C    0.949
    21   1 H    0.967 --    10 C    0.949
    22   1 H    0.978 --    14 C    0.961
    23   1 H    0.978 --    14 C    0.961
    24   1 H    0.982 --    14 C    0.962
    25   1 H    0.951 --     4 N    0.924
 ---------------------------------------------------------------------------

molecular dipole:
                 x           y           z       tot (Debye)
 q only:        2.023      -1.699       0.004
   full:        1.816      -1.955       0.012       6.782

           -------------------------------------------------
          | TOTAL ENERGY              -42.090398976313 Eh   |
          | GRADIENT NORM               0.005323806634 Eh/α |
          | HOMO-LUMO GAP               0.943901276242 eV   |
           -------------------------------------------------

 * finished run on 2024/06/05 at 19:59:11.951
