   * xtb version 6.6.1 (8d0f1dd) compiled by 'conda@1efc2f54142f' on 2023-08-01
          program call               : xtb struc.xyz --opt loose --input .xc1 --gfn2

   ID    Z sym.   atoms
    1    7 N      1, 17
    2    6 C      2-6, 8, 9, 11-16, 18-23, 25, 26, 28-33
    3    8 O      7, 10, 24, 27
    4    1 H      34-72
constraining bond 45 48 to    4.2800000 Å, actual value:    3.0903401 Å

          :  Hamiltonian                  GFN2-xTB          :
 * total energy  :   -99.1514262 Eh     change       -0.4035485E-08 Eh
 * total energy  :   -99.2676126 Eh     change       -0.1161864E+00 Eh
 * total energy  :   -99.3055361 Eh     change       -0.3792350E-01 Eh
 * total energy  :   -99.3096011 Eh     change       -0.4064999E-02 Eh
 * total energy  :   -99.3100470 Eh     change       -0.4458731E-03 Eh
 * total energy  :   -99.3104968 Eh     change       -0.4498087E-03 Eh
 * total energy  :   -99.3106604 Eh     change       -0.1635914E-03 Eh
 * total energy  :   -99.3108060 Eh     change       -0.1455935E-03 Eh
 * total energy  :   -99.3109232 Eh     change       -0.1171986E-03 Eh
 * total energy  :   -99.3110185 Eh     change       -0.9528822E-04 Eh
 * total energy  :   -99.3110941 Eh     change       -0.7562221E-04 Eh
 * total energy  :   -99.3111614 Eh     change       -0.6733062E-04 Eh
 * total energy  :   -99.3112203 Eh     change       -0.5889080E-04 Eh
 * total energy  :   -99.3112658 Eh     change       -0.4552768E-04 Eh
   *** GEOMETRY OPTIMIZATION CONVERGED AFTER 14 ITERATIONS ***

 final structure:
================
72
 xtb: 6.6.1 (8d0f1dd)
N           -1.88327206529492        2.72527752987156        2.23232981545816
C           -1.84434621081799        2.11666861873544        1.14389559840624
C           -3.01483862651605        1.90325531006112        0.22508639583298
C           -3.50414950716783        0.46683851928629        0.32893601080086
C           -4.46618060322590       -0.00059332061669       -0.57146125440407
C           -4.93218241371871       -1.30446593183488       -0.52226962529082
O           -5.85938117248784       -1.83340295353747       -1.34719636338424
C           -6.49086062046289       -1.00856463757924       -2.29811129315971
C           -4.41510314955050       -2.19529706795982        0.45706928769550
O           -4.91347902075389       -3.44738290842029        0.42301647828740
C           -4.51645184860273       -4.36966511702420        1.41093707530532
C           -3.46708417896563       -1.72327606114196        1.35028535543567
C           -3.01748596118163       -0.40979002226421        1.28487501118080
C           -2.47348142027003        2.16175328496901       -1.20852213530086
C           -1.55429808660165        1.04927634843157       -1.73261760695607
C           -0.10008830289504        1.19252694497352       -1.04212793666666
N            0.53283481431093        0.07750861819393       -0.67747512102571
C            1.91240219480211        0.10184253763548       -0.25092806614158
C            2.87266959621585       -0.34350415684791       -1.37053862864132
C            4.29467702084118       -0.14359827452734       -0.92537320787198
C            4.93605745278763        1.06555662420286       -1.14042108602077
C            6.23442929113522        1.26929471841287       -0.70020252790206
C            6.91877559337784        0.26673066854546       -0.02797755535101
O            8.17682242857630        0.35679196069211        0.44183703674771
C            8.90414783848699        1.54533480311250        0.22995600377299
C            6.26846562894232       -0.97786510455976        0.19880806822169
O            7.00319435221451       -1.89970645545190        0.85250198421773
C            6.45189602358288       -3.17136135641288        1.09860936509469
C            4.96936906320900       -1.15765554525301       -0.25032770173008
C           -0.11413762818969       -1.21297906788845       -0.72353247451022
C           -4.20479991991455        2.85829632578686        0.53825725084101
C           -4.82722208625435        2.54280279451671        1.89655289089176
C           -3.81759359994014        4.33307323627443        0.47589721153661
H           -4.87491405492394        0.67390581291423       -1.30602414200068
H           -7.00584116699863       -0.16853923122161       -1.82248832504616
H           -7.22184399741063       -1.64336261746860       -2.79505980882828
H           -5.77972880971435       -0.63105105423010       -3.04029446561329
H           -4.75538591507993       -4.00813352577279        2.41534730158411
H           -5.08377867739787       -5.27613522180338        1.20929135977254
H           -3.44619584646457       -4.59119970860611        1.34671031631536
H           -3.07172896758767       -2.37126197981282        2.11553776507563
H           -2.29606577785026       -0.07303889552160        2.01308759644809
H           -3.31809218093151        2.25753351564116       -1.89153638481381
H           -1.93771098022423        3.11199992542881       -1.20985426166942
H           -2.38070416966551        0.03173030737704       -1.82941380261277
H           -1.34268186549413        1.26494414342982       -2.78551176391592
H           -0.91196453303629        1.70288686558777        0.69895274755295
H            0.73981156828839        2.14795447988799       -0.90181189833077
H            2.03498157458662       -0.55230419970668        0.61643805204836
H            2.17916793859436        1.11707946379598        0.05549780198445
H            2.67541242823256        0.25578637999903       -2.26116398538029
H            2.69244298914264       -1.39144563171559       -1.61213370896630
H            4.43120322159536        1.86014842185877       -1.66880376391190
H            6.70914750009756        2.21770526700841       -0.89073187441824
H            8.43039826726430        2.39869976609021        0.72491822119245
H            9.01939892121998        1.75893254389148       -0.83686843278213
H            9.88378172584661        1.37173867104164        0.67084227944366
H            7.23104689421307       -3.73424824730019        1.60876305727264
H            5.57044036661266       -3.10811575440064        1.74495316508948
H            6.18807465926319       -3.68191438149970        0.16719015268928
H            4.47132055537452       -2.10121291205409       -0.09115699801238
H           -0.26358954104235       -1.54240887464461       -1.75352045328476
H           -1.08860563463999       -1.16369415784219       -0.23213822972402
H            0.50239697287094       -1.94505770486445       -0.20843618891451
H           -4.96287226107548        2.67668064972783       -0.23171086228304
H           -4.10410432305635        2.71886000607587        2.68626525875740
H           -5.15750896377309        1.50815340107268        1.94641018312821
H           -5.68697984262144        3.18633203098171        2.06293331596511
H           -3.04680634613512        4.55540101782802        1.20773852894857
H           -3.46665132942874        4.61824125431990       -0.51246484525464
H           -4.68810360141581        4.94080874673774        0.70807465855837
H           -1.01995607590556        2.83802008788756        2.75366902116727

          :  Hamiltonian                  GFN2-xTB          :
         :: total energy             -99.311265840445 Eh    ::
         :: gradient norm              0.002336581513 Eh/a0 ::
         :: HOMO-LUMO gap              1.707141375432 eV    ::
         :: SCC energy              -100.677448481645 Eh    ::
         :: -> dispersion             -0.075039520484 Eh    ::
         :: repulsion energy           1.336787616727 Eh    ::

    * Orbital Energies and Occupations

         #    Occupation            Energy/Eh            Energy/eV
      -------------------------------------------------------------
         1        2.0000           -0.8090856             -22.0163
       ...           ...                  ...                  ...
        78        1.9984           -0.5293967             -14.4056
        79        1.9984           -0.5287404             -14.3878
        80        1.9982           -0.5277404             -14.3605
        81        1.9976           -0.5229111             -14.2291
        82        1.9971           -0.5199292             -14.1480
        83        1.9962           -0.5152966             -14.0219
        84        1.9955           -0.5126580             -13.9501
        85        1.9944           -0.5093222             -13.8594
        86        1.9817           -0.4904751             -13.3465
        87        1.9791           -0.4883316             -13.2882
        88        1.9445           -0.4726008             -12.8601
        89        1.8778           -0.4595542             -12.5051
        90        1.8469           -0.4557161             -12.4007 (HOMO)
        91        0.3732           -0.3929798             -10.6935 (LUMO)
        92        0.0169           -0.3408757              -9.2757
        93        0.0039           -0.3176938              -8.6449
        94        0.0031           -0.3139418              -8.5428
        95        0.0028           -0.3122299              -8.4962
        96        0.0024           -0.3099579              -8.4344
        97        0.0002           -0.2694653              -7.3325
        98        0.0000           -0.1912989              -5.2055
        99        0.0000           -0.1874349              -5.1004
       100        0.0000           -0.1553718              -4.2279
       101                         -0.1310490              -3.5660
       ...                                ...                  ...
       171                          0.5758828              15.6706
      -------------------------------------------------------------
                  HL-Gap            0.0627363 Eh            1.7071 eV

     #   Z          covCN         q      C6AA      α(0)
     1   7 N        1.773    -0.264    27.685     7.791
     2   6 C        2.826     0.100    25.770     8.318
     3   6 C        3.907     0.006    20.414     6.422
     4   6 C        2.973     0.005    27.912     8.666
     5   6 C        2.920    -0.079    29.966     8.977
     6   6 C        2.862     0.130    25.154     8.221
     7   8 O        1.706    -0.230    17.813     5.698
     8   6 C        3.644     0.028    20.441     6.499
     9   6 C        2.864     0.129    25.181     8.225
    10   8 O        1.706    -0.229    17.792     5.695
    11   6 C        3.645     0.027    20.457     6.500
    12   6 C        2.914    -0.074    29.850     8.959
    13   6 C        2.921    -0.053    29.322     8.880
    14   6 C        3.811    -0.067    21.781     6.643
    15   6 C        3.602    -0.051    22.078     6.794
    16   6 C        2.698     0.004    27.908     8.646
    17   7 N        2.728     0.004    21.193     6.837
    18   6 C        3.754    -0.014    20.885     6.517
    19   6 C        3.807    -0.070    21.833     6.652
    20   6 C        2.969    -0.001    28.041     8.686
    21   6 C        2.922    -0.049    29.221     8.865
    22   6 C        2.914    -0.068    29.688     8.935
    23   6 C        2.865     0.133    25.082     8.209
    24   8 O        1.706    -0.222    17.686     5.678
    25   6 C        3.646     0.025    20.486     6.505
    26   6 C        2.863     0.133    25.088     8.210
    27   8 O        1.706    -0.225    17.730     5.685
    28   6 C        3.645     0.027    20.451     6.500
    29   6 C        2.919    -0.080    29.989     8.980
    30   6 C        3.700    -0.071    22.024     6.711
    31   6 C        3.853    -0.007    20.671     6.467
    32   6 C        3.756    -0.120    22.857     6.817
    33   6 C        3.755    -0.117    22.797     6.808
    34   1 H        0.926     0.052     2.293     2.368
    35   1 H        0.924     0.054     2.274     2.358
    36   1 H        0.925     0.081     1.966     2.193
    37   1 H        0.924     0.047     2.358     2.402
    38   1 H        0.924     0.055     2.259     2.350
    39   1 H        0.925     0.081     1.966     2.193
    40   1 H        0.924     0.048     2.346     2.395
    41   1 H        0.926     0.052     2.292     2.368
    42   1 H        0.926     0.038     2.472     2.458
    43   1 H        0.924     0.055     2.253     2.347
    44   1 H        0.924     0.053     2.286     2.364
    45   1 H        0.742     0.059     2.299     2.395
    46   1 H        0.924     0.071     2.076     2.253
    47   1 H        0.921     0.015     2.815     2.624
    48   1 H        0.802     0.075     2.070     2.260
    49   1 H        0.924     0.066     2.125     2.279
    50   1 H        0.924     0.065     2.145     2.290
    51   1 H        0.924     0.055     2.259     2.350
    52   1 H        0.924     0.056     2.249     2.345
    53   1 H        0.926     0.044     2.394     2.419
    54   1 H        0.926     0.058     2.219     2.329
    55   1 H        0.924     0.054     2.270     2.356
    56   1 H        0.924     0.056     2.249     2.345
    57   1 H        0.925     0.082     1.955     2.187
    58   1 H        0.925     0.082     1.960     2.189
    59   1 H        0.924     0.048     2.339     2.392
    60   1 H        0.924     0.052     2.290     2.366
    61   1 H        0.926     0.047     2.355     2.400
    62   1 H        0.924     0.077     2.011     2.218
    63   1 H        0.924     0.082     1.964     2.191
    64   1 H        0.925     0.078     2.000     2.212
    65   1 H        0.924     0.038     2.478     2.462
    66   1 H        0.925     0.071     2.070     2.250
    67   1 H        0.925     0.036     2.500     2.473
    68   1 H        0.925     0.051     2.304     2.374
    69   1 H        0.925     0.055     2.255     2.348
    70   1 H        0.925     0.035     2.522     2.483
    71   1 H        0.925     0.055     2.260     2.351
    72   1 H        0.860     0.158     1.347     1.818

Wiberg/Mayer (AO) data.
largest (>0.10) Wiberg bond orders for each atom

     #   Z sym  total        # sym  WBO       # sym  WBO       # sym  WBO
 ---------------------------------------------------------------------------
     1   7 N    3.057 --     2 C    1.959    72 H    0.940
     2   6 C    3.916 --     1 N    1.959     3 C    0.995    47 H    0.873
     3   6 C    3.976 --     2 C    0.995     4 C    0.969    14 C    0.955
                            31 C    0.941
     4   6 C    3.950 --    13 C    1.417     5 C    1.360     3 C    0.969
     5   6 C    3.963 --     6 C    1.399     4 C    1.360    34 H    0.957
     6   6 C    3.907 --     5 C    1.399     9 C    1.222     7 O    1.100
     7   8 O    2.256 --     6 C    1.100     8 C    0.978
     8   6 C    3.932 --     7 O    0.978    36 H    0.977    37 H    0.974
                            35 H    0.974
     9   6 C    3.904 --    12 C    1.394     6 C    1.222    10 O    1.102
    10   8 O    2.254 --     9 C    1.102    11 C    0.977
    11   6 C    3.931 --    10 O    0.977    39 H    0.977    40 H    0.974
                            38 H    0.974
    12   6 C    3.963 --    13 C    1.401     9 C    1.394    41 H    0.964
    13   6 C    3.956 --     4 C    1.417    12 C    1.401    42 H    0.963
    14   6 C    3.982 --    15 C    1.007    44 H    0.970    43 H    0.967
                             3 C    0.955
    15   6 C    3.965 --    14 C    1.007    16 C    0.996    46 H    0.946
                            45 H    0.937
    16   6 C    3.569 --    17 N    1.408    15 C    0.996    48 H    0.929
    17   7 N    3.484 --    16 C    1.408    30 C    0.996    18 C    0.989
    18   6 C    3.957 --    17 N    0.989    19 C    0.966    49 H    0.963
                            50 H    0.961
    19   6 C    3.976 --    20 C    1.008    52 H    0.972    51 H    0.972
                            18 C    0.966
    20   6 C    3.945 --    21 C    1.409    29 C    1.380    19 C    1.008
    21   6 C    3.951 --    22 C    1.417    20 C    1.409    53 H    0.968
    22   6 C    3.960 --    21 C    1.417    23 C    1.383    54 H    0.963
    23   6 C    3.896 --    22 C    1.383    26 C    1.220    24 O    1.110
    24   8 O    2.255 --    23 C    1.110    25 C    0.976
    25   6 C    3.928 --    57 H    0.977    24 O    0.976    56 H    0.973
                            55 H    0.973
    26   6 C    3.899 --    29 C    1.395    23 C    1.220    27 O    1.104
    27   8 O    2.255 --    26 C    1.104    28 C    0.979
    28   6 C    3.932 --    27 O    0.979    58 H    0.977    59 H    0.973
                            60 H    0.973
    29   6 C    3.959 --    26 C    1.395    20 C    1.380    61 H    0.962
    30   6 C    3.956 --    17 N    0.996    64 H    0.978    62 H    0.966
                            63 H    0.960
    31   6 C    3.973 --    33 C    1.009    32 C    1.008    65 H    0.960
                             3 C    0.941
    32   6 C    3.978 --    31 C    1.008    67 H    0.982    68 H    0.981
                            66 H    0.972
    33   6 C    3.985 --    31 C    1.009    70 H    0.983    71 H    0.980
                            69 H    0.979
    34   1 H    0.996 --     5 C    0.957
    35   1 H    0.993 --     8 C    0.974
    36   1 H    0.993 --     8 C    0.977
    37   1 H    0.994 --     8 C    0.974
    38   1 H    0.993 --    11 C    0.974
    39   1 H    0.993 --    11 C    0.977
    40   1 H    0.993 --    11 C    0.974
    41   1 H    0.996 --    12 C    0.964
    42   1 H    0.998 --    13 C    0.963
    43   1 H    0.996 --    14 C    0.967
    44   1 H    0.996 --    14 C    0.970
    45   1 H    0.995 --    15 C    0.937
    46   1 H    0.981 --    15 C    0.946
    47   1 H    0.988 --     2 C    0.873
    48   1 H    0.993 --    16 C    0.929
    49   1 H    0.991 --    18 C    0.963
    50   1 H    0.995 --    18 C    0.961
    51   1 H    0.996 --    19 C    0.972
    52   1 H    0.996 --    19 C    0.972
    53   1 H    0.997 --    21 C    0.968
    54   1 H    0.995 --    22 C    0.963
    55   1 H    0.992 --    25 C    0.973
    56   1 H    0.992 --    25 C    0.973
    57   1 H    0.992 --    25 C    0.977
    58   1 H    0.993 --    28 C    0.977
    59   1 H    0.993 --    28 C    0.973
    60   1 H    0.993 --    28 C    0.973
    61   1 H    0.997 --    29 C    0.962
    62   1 H    0.985 --    30 C    0.966
    63   1 H    0.987 --    30 C    0.960
    64   1 H    0.994 --    30 C    0.978
    65   1 H    0.993 --    31 C    0.960
    66   1 H    0.990 --    32 C    0.972
    67   1 H    0.997 --    32 C    0.982
    68   1 H    0.994 --    32 C    0.981
    69   1 H    0.994 --    33 C    0.979
    70   1 H    0.997 --    33 C    0.983
    71   1 H    0.994 --    33 C    0.980
    72   1 H    0.970 --     1 N    0.940
 ---------------------------------------------------------------------------

molecular dipole:
                 x           y           z       tot (Debye)
 q only:        0.622      -0.002      -0.754
   full:        0.942      -0.013      -0.958       3.415

           -------------------------------------------------
          | TOTAL ENERGY              -99.311265840445 Eh   |
          | GRADIENT NORM               0.002336581513 Eh/α |
          | HOMO-LUMO GAP               1.707141375432 eV   |
           -------------------------------------------------

 * finished run on 2024/04/06 at 11:15:05.945
