   * xtb version 6.6.1 (8d0f1dd) compiled by 'conda@1efc2f54142f' on 2023-08-01
          program call               : xtb xtbopt.xyz --opt crude --input .xc2 --gfn2

   ID    Z sym.   atoms
    1    7 N      1, 17
    2    6 C      2-6, 8, 9, 11-16, 18-23, 25, 26, 28-33
    3    8 O      7, 10, 24, 27
    4    1 H      34-72
########################################################################
[WARNING] Please study the warnings concerning your input carefully
-1- readin_getIntValue: could not parse ''
########################################################################

          :  Hamiltonian                  GFN2-xTB          :
 * total energy  :   -99.3394297 Eh     change       -0.3410605E-12 Eh
 * total energy  :   -99.3872351 Eh     change       -0.4780544E-01 Eh
 * total energy  :   -99.3987944 Eh     change       -0.1155925E-01 Eh
 * total energy  :   -99.4048721 Eh     change       -0.6077719E-02 Eh
 * total energy  :   -99.4060863 Eh     change       -0.1214184E-02 Eh
 * total energy  :   -99.4063514 Eh     change       -0.2651564E-03 Eh
 * total energy  :   -99.4065315 Eh     change       -0.1800613E-03 Eh
   *** GEOMETRY OPTIMIZATION CONVERGED AFTER 7 ITERATIONS ***

 final structure:
================
72
 xtb: 6.6.1 (8d0f1dd)
N           -1.88362665244793        2.74278556559236        2.24018343158238
C           -1.84152107485024        2.11382346294185        1.16350956490856
C           -3.00022143412857        1.91269111632615        0.22811453822706
C           -3.48287901139121        0.47121233935199        0.31548743427228
C           -4.44426409419543        0.00467862097244       -0.58363659548915
C           -4.91768774512285       -1.29579635230335       -0.52722256730640
O           -5.84993986462142       -1.82416898488656       -1.34632089439783
C           -6.48411873040540       -1.00108424077294       -2.29661204883468
C           -4.40753018033007       -2.18526229725640        0.45720831791740
O           -4.91429338431360       -3.43403648843279        0.42839606440751
C           -4.51763793739075       -4.35882103913504        1.41399801653027
C           -3.45710212186779       -1.71485214809149        1.34856235354545
C           -3.00349789675805       -0.40325111423626        1.27848808230595
C           -2.44972104394671        2.19402380005926       -1.19441283757338
C           -1.48689957957453        1.11638135804801       -1.72313333112051
C           -0.16215075611262        1.11385754474767       -1.05927784139484
N            0.50527179573115        0.02590366318524       -0.68679967936344
C            1.88347326501393        0.10997456501355       -0.26341365727011
C            2.85664805122662       -0.33852472147921       -1.37161874729591
C            4.27729119388848       -0.13688818856816       -0.92074629681092
C            4.92084924873158        1.07073742137670       -1.13856028348479
C            6.22132288254720        1.27251507852295       -0.70285573733443
C            6.90625388725916        0.26842139253139       -0.03371876689753
O            8.16593431526946        0.35280343370021        0.43266050911728
C            8.89813482356479        1.53925431987373        0.22710640427348
C            6.25434243340883       -0.97488335538381        0.19583706162609
O            6.99308629815228       -1.89574095348485        0.84644444825331
C            6.44834465164232       -3.16952992967804        1.09484689682858
C            4.95284353508202       -1.15232401162731       -0.24747217808132
C           -0.10258828263979       -1.28373887899016       -0.71942839721381
C           -4.20047229651205        2.85813723937560        0.53389880585547
C           -4.83350378215700        2.53606266850946        1.88551563558562
C           -3.82579076884245        4.33673302442238        0.47961944061050
H           -4.84121510316835        0.67385167697711       -1.32889042034578
H           -6.99823520051016       -0.16085677289876       -1.82035377633788
H           -7.21624637827516       -1.63734883788653       -2.79011570040261
H           -5.77497514752397       -0.62430115774772       -3.04079574734788
H           -4.75666411170733       -4.00081864774600        2.41964791911423
H           -5.08497454734649       -5.26464193730030        1.20930497690259
H           -3.44741972398500       -4.58035973820000        1.34920760399360
H           -3.06685185915359       -2.36048627859950        2.11854938580137
H           -2.28521832605516       -0.06627202129707        2.00982937873630
H           -3.28701335511049        2.26517973849404       -1.88750573459889
H           -1.94117070314398        3.15863392781759       -1.19110332899200
H           -1.96420345844724        0.14278112853358       -1.66458890258598
H           -1.31486192813236        1.34268984740249       -2.78389328588220
H           -0.91482657821166        1.65877305509774        0.74850130872336
H            0.39133940997294        2.04081699122286       -1.05529994302359
H            2.02519062041348       -0.52003800139870        0.61926624085546
H            2.11508834119923        1.14131330802951        0.01222121794376
H            2.66493211889571        0.25468294325083       -2.26732798166096
H            2.68266292280062       -1.38875680753352       -1.60849857794261
H            4.41478110889107        1.86581233873641       -1.66482776867332
H            6.69723694007468        2.22007656287173       -0.89475321567580
H            8.42570817895911        2.39269421296935        0.72304631738045
H            9.01888529341690        1.75587395791650       -0.83845979082139
H            9.87520620670771        1.36002829421980        0.67167750265564
H            7.23128793372647       -3.72742699553860        1.60489932762375
H            5.56752921339687       -3.11016632181285        1.74229055188664
H            6.18643428389389       -3.68271638120985        0.16438986334624
H            4.45409710035077       -2.09505374628588       -0.08489265942563
H           -0.24926646671605       -1.62460195786526       -1.74661706678790
H           -1.07072251336621       -1.26712942165757       -0.21209016275282
H            0.54289495447453       -1.99348624721749       -0.20815253479096
H           -4.95035799041701        2.67173722619973       -0.24299936519331
H           -4.11976790978229        2.71711108633383        2.68260835682080
H           -5.15782561523021        1.49936526134497        1.93102776563552
H           -5.69927561841191        3.17373112881982        2.04368087871773
H           -3.05898168097693        4.56134145804539        1.21485421204365
H           -3.47603492489904        4.63199327577190       -0.50617075211633
H           -4.70241277363519        4.93530603027542        0.71265981180893
H           -1.02658685987716        2.83371343414108        2.77629179199029

          :  Hamiltonian                  GFN2-xTB          :
         :: total energy             -99.406531483533 Eh    ::
         :: gradient norm              0.003227489776 Eh/a0 ::
         :: HOMO-LUMO gap              1.681383162840 eV    ::
         :: SCC energy              -100.784608435208 Eh    ::
         :: -> dispersion             -0.075004843324 Eh    ::
         :: repulsion energy           1.376848589294 Eh    ::

    * Orbital Energies and Occupations

         #    Occupation            Energy/Eh            Energy/eV
      -------------------------------------------------------------
         1        2.0000           -0.8086677             -22.0050
       ...           ...                  ...                  ...
        78        1.9984           -0.5294192             -14.4062
        79        1.9983           -0.5287365             -14.3877
        80        1.9983           -0.5284011             -14.3785
        81        1.9976           -0.5228986             -14.2288
        82        1.9970           -0.5198073             -14.1447
        83        1.9961           -0.5155967             -14.0301
        84        1.9954           -0.5128783             -13.9561
        85        1.9945           -0.5099077             -13.8753
        86        1.9812           -0.4904482             -13.3458
        87        1.9785           -0.4882675             -13.2864
        88        1.9439           -0.4727857             -12.8652
        89        1.8732           -0.4592988             -12.4982
        90        1.8435           -0.4557124             -12.4006 (HOMO)
        91        0.3844           -0.3939227             -10.7192 (LUMO)
        92        0.0163           -0.3405860              -9.2678
        93        0.0036           -0.3164178              -8.6102
        94        0.0030           -0.3135548              -8.5323
        95        0.0027           -0.3122803              -8.4976
        96        0.0024           -0.3099399              -8.4339
        97        0.0000           -0.1907876              -5.1916
        98        0.0000           -0.1875133              -5.1025
        99                         -0.1371952              -3.7333
       100                         -0.0684289              -1.8620
       101                         -0.0643992              -1.7524
       ...                                ...                  ...
       171                          0.5760815              15.6760
      -------------------------------------------------------------
                  HL-Gap            0.0617897 Eh            1.6814 eV

     #   Z          covCN         q      C6AA      α(0)
     1   7 N        1.773    -0.266    27.718     7.796
     2   6 C        2.826     0.101    25.761     8.317
     3   6 C        3.907     0.007    20.410     6.421
     4   6 C        2.973     0.003    27.956     8.673
     5   6 C        2.920    -0.079    29.984     8.980
     6   6 C        2.862     0.130    25.153     8.221
     7   8 O        1.706    -0.229    17.804     5.697
     8   6 C        3.644     0.027    20.452     6.501
     9   6 C        2.864     0.129    25.178     8.225
    10   8 O        1.706    -0.228    17.787     5.694
    11   6 C        3.645     0.027    20.457     6.501
    12   6 C        2.914    -0.075    29.865     8.961
    13   6 C        2.921    -0.054    29.334     8.882
    14   6 C        3.813    -0.066    21.746     6.637
    15   6 C        3.802    -0.069    21.819     6.650
    16   6 C        2.842     0.008    27.841     8.647
    17   7 N        2.729     0.008    21.127     6.827
    18   6 C        3.754    -0.016    20.915     6.521
    19   6 C        3.807    -0.070    21.842     6.653
    20   6 C        2.969    -0.000    28.033     8.685
    21   6 C        2.922    -0.049    29.211     8.863
    22   6 C        2.914    -0.067    29.681     8.934
    23   6 C        2.864     0.134    25.078     8.209
    24   8 O        1.706    -0.222    17.681     5.677
    25   6 C        3.645     0.025    20.490     6.506
    26   6 C        2.862     0.133    25.088     8.210
    27   8 O        1.706    -0.225    17.726     5.684
    28   6 C        3.644     0.027    20.454     6.500
    29   6 C        2.919    -0.079    29.984     8.979
    30   6 C        3.700    -0.070    22.016     6.710
    31   6 C        3.852    -0.007    20.672     6.467
    32   6 C        3.756    -0.120    22.848     6.815
    33   6 C        3.755    -0.117    22.803     6.809
    34   1 H        0.926     0.052     2.294     2.369
    35   1 H        0.924     0.054     2.271     2.357
    36   1 H        0.925     0.081     1.965     2.192
    37   1 H        0.924     0.048     2.350     2.397
    38   1 H        0.924     0.055     2.258     2.350
    39   1 H        0.925     0.081     1.966     2.193
    40   1 H        0.924     0.048     2.348     2.396
    41   1 H        0.926     0.052     2.299     2.371
    42   1 H        0.926     0.038     2.478     2.462
    43   1 H        0.925     0.060     2.202     2.321
    44   1 H        0.924     0.054     2.276     2.359
    45   1 H        0.925     0.066     2.132     2.283
    46   1 H        0.923     0.079     1.986     2.204
    47   1 H        0.921     0.011     2.876     2.652
    48   1 H        0.926     0.069     2.093     2.262
    49   1 H        0.924     0.067     2.121     2.278
    50   1 H        0.924     0.067     2.123     2.279
    51   1 H        0.924     0.055     2.256     2.349
    52   1 H        0.924     0.056     2.250     2.346
    53   1 H        0.926     0.045     2.382     2.414
    54   1 H        0.926     0.059     2.216     2.328
    55   1 H        0.924     0.054     2.267     2.355
    56   1 H        0.924     0.056     2.247     2.344
    57   1 H        0.925     0.082     1.954     2.186
    58   1 H        0.925     0.082     1.959     2.189
    59   1 H        0.924     0.049     2.338     2.391
    60   1 H        0.924     0.053     2.289     2.366
    61   1 H        0.926     0.047     2.356     2.400
    62   1 H        0.924     0.076     2.023     2.225
    63   1 H        0.924     0.079     1.986     2.204
    64   1 H        0.925     0.079     1.989     2.206
    65   1 H        0.924     0.038     2.478     2.462
    66   1 H        0.925     0.071     2.076     2.253
    67   1 H        0.925     0.036     2.502     2.474
    68   1 H        0.925     0.051     2.304     2.374
    69   1 H        0.925     0.057     2.238     2.339
    70   1 H        0.925     0.034     2.525     2.485
    71   1 H        0.925     0.055     2.261     2.352
    72   1 H        0.860     0.158     1.347     1.818

Wiberg/Mayer (AO) data.
largest (>0.10) Wiberg bond orders for each atom

     #   Z sym  total        # sym  WBO       # sym  WBO       # sym  WBO
 ---------------------------------------------------------------------------
     1   7 N    3.052 --     2 C    1.958    72 H    0.941
     2   6 C    3.920 --     1 N    1.958     3 C    0.996    47 H    0.882
     3   6 C    3.976 --     2 C    0.996     4 C    0.967    14 C    0.959
                            31 C    0.941
     4   6 C    3.950 --    13 C    1.414     5 C    1.369     3 C    0.967
     5   6 C    3.962 --     6 C    1.401     4 C    1.369    34 H    0.958
     6   6 C    3.906 --     5 C    1.401     9 C    1.221     7 O    1.100
     7   8 O    2.255 --     6 C    1.100     8 C    0.978
     8   6 C    3.932 --     7 O    0.978    36 H    0.977    35 H    0.973
                            37 H    0.973
     9   6 C    3.902 --    12 C    1.393     6 C    1.221    10 O    1.102
    10   8 O    2.253 --     9 C    1.102    11 C    0.978
    11   6 C    3.931 --    10 O    0.978    39 H    0.977    40 H    0.974
                            38 H    0.973
    12   6 C    3.963 --    13 C    1.402     9 C    1.393    41 H    0.964
    13   6 C    3.955 --     4 C    1.414    12 C    1.402    42 H    0.962
    14   6 C    3.974 --    15 C    0.983    44 H    0.972    43 H    0.969
                             3 C    0.959
    15   6 C    3.986 --    16 C    1.057    14 C    0.983    45 H    0.962
                            46 H    0.928
    16   6 C    3.607 --    17 N    1.393    15 C    1.057    48 H    0.957
    17   7 N    3.479 --    16 C    1.393    30 C    0.998    18 C    0.989
    18   6 C    3.956 --    17 N    0.989    50 H    0.968    19 C    0.967
                            49 H    0.964
    19   6 C    3.976 --    20 C    1.008    52 H    0.972    51 H    0.972
                            18 C    0.967
    20   6 C    3.944 --    21 C    1.409    29 C    1.380    19 C    1.008
    21   6 C    3.950 --    22 C    1.417    20 C    1.409    53 H    0.968
    22   6 C    3.959 --    21 C    1.417    23 C    1.383    54 H    0.963
    23   6 C    3.895 --    22 C    1.383    26 C    1.220    24 O    1.110
    24   8 O    2.255 --    23 C    1.110    25 C    0.976
    25   6 C    3.928 --    57 H    0.977    24 O    0.976    55 H    0.973
                            56 H    0.973
    26   6 C    3.898 --    29 C    1.395    23 C    1.220    27 O    1.104
    27   8 O    2.254 --    26 C    1.104    28 C    0.979
    28   6 C    3.932 --    27 O    0.979    58 H    0.977    59 H    0.973
                            60 H    0.973
    29   6 C    3.959 --    26 C    1.395    20 C    1.380    61 H    0.963
    30   6 C    3.958 --    17 N    0.998    64 H    0.978    62 H    0.967
                            63 H    0.961
    31   6 C    3.972 --    33 C    1.009    32 C    1.008    65 H    0.960
                             3 C    0.941
    32   6 C    3.978 --    31 C    1.008    67 H    0.982    68 H    0.981
                            66 H    0.973
    33   6 C    3.985 --    31 C    1.009    70 H    0.983    71 H    0.980
                            69 H    0.979
    34   1 H    0.996 --     5 C    0.958
    35   1 H    0.993 --     8 C    0.973
    36   1 H    0.993 --     8 C    0.977
    37   1 H    0.994 --     8 C    0.973
    38   1 H    0.993 --    11 C    0.973
    39   1 H    0.993 --    11 C    0.977
    40   1 H    0.993 --    11 C    0.974
    41   1 H    0.996 --    12 C    0.964
    42   1 H    0.998 --    13 C    0.962
    43   1 H    0.995 --    14 C    0.969
    44   1 H    0.996 --    14 C    0.972
    45   1 H    0.995 --    15 C    0.962
    46   1 H    0.971 --    15 C    0.928
    47   1 H    0.988 --     2 C    0.882
    48   1 H    0.995 --    16 C    0.957
    49   1 H    0.991 --    18 C    0.964
    50   1 H    0.994 --    18 C    0.968
    51   1 H    0.996 --    19 C    0.972
    52   1 H    0.996 --    19 C    0.972
    53   1 H    0.997 --    21 C    0.968
    54   1 H    0.995 --    22 C    0.963
    55   1 H    0.992 --    25 C    0.973
    56   1 H    0.992 --    25 C    0.973
    57   1 H    0.992 --    25 C    0.977
    58   1 H    0.993 --    28 C    0.977
    59   1 H    0.993 --    28 C    0.973
    60   1 H    0.993 --    28 C    0.973
    61   1 H    0.997 --    29 C    0.963
    62   1 H    0.985 --    30 C    0.967
    63   1 H    0.987 --    30 C    0.961
    64   1 H    0.993 --    30 C    0.978
    65   1 H    0.993 --    31 C    0.960
    66   1 H    0.991 --    32 C    0.973
    67   1 H    0.997 --    32 C    0.982
    68   1 H    0.994 --    32 C    0.981
    69   1 H    0.994 --    33 C    0.979
    70   1 H    0.997 --    33 C    0.983
    71   1 H    0.994 --    33 C    0.980
    72   1 H    0.970 --     1 N    0.941
 ---------------------------------------------------------------------------

molecular dipole:
                 x           y           z       tot (Debye)
 q only:        0.651      -0.031      -0.797
   full:        0.950      -0.060      -0.987       3.485

           -------------------------------------------------
          | TOTAL ENERGY              -99.406531483533 Eh   |
          | GRADIENT NORM               0.003227489776 Eh/α |
          | HOMO-LUMO GAP               1.681383162840 eV   |
           -------------------------------------------------

 * finished run on 2024/04/06 at 11:15:07.376
