   * xtb version 6.6.1 (8d0f1dd) compiled by 'conda@1efc2f54142f' on 2023-08-01
          program call               : xtb struc.xyz --opt loose --input .xc1 --gfn2

   ID    Z sym.   atoms
    1    7 N      1, 17
    2    6 C      2-6, 8, 9, 11-16, 18-23, 25, 26, 28-33
    3    8 O      7, 10, 24, 27
    4    1 H      34-72
constraining bond 26 54 to    5.1400000 Å, actual value:    3.4015084 Å

          :  Hamiltonian                  GFN2-xTB          :
 * total energy  :   -98.8644801 Eh     change       -0.4035485E-08 Eh
 * total energy  :   -99.0417259 Eh     change       -0.1772458E+00 Eh
 * total energy  :   -99.1361715 Eh     change       -0.9444557E-01 Eh
 * total energy  :   -99.1735763 Eh     change       -0.3740481E-01 Eh
 * total energy  :   -99.1883685 Eh     change       -0.1479217E-01 Eh
 * total energy  :   -99.1971938 Eh     change       -0.8825308E-02 Eh
 * total energy  :   -99.2066460 Eh     change       -0.9452266E-02 Eh
 * total energy  :   -99.2172578 Eh     change       -0.1061179E-01 Eh
 * total energy  :   -99.2273366 Eh     change       -0.1007876E-01 Eh
 * total energy  :   -99.2351960 Eh     change       -0.7859388E-02 Eh
 * total energy  :   -99.2410050 Eh     change       -0.9280589E-04 Eh
 * total energy  :   -99.2411014 Eh     change       -0.9634962E-04 Eh
 * total energy  :   -99.2412048 Eh     change       -0.1034596E-03 Eh
 * total energy  :   -99.2413142 Eh     change       -0.1093466E-03 Eh
 * total energy  :   -99.2414180 Eh     change       -0.1037675E-03 Eh
 * total energy  :   -99.2415022 Eh     change       -0.8422252E-04 Eh
 * total energy  :   -99.2416114 Eh     change       -0.1092460E-03 Eh
 * total energy  :   -99.2416982 Eh     change       -0.8672260E-04 Eh
 * total energy  :   -99.2417227 Eh     change       -0.2453128E-04 Eh
   *** GEOMETRY OPTIMIZATION CONVERGED AFTER 24 ITERATIONS ***

 final structure:
================
72
 xtb: 6.6.1 (8d0f1dd)
N           -1.87258849216304        2.78476748460116        2.23250320440866
C           -1.82305255399768        2.11767937384090        1.17947671511979
C           -2.97414126011511        1.91367081601385        0.23422225232828
C           -3.45489498776258        0.47198346095678        0.31632827400911
C           -4.40881650705476        0.00880615275050       -0.59207617446814
C           -4.89022088401765       -1.28881777004981       -0.53843286261465
O           -5.81919951262666       -1.81033327207036       -1.36337002417049
C           -6.45333645738028       -0.97821228004366       -2.30651270870956
C           -4.39233232695650       -2.18016523293770        0.45169530220288
O           -4.90801446556850       -3.42371326664468        0.42230827345539
C           -4.52459740435192       -4.35075543701561        1.41128098343024
C           -3.44556384649863       -1.71388605141910        1.34991953946661
C           -2.98691470264584       -0.40389382154289        1.28416278095861
C           -2.41851818167484        2.19987183026655       -1.18511020075473
C           -1.47596912587945        1.10995137094590       -1.72726696612598
C           -0.14547609092735        1.09875432687615       -1.07837563728135
N            0.50817448796447        0.01473075696702       -0.68424980060724
C            1.88504551501855        0.10007821897367       -0.25704441536035
C            2.85227847629988       -0.39865252305835       -1.34814248239759
C            4.27136323087699       -0.21835000412833       -0.88792822736336
C            4.91251658320386        1.00675730409869       -1.09351996708422
C            6.18771577475178        1.16048487767402       -0.63776274372432
C            6.89755801889793        0.17793606345502        0.01548547294678
O            8.15297967795732        0.28570230223160        0.46332862267811
C            8.80438413799356        1.51278202725334        0.21014802976650
C            6.23944933829116       -1.08591342488494        0.23925611031241
O            6.97763453218417       -2.00593666131523        0.88122134336160
C            6.43259147829886       -3.28356512033622        1.11966758978916
C            4.93810727774954       -1.24033620327552       -0.21667661777046
C           -0.09317967112927       -1.29732087099030       -0.71066354458796
C           -4.18126044494475        2.85240084319062        0.53320115040770
C           -4.82239137422879        2.52469052125356        1.87945377866492
C           -3.81708185250718        4.33338392371307        0.48170628084945
H           -4.79363203511345        0.67851161885878       -1.34295113624070
H           -6.95568633274570       -0.13510097258277       -1.82296603451070
H           -7.19499470908589       -1.60590449414725       -2.79653157569384
H           -5.74654597062761       -0.60525866324221       -3.05475955398727
H           -4.76816527686496       -3.98995787132219        2.41482571248833
H           -5.09687494025391       -5.25260991790001        1.20330046717313
H           -3.45555229003682       -4.57935571389558        1.35389102847160
H           -3.06427668539437       -2.36107714178232        2.12304260139008
H           -2.27524198607915       -0.06874222959119        2.02284940130050
H           -3.25520290932222        2.29562562338937       -1.87593682244950
H           -1.89092394787046        3.15414978687713       -1.17228789557618
H           -1.96428873526038        0.13910219267646       -1.66282644809524
H           -1.31525814837494        1.33388360054946       -2.78969898316667
H           -0.90053171257283        1.63208053107527        0.80110652464743
H            0.40814219939971        2.02683208697873       -1.06671166712364
H            2.01841070308194       -0.49917832973794        0.64785698909781
H            2.12802641678336        1.13739874212213       -0.01827111257987
H            2.68006647776572        0.17682691567318       -2.25938220172557
H            2.65712027811704       -1.45023720347402       -1.56218359072378
H            4.40816574834028        1.80661938134473       -1.61169160229777
H            6.68819491343004        3.72417989576466       -1.36680891713302
H            8.27055783271012        2.34199404779865        0.68342156102941
H            8.86560072009781        1.70639518598763       -0.86460601864011
H            9.80270979834568        1.42006366965454        0.63150547373262
H            7.21567096919787       -3.84569663490677        1.62522443229150
H            5.55208607140886       -3.22752448380781        1.76744620967186
H            6.17062976425197       -3.78772513224519        0.18456480758418
H            4.42832494535118       -2.17925366995943       -0.06297237174603
H           -0.24769961677711       -1.63995525944765       -1.73589785675255
H           -1.05637290637289       -1.28707335283339       -0.19429236005571
H            0.56253765452449       -2.00129179695745       -0.20482526637767
H           -4.92441761759817        2.66124886495593       -0.24903394802774
H           -4.11958992344275        2.71872756644913        2.68329785166083
H           -5.13244951782922        1.48355344549321        1.92513107601741
H           -5.69884437876946        3.15002066460122        2.02693779082924
H           -3.05518601644395        4.56295145254404        1.22038873322302
H           -3.46546229289029        4.63215221203274       -0.50230302738398
H           -4.69956532867502        4.92430220693522        0.71224632900998
H           -1.02521400446242        2.87888298322198        2.78293291213307

          :  Hamiltonian                  GFN2-xTB          :
         :: total energy             -99.241722688507 Eh    ::
         :: gradient norm              0.001338050170 Eh/a0 ::
         :: HOMO-LUMO gap              0.731714006976 eV    ::
         :: SCC energy              -100.606512479759 Eh    ::
         :: -> dispersion             -0.075310883927 Eh    ::
         :: repulsion energy           1.363118988386 Eh    ::

    * Orbital Energies and Occupations

         #    Occupation            Energy/Eh            Energy/eV
      -------------------------------------------------------------
         1        2.0000           -0.8149184             -22.1751
       ...           ...                  ...                  ...
        78        1.9980           -0.5340264             -14.5316
        79        1.9978           -0.5329201             -14.5015
        80        1.9978           -0.5324800             -14.4895
        81        1.9971           -0.5284694             -14.3804
        82        1.9952           -0.5203481             -14.1594
        83        1.9943           -0.5175693             -14.0838
        84        1.9933           -0.5148886             -14.0108
        85        1.9786           -0.4964995             -13.5104
        86        1.9698           -0.4909424             -13.3592
        87        1.9313           -0.4776283             -12.9969
        88        1.8557           -0.4652411             -12.6599
        89        1.7797           -0.4578792             -12.4595
        90        1.4667           -0.4408211             -11.9954 (HOMO)
        91        0.6696           -0.4139311             -11.2636 (LUMO)
        92        0.3633           -0.4009650             -10.9108
        93        0.0135           -0.3458039              -9.4098
        94        0.0032           -0.3226661              -8.7802
        95        0.0026           -0.3198994              -8.7049
        96        0.0024           -0.3185584              -8.6684
        97        0.0013           -0.3085575              -8.3963
        98        0.0000           -0.1971863              -5.3657
        99        0.0000           -0.1888544              -5.1390
       100                         -0.1426873              -3.8827
       101                         -0.0745932              -2.0298
       ...                                ...                  ...
       171                          0.5660660              15.4034
      -------------------------------------------------------------
                  HL-Gap            0.0268900 Eh            0.7317 eV

     #   Z          covCN         q      C6AA      α(0)
     1   7 N        1.774    -0.263    27.644     7.786
     2   6 C        2.826     0.101    25.750     8.315
     3   6 C        3.907     0.007    20.409     6.421
     4   6 C        2.974     0.003    27.947     8.671
     5   6 C        2.920    -0.079    29.985     8.980
     6   6 C        2.862     0.131    25.135     8.218
     7   8 O        1.706    -0.227    17.759     5.690
     8   6 C        3.644     0.026    20.468     6.503
     9   6 C        2.864     0.130    25.159     8.222
    10   8 O        1.706    -0.225    17.738     5.686
    11   6 C        3.645     0.026    20.473     6.503
    12   6 C        2.913    -0.074    29.858     8.960
    13   6 C        2.921    -0.053    29.325     8.880
    14   6 C        3.812    -0.066    21.749     6.638
    15   6 C        3.802    -0.070    21.832     6.652
    16   6 C        2.843     0.011    27.773     8.637
    17   7 N        2.729     0.014    21.012     6.808
    18   6 C        3.756    -0.017    20.937     6.524
    19   6 C        3.808    -0.069    21.814     6.649
    20   6 C        2.976     0.003    27.960     8.674
    21   6 C        2.917    -0.036    28.892     8.814
    22   6 C        1.999    -0.072    32.991     9.276
    23   6 C        2.876     0.145    24.838     8.170
    24   8 O        1.705    -0.206    17.431     5.637
    25   6 C        3.659     0.023    20.462     6.491
    26   6 C        2.863     0.135    25.042     8.203
    27   8 O        1.706    -0.216    17.585     5.662
    28   6 C        3.646     0.026    20.474     6.503
    29   6 C        2.915    -0.084    30.095     8.996
    30   6 C        3.700    -0.072    22.046     6.715
    31   6 C        3.853    -0.007    20.673     6.467
    32   6 C        3.756    -0.120    22.845     6.815
    33   6 C        3.755    -0.119    22.828     6.813
    34   1 H        0.926     0.054     2.276     2.359
    35   1 H        0.924     0.055     2.255     2.348
    36   1 H        0.925     0.083     1.949     2.183
    37   1 H        0.924     0.049     2.331     2.388
    38   1 H        0.924     0.057     2.240     2.340
    39   1 H        0.925     0.083     1.950     2.184
    40   1 H        0.924     0.049     2.331     2.388
    41   1 H        0.926     0.053     2.282     2.362
    42   1 H        0.926     0.039     2.463     2.454
    43   1 H        0.925     0.062     2.179     2.308
    44   1 H        0.924     0.055     2.253     2.347
    45   1 H        0.925     0.067     2.122     2.278
    46   1 H        0.924     0.083     1.947     2.182
    47   1 H        0.922     0.009     2.904     2.665
    48   1 H        0.926     0.074     2.046     2.237
    49   1 H        0.924     0.069     2.102     2.267
    50   1 H        0.924     0.071     2.079     2.255
    51   1 H        0.924     0.060     2.202     2.321
    52   1 H        0.924     0.058     2.221     2.331
    53   1 H        0.926     0.065     2.137     2.286
    54   1 H        0.000    -0.110    14.768     7.027
    55   1 H        0.924     0.066     2.127     2.281
    56   1 H        0.924     0.067     2.118     2.276
    57   1 H        0.925     0.082     1.956     2.187
    58   1 H        0.925     0.085     1.924     2.169
    59   1 H        0.924     0.051     2.303     2.373
    60   1 H        0.924     0.055     2.254     2.348
    61   1 H        0.926     0.052     2.300     2.371
    62   1 H        0.924     0.078     2.000     2.211
    63   1 H        0.924     0.081     1.971     2.196
    64   1 H        0.925     0.081     1.970     2.195
    65   1 H        0.924     0.039     2.464     2.455
    66   1 H        0.925     0.071     2.074     2.252
    67   1 H        0.925     0.036     2.500     2.472
    68   1 H        0.925     0.053     2.285     2.364
    69   1 H        0.925     0.060     2.202     2.321
    70   1 H        0.925     0.036     2.505     2.475
    71   1 H        0.925     0.056     2.242     2.342
    72   1 H        0.860     0.160     1.333     1.809

Wiberg/Mayer (AO) data.
largest (>0.10) Wiberg bond orders for each atom

     #   Z sym  total        # sym  WBO       # sym  WBO       # sym  WBO
 ---------------------------------------------------------------------------
     1   7 N    3.048 --     2 C    1.960    72 H    0.940
     2   6 C    3.927 --     1 N    1.960     3 C    0.995    47 H    0.892
     3   6 C    3.974 --     2 C    0.995     4 C    0.968    14 C    0.958
                            31 C    0.941
     4   6 C    3.946 --    13 C    1.411     5 C    1.369     3 C    0.968
     5   6 C    3.960 --     6 C    1.399     4 C    1.369    34 H    0.957
     6   6 C    3.903 --     5 C    1.399     9 C    1.218     7 O    1.104
     7   8 O    2.256 --     6 C    1.104     8 C    0.977
     8   6 C    3.930 --     7 O    0.977    36 H    0.976    35 H    0.973
                            37 H    0.973
     9   6 C    3.898 --    12 C    1.390     6 C    1.218    10 O    1.106
    10   8 O    2.254 --     9 C    1.106    11 C    0.977
    11   6 C    3.930 --    10 O    0.977    39 H    0.977    40 H    0.973
                            38 H    0.973
    12   6 C    3.960 --    13 C    1.403     9 C    1.390    41 H    0.964
    13   6 C    3.951 --     4 C    1.411    12 C    1.403    42 H    0.962
    14   6 C    3.972 --    15 C    0.981    44 H    0.972    43 H    0.969
                             3 C    0.958
    15   6 C    3.986 --    16 C    1.059    14 C    0.981    45 H    0.962
                            46 H    0.926
    16   6 C    3.617 --    17 N    1.410    15 C    1.059    48 H    0.956
    17   7 N    3.492 --    16 C    1.410    30 C    0.997    18 C    0.988
    18   6 C    3.954 --    17 N    0.988    50 H    0.967    19 C    0.966
                            49 H    0.963
    19   6 C    3.967 --    20 C    1.004    51 H    0.971    52 H    0.970
                            18 C    0.966
    20   6 C    3.879 --    29 C    1.390    21 C    1.338    19 C    1.004
    21   6 C    3.917 --    22 C    1.469    20 C    1.338    53 H    0.954
    22   6 C    3.186 --    21 C    1.469    23 C    1.379    54 H    0.137
    23   6 C    3.852 --    22 C    1.379    26 C    1.163    24 O    1.129
    24   8 O    2.253 --    23 C    1.129    25 C    0.968
    25   6 C    3.910 --    57 H    0.978    56 H    0.969    55 H    0.969
                            24 O    0.968
    26   6 C    3.841 --    29 C    1.391    23 C    1.163    27 O    1.113
    27   8 O    2.252 --    26 C    1.113    28 C    0.972
    28   6 C    3.923 --    58 H    0.976    59 H    0.973    60 H    0.973
                            27 O    0.972
    29   6 C    3.953 --    26 C    1.391    20 C    1.390    61 H    0.958
    30   6 C    3.956 --    17 N    0.997    64 H    0.977    62 H    0.966
                            63 H    0.960
    31   6 C    3.970 --    33 C    1.009    32 C    1.008    65 H    0.959
                             3 C    0.941
    32   6 C    3.976 --    31 C    1.008    67 H    0.981    68 H    0.981
                            66 H    0.972
    33   6 C    3.982 --    31 C    1.009    70 H    0.982    71 H    0.979
                            69 H    0.977
    34   1 H    0.996 --     5 C    0.957
    35   1 H    0.993 --     8 C    0.973
    36   1 H    0.992 --     8 C    0.976
    37   1 H    0.993 --     8 C    0.973
    38   1 H    0.992 --    11 C    0.973
    39   1 H    0.992 --    11 C    0.977
    40   1 H    0.993 --    11 C    0.973
    41   1 H    0.995 --    12 C    0.964
    42   1 H    0.998 --    13 C    0.962
    43   1 H    0.995 --    14 C    0.969
    44   1 H    0.996 --    14 C    0.972
    45   1 H    0.995 --    15 C    0.962
    46   1 H    0.971 --    15 C    0.926
    47   1 H    0.986 --     2 C    0.892
    48   1 H    0.994 --    16 C    0.956
    49   1 H    0.990 --    18 C    0.963
    50   1 H    0.994 --    18 C    0.967
    51   1 H    0.994 --    19 C    0.971
    52   1 H    0.993 --    19 C    0.970
    53   1 H    0.982 --    21 C    0.954
    54   1 H    0.158 --    22 C    0.137
    55   1 H    0.987 --    25 C    0.969
    56   1 H    0.987 --    25 C    0.969
    57   1 H    0.992 --    25 C    0.978
    58   1 H    0.992 --    28 C    0.976
    59   1 H    0.992 --    28 C    0.973
    60   1 H    0.992 --    28 C    0.973
    61   1 H    0.990 --    29 C    0.958
    62   1 H    0.985 --    30 C    0.966
    63   1 H    0.987 --    30 C    0.960
    64   1 H    0.993 --    30 C    0.977
    65   1 H    0.991 --    31 C    0.959
    66   1 H    0.990 --    32 C    0.972
    67   1 H    0.996 --    32 C    0.981
    68   1 H    0.993 --    32 C    0.981
    69   1 H    0.993 --    33 C    0.977
    70   1 H    0.997 --    33 C    0.982
    71   1 H    0.993 --    33 C    0.979
    72   1 H    0.969 --     1 N    0.940
 ---------------------------------------------------------------------------

molecular dipole:
                 x           y           z       tot (Debye)
 q only:       -0.501      -0.941      -0.514
   full:       -0.269      -1.106      -0.669       3.356

           -------------------------------------------------
          | TOTAL ENERGY              -99.241722688507 Eh   |
          | GRADIENT NORM               0.001338050170 Eh/α |
          | HOMO-LUMO GAP               0.731714006976 eV   |
           -------------------------------------------------

 * finished run on 2024/04/06 at 11:14:31.933
