   * xtb version 6.6.1 (8d0f1dd) compiled by 'conda@1efc2f54142f' on 2023-08-01
          program call               : xtb xtbopt.xyz --opt crude --input .xc2 --gfn2

   ID    Z sym.   atoms
    1    7 N      1, 17
    2    6 C      2-6, 8, 9, 11-16, 18-23, 25, 26, 28-33
    3    8 O      7, 10, 24, 27
    4    1 H      34-72

          :  Hamiltonian                  GFN2-xTB          :
 * total energy  :   -99.2421522 Eh     change        0.3836931E-11 Eh
 * total energy  :   -99.2512808 Eh     change       -0.9128608E-02 Eh
 * total energy  :   -99.2845664 Eh     change       -0.3328562E-01 Eh
 * total energy  :   -99.3597402 Eh     change       -0.7517381E-01 Eh
 * total energy  :   -99.3744273 Eh     change       -0.1468708E-01 Eh
 * total energy  :   -99.3972058 Eh     change       -0.2277849E-01 Eh
 * total energy  :   -99.4037226 Eh     change       -0.6516793E-02 Eh
 * total energy  :   -99.3963934 Eh     change        0.7329175E-02 Eh
 * total energy  :   -99.4060773 Eh     change       -0.9683886E-02 Eh
 * total energy  :   -99.4057623 Eh     change        0.3150330E-03 Eh
 * total energy  :   -99.4066769 Eh     change       -0.9146414E-03 Eh
 * total energy  :   -99.4066871 Eh     change       -0.1018846E-04 Eh
   *** GEOMETRY OPTIMIZATION CONVERGED AFTER 12 ITERATIONS ***

 final structure:
================
72
 xtb: 6.6.1 (8d0f1dd)
N           -1.88020831695953        2.79690746920589        2.23431110025913
C           -1.82969814722999        2.12195951337162        1.18529753509536
C           -2.97933657177745        1.91734148052650        0.23829336940604
C           -3.45732527994252        0.47475669193754        0.31994304797662
C           -4.40715838965808        0.00925640979407       -0.59172718956925
C           -4.88649155702839       -1.28876952436470       -0.53906433422974
O           -5.81263013182227       -1.81197351570908       -1.36832975750250
C           -6.44461898822852       -0.97832502905461       -2.31111769062056
C           -4.39107438852007       -2.17829678165508        0.45266295751524
O           -4.90540112087371       -3.42383307047795        0.42254034160684
C           -4.52440264505423       -4.34740619306980        1.41528877271588
C           -3.44791663569691       -1.71064822071657        1.35337405559959
C           -2.99094388795650       -0.39974311306760        1.28900098637875
C           -2.42353823768779        2.20416963102503       -1.18102830813777
C           -1.48617422798848        1.11220831066467       -1.72787854052613
C           -0.15597977642574        1.09590974975423       -1.07914559094371
N            0.49577336779071        0.00904015934202       -0.68342854400194
C            1.87399463242389        0.09518319331166       -0.26326826798234
C            2.83853644504265       -0.38624068491632       -1.36374447200938
C            4.25738771133523       -0.16915326645566       -0.91948755585197
C            4.87937688844207        1.05029194092217       -1.13140207954862
C            6.17695039478225        1.27107254245538       -0.69786478591987
C            6.87899373593642        0.27469814231785       -0.03480982145101
O            8.13891560527229        0.37652604394541        0.42633171142750
C            8.85139262841971        1.57368473893108        0.21092519782978
C            6.24597448996035       -0.97873005725556        0.19360574819034
O            6.99663642202500       -1.89150319665950        0.84189080276359
C            6.46466573154976       -3.17168359065765        1.08632927722918
C            4.94754293235639       -1.17593482564729       -0.24943339484187
C           -0.10575996949919       -1.30224057849738       -0.71663281057386
C           -4.18814923194581        2.85401048193380        0.53489002338760
C           -4.83120240009178        2.52553950330580        1.88014252230431
C           -3.82492450089086        4.33541916456734        0.48367141559399
H           -4.78936254721303        0.67799024659526       -1.34479558295063
H           -6.94701874839349       -0.13523458918052       -1.82741530996112
H           -7.18610464154733       -1.60472454053761       -2.80307915978844
H           -5.73655185008638       -0.60480525803529       -3.05802826194461
H           -4.77223465830325       -3.98441477976481        2.41707452115075
H           -5.09461241431795       -5.25067077375926        1.20760416313348
H           -3.45478499298224       -4.57482534249770        1.36277090337580
H           -3.06760683416732       -2.35710037770128        2.12762429570029
H           -2.28147398574931       -0.06375586845463        2.02942080557442
H           -3.26059960685515        2.30595176323153       -1.87063683142592
H           -1.89121183081353        3.15589996051976       -1.16619880798758
H           -1.97747205765774        0.14284988054828       -1.66470386267563
H           -1.32683958796878        1.33773347081600       -2.79040480100778
H           -0.90852110658317        1.63012604460167        0.81396675299326
H            0.39928648771922        2.02254716137554       -1.06278506869245
H            2.01580572736025       -0.51098773931263        0.63570191933886
H            2.11263433936952        1.13171706242185       -0.01623939277482
H            2.64303236272342        0.18280958732193       -2.27435204881538
H            2.66318626467633       -1.44227027117036       -1.57119453721810
H            4.35806212314798        1.83948428465799       -1.65188253180894
H            6.62980390047443        2.23311286464384       -0.87263755416632
H            8.36835464788874        2.42198126096812        0.70546390047588
H            8.96088216663133        1.78632405215453       -0.85682268026467
H            9.83414203163665        1.41271804619156        0.64981076503938
H            7.25337173895618       -3.72410122701024        1.59315386272192
H            5.58400728067047       -3.12285615266516        1.73495198376120
H            6.20610293555533       -3.68349827395252        0.15413904175944
H            4.46227927981852       -2.12583505494238       -0.08902927562723
H           -0.25917689904559       -1.64098727700828       -1.74343659085092
H           -1.06960658874905       -1.29324636302311       -0.20155997778494
H            0.54919914780480       -2.00847559668273       -0.21291899087029
H           -4.92998739785517        2.66201716687915       -0.24844722773867
H           -4.13034901581245        2.72151628807357        2.68505093424565
H           -5.13814714189887        1.48346121013565        1.92511515150250
H           -5.70990947173857        3.14821663405068        2.02560617097191
H           -3.06637329586856        4.56518344121980        1.22557956838593
H           -3.46831340504936        4.63267285283569       -0.49904436944609
H           -4.70853190899759        4.92656582880423        0.70913772085016
H           -1.03205142983890        2.88755638104565        2.78456952385143

          :  Hamiltonian                  GFN2-xTB          :
         :: total energy             -99.406687105004 Eh    ::
         :: gradient norm              0.001506105880 Eh/a0 ::
         :: HOMO-LUMO gap              1.674057378218 eV    ::
         :: SCC energy              -100.786227979368 Eh    ::
         :: -> dispersion             -0.075133598812 Eh    ::
         :: repulsion energy           1.378297094919 Eh    ::

    * Orbital Energies and Occupations

         #    Occupation            Energy/Eh            Energy/eV
      -------------------------------------------------------------
         1        2.0000           -0.8088953             -22.0112
       ...           ...                  ...                  ...
        78        1.9983           -0.5290627             -14.3965
        79        1.9983           -0.5287575             -14.3882
        80        1.9982           -0.5282169             -14.3735
        81        1.9975           -0.5229260             -14.2295
        82        1.9971           -0.5202437             -14.1566
        83        1.9960           -0.5152198             -14.0198
        84        1.9952           -0.5124769             -13.9452
        85        1.9943           -0.5097593             -13.8713
        86        1.9811           -0.4905880             -13.3496
        87        1.9788           -0.4887081             -13.2984
        88        1.9395           -0.4718125             -12.8387
        89        1.8731           -0.4595315             -12.5045
        90        1.8438           -0.4559889             -12.4081 (HOMO)
        91        0.3902           -0.3944684             -10.7340 (LUMO)
        92        0.0152           -0.3397504              -9.2451
        93        0.0036           -0.3166642              -8.6169
        94        0.0030           -0.3137133              -8.5366
        95        0.0027           -0.3124599              -8.5025
        96        0.0024           -0.3102587              -8.4426
        97        0.0000           -0.1909823              -5.1969
        98        0.0000           -0.1876443              -5.1061
        99                         -0.1359605              -3.6997
       100                         -0.0686107              -1.8670
       101                         -0.0644043              -1.7525
       ...                                ...                  ...
       171                          0.5762209              15.6798
      -------------------------------------------------------------
                  HL-Gap            0.0615205 Eh            1.6741 eV

     #   Z          covCN         q      C6AA      α(0)
     1   7 N        1.774    -0.267    27.759     7.802
     2   6 C        2.826     0.101    25.755     8.316
     3   6 C        3.907     0.006    20.412     6.422
     4   6 C        2.974     0.003    27.962     8.674
     5   6 C        2.920    -0.080    29.992     8.981
     6   6 C        2.862     0.130    25.156     8.221
     7   8 O        1.706    -0.230    17.808     5.698
     8   6 C        3.644     0.027    20.450     6.500
     9   6 C        2.864     0.129    25.181     8.225
    10   8 O        1.706    -0.228    17.788     5.694
    11   6 C        3.645     0.027    20.456     6.500
    12   6 C        2.914    -0.075    29.869     8.962
    13   6 C        2.921    -0.054    29.334     8.882
    14   6 C        3.812    -0.065    21.737     6.636
    15   6 C        3.802    -0.069    21.820     6.650
    16   6 C        2.843     0.008    27.841     8.647
    17   7 N        2.729     0.011    21.070     6.817
    18   6 C        3.757    -0.016    20.920     6.521
    19   6 C        3.808    -0.070    21.842     6.653
    20   6 C        2.970    -0.000    28.033     8.685
    21   6 C        2.922    -0.049    29.219     8.864
    22   6 C        2.914    -0.068    29.682     8.934
    23   6 C        2.865     0.134    25.078     8.209
    24   8 O        1.706    -0.222    17.678     5.677
    25   6 C        3.646     0.025    20.489     6.505
    26   6 C        2.863     0.133    25.087     8.210
    27   8 O        1.706    -0.225    17.725     5.684
    28   6 C        3.645     0.027    20.454     6.500
    29   6 C        2.919    -0.079    29.987     8.980
    30   6 C        3.699    -0.071    22.023     6.711
    31   6 C        3.853    -0.007    20.673     6.467
    32   6 C        3.756    -0.119    22.836     6.814
    33   6 C        3.755    -0.118    22.818     6.811
    34   1 H        0.926     0.052     2.293     2.368
    35   1 H        0.924     0.054     2.272     2.357
    36   1 H        0.925     0.081     1.965     2.192
    37   1 H        0.924     0.048     2.350     2.397
    38   1 H        0.924     0.055     2.258     2.350
    39   1 H        0.925     0.081     1.966     2.193
    40   1 H        0.924     0.048     2.348     2.396
    41   1 H        0.926     0.052     2.300     2.371
    42   1 H        0.926     0.038     2.477     2.461
    43   1 H        0.925     0.060     2.197     2.318
    44   1 H        0.924     0.053     2.277     2.360
    45   1 H        0.925     0.066     2.131     2.283
    46   1 H        0.924     0.080     1.981     2.201
    47   1 H        0.922     0.007     2.934     2.679
    48   1 H        0.926     0.070     2.090     2.261
    49   1 H        0.924     0.067     2.117     2.275
    50   1 H        0.924     0.067     2.115     2.274
    51   1 H        0.924     0.055     2.254     2.348
    52   1 H        0.924     0.056     2.251     2.346
    53   1 H        0.926     0.045     2.388     2.416
    54   1 H        0.926     0.058     2.217     2.328
    55   1 H        0.924     0.054     2.268     2.355
    56   1 H        0.924     0.056     2.245     2.343
    57   1 H        0.925     0.082     1.954     2.186
    58   1 H        0.925     0.082     1.959     2.189
    59   1 H        0.924     0.049     2.336     2.390
    60   1 H        0.924     0.053     2.288     2.365
    61   1 H        0.926     0.048     2.351     2.398
    62   1 H        0.924     0.076     2.017     2.221
    63   1 H        0.924     0.080     1.980     2.200
    64   1 H        0.925     0.080     1.981     2.201
    65   1 H        0.924     0.037     2.484     2.465
    66   1 H        0.925     0.070     2.087     2.259
    67   1 H        0.925     0.036     2.508     2.477
    68   1 H        0.925     0.051     2.306     2.375
    69   1 H        0.925     0.059     2.209     2.324
    70   1 H        0.925     0.034     2.525     2.485
    71   1 H        0.925     0.055     2.263     2.352
    72   1 H        0.860     0.157     1.353     1.822

Wiberg/Mayer (AO) data.
largest (>0.10) Wiberg bond orders for each atom

     #   Z sym  total        # sym  WBO       # sym  WBO       # sym  WBO
 ---------------------------------------------------------------------------
     1   7 N    3.044 --     2 C    1.957    72 H    0.941
     2   6 C    3.927 --     1 N    1.957     3 C    0.995    47 H    0.895
     3   6 C    3.976 --     2 C    0.995     4 C    0.968    14 C    0.958
                            31 C    0.942
     4   6 C    3.950 --    13 C    1.415     5 C    1.368     3 C    0.968
     5   6 C    3.962 --     6 C    1.402     4 C    1.368    34 H    0.958
     6   6 C    3.906 --     5 C    1.402     9 C    1.221     7 O    1.100
     7   8 O    2.255 --     6 C    1.100     8 C    0.978
     8   6 C    3.932 --     7 O    0.978    36 H    0.977    35 H    0.974
                            37 H    0.973
     9   6 C    3.902 --    12 C    1.393     6 C    1.221    10 O    1.102
    10   8 O    2.253 --     9 C    1.102    11 C    0.978
    11   6 C    3.931 --    10 O    0.978    39 H    0.977    40 H    0.974
                            38 H    0.973
    12   6 C    3.962 --    13 C    1.402     9 C    1.393    41 H    0.964
    13   6 C    3.955 --     4 C    1.415    12 C    1.402    42 H    0.963
    14   6 C    3.973 --    15 C    0.981    44 H    0.972    43 H    0.969
                             3 C    0.958
    15   6 C    3.987 --    16 C    1.059    14 C    0.981    45 H    0.962
                            46 H    0.928
    16   6 C    3.599 --    17 N    1.400    15 C    1.059    48 H    0.957
    17   7 N    3.480 --    16 C    1.400    30 C    0.998    18 C    0.988
    18   6 C    3.956 --    17 N    0.988    50 H    0.968    19 C    0.967
                            49 H    0.964
    19   6 C    3.976 --    20 C    1.008    52 H    0.972    51 H    0.971
                            18 C    0.967
    20   6 C    3.944 --    21 C    1.409    29 C    1.381    19 C    1.008
    21   6 C    3.950 --    22 C    1.418    20 C    1.409    53 H    0.968
    22   6 C    3.960 --    21 C    1.418    23 C    1.383    54 H    0.963
    23   6 C    3.895 --    22 C    1.383    26 C    1.220    24 O    1.111
    24   8 O    2.255 --    23 C    1.111    25 C    0.976
    25   6 C    3.928 --    57 H    0.977    24 O    0.976    56 H    0.973
                            55 H    0.973
    26   6 C    3.899 --    29 C    1.394    23 C    1.220    27 O    1.104
    27   8 O    2.254 --    26 C    1.104    28 C    0.978
    28   6 C    3.932 --    27 O    0.978    58 H    0.977    59 H    0.973
                            60 H    0.973
    29   6 C    3.959 --    26 C    1.394    20 C    1.381    61 H    0.962
    30   6 C    3.957 --    17 N    0.998    64 H    0.978    62 H    0.966
                            63 H    0.960
    31   6 C    3.972 --    33 C    1.009    32 C    1.008    65 H    0.960
                             3 C    0.942
    32   6 C    3.978 --    31 C    1.008    67 H    0.982    68 H    0.981
                            66 H    0.973
    33   6 C    3.984 --    31 C    1.009    70 H    0.983    71 H    0.980
                            69 H    0.977
    34   1 H    0.996 --     5 C    0.958
    35   1 H    0.993 --     8 C    0.974
    36   1 H    0.993 --     8 C    0.977
    37   1 H    0.994 --     8 C    0.973
    38   1 H    0.993 --    11 C    0.973
    39   1 H    0.993 --    11 C    0.977
    40   1 H    0.993 --    11 C    0.974
    41   1 H    0.996 --    12 C    0.964
    42   1 H    0.998 --    13 C    0.963
    43   1 H    0.995 --    14 C    0.969
    44   1 H    0.996 --    14 C    0.972
    45   1 H    0.995 --    15 C    0.962
    46   1 H    0.970 --    15 C    0.928
    47   1 H    0.987 --     2 C    0.895
    48   1 H    0.995 --    16 C    0.957
    49   1 H    0.990 --    18 C    0.964
    50   1 H    0.995 --    18 C    0.968
    51   1 H    0.996 --    19 C    0.971
    52   1 H    0.996 --    19 C    0.972
    53   1 H    0.997 --    21 C    0.968
    54   1 H    0.995 --    22 C    0.963
    55   1 H    0.992 --    25 C    0.973
    56   1 H    0.992 --    25 C    0.973
    57   1 H    0.992 --    25 C    0.977
    58   1 H    0.993 --    28 C    0.977
    59   1 H    0.993 --    28 C    0.973
    60   1 H    0.993 --    28 C    0.973
    61   1 H    0.996 --    29 C    0.962
    62   1 H    0.985 --    30 C    0.966
    63   1 H    0.987 --    30 C    0.960
    64   1 H    0.993 --    30 C    0.978
    65   1 H    0.993 --    31 C    0.960
    66   1 H    0.991 --    32 C    0.973
    67   1 H    0.997 --    32 C    0.982
    68   1 H    0.994 --    32 C    0.981
    69   1 H    0.993 --    33 C    0.977
    70   1 H    0.997 --    33 C    0.983
    71   1 H    0.994 --    33 C    0.980
    72   1 H    0.970 --     1 N    0.941
 ---------------------------------------------------------------------------

molecular dipole:
                 x           y           z       tot (Debye)
 q only:        0.665      -0.058      -0.810
   full:        0.960      -0.106      -0.985       3.506

           -------------------------------------------------
          | TOTAL ENERGY              -99.406687105004 Eh   |
          | GRADIENT NORM               0.001506105880 Eh/α |
          | HOMO-LUMO GAP               1.674057378218 eV   |
           -------------------------------------------------

 * finished run on 2024/04/06 at 11:14:34.165
