   * xtb version 6.6.1 (8d0f1dd) compiled by 'conda@1efc2f54142f' on 2023-08-01
          program call               : xtb struc.xyz --opt loose --input .xc1 --gfn2

   ID    Z sym.   atoms
    1    6 C      1, 3, 5-7, 10, 11, 14
    2    7 N      2, 4, 9, 13
    3    8 O      8, 12
    4    1 H      15-25
constraining bond 4 18 to    4.0600000 Å, actual value:    2.1494719 Å

          :  Hamiltonian                  GFN2-xTB          :
 * total energy  :   -35.7304566 Eh     change       -0.6650680E-10 Eh
 * total energy  :   -38.5843728 Eh     change       -0.2853916E+01 Eh
 * total energy  :   -40.6719748 Eh     change       -0.2087602E+01 Eh
 * total energy  :   -41.6647625 Eh     change       -0.9927877E+00 Eh
 * total energy  :   -41.9142456 Eh     change       -0.2494831E+00 Eh
 * total energy  :   -41.9320335 Eh     change       -0.1778783E-01 Eh
 * total energy  :   -41.9409125 Eh     change       -0.8878981E-02 Eh
 * total energy  :   -41.9549342 Eh     change       -0.1402179E-01 Eh
 * total energy  :   -41.9649715 Eh     change       -0.1003727E-01 Eh
 * total energy  :   -41.9719504 Eh     change       -0.6978849E-02 Eh
 * total energy  :   -42.0479123 Eh     change       -0.1124583E-01 Eh
 * total energy  :   -42.0618565 Eh     change       -0.1394418E-01 Eh
 * total energy  :   -42.0695371 Eh     change       -0.7680626E-02 Eh
 * total energy  :   -42.0720253 Eh     change       -0.2488140E-02 Eh
 * total energy  :   -42.0729921 Eh     change       -0.9668145E-03 Eh
 * total energy  :   -42.0733874 Eh     change       -0.3952732E-03 Eh
 * total energy  :   -42.0735271 Eh     change       -0.1397187E-03 Eh
 * total energy  :   -42.0735963 Eh     change       -0.6920324E-04 Eh
 * total energy  :   -42.0736238 Eh     change       -0.2754307E-04 Eh
   *** GEOMETRY OPTIMIZATION CONVERGED AFTER 29 ITERATIONS ***

 final structure:
================
25
 xtb: 6.6.1 (8d0f1dd)
C            3.06125050167680        1.25258183645531        0.03103167959766
N            2.36875830575449       -0.04954979104093       -0.01729562406535
C            3.21671759916644       -1.01820365920379       -0.04536345873696
N            0.69164371092738       -2.60226943710253        0.00071989284367
C            0.24375823928623       -1.40224104969060       -0.00019210128430
C            0.96918568787831       -0.12846340510246       -0.00593646124018
C            0.17368105456267        1.09410738169363       -0.01549906203768
O            0.62264432201609        2.23553694677769       -0.04010264115981
N           -1.20218679244374        0.96611331343805       -0.00010000738487
C           -2.01525223970567        2.16783192046209       -0.00288249746206
C           -1.90637547166861       -0.22174022110004        0.00849219860009
O           -3.11040124720320       -0.24170128530865        0.01580993627289
N           -1.13768083338444       -1.35978675133579        0.00633567120723
C           -1.83360201471044       -2.62920212066460        0.00637929843558
H            3.50931003424665        1.38990728030236        1.01608742195452
H            3.83647271114152        1.29078594302373       -0.73349177796016
H            2.35889329679120        2.07201041049159       -0.14459779754819
H            4.30931280066206       -0.78563615262937       -0.04926824865329
H           -1.36307365327069        3.03807976944689        0.00532017105236
H           -2.65132887669798        2.17817760075707       -0.88988008967187
H           -2.66615537465427        2.16992475262902        0.87312770516496
H           -1.55200829247755       -3.20924487711299        0.88638519357451
H           -1.55759452744515       -3.20550419459465       -0.87802765008885
H           -2.90447112913089       -2.43220362851327        0.01022822347011
H            1.69893370278273       -2.75107204047778       -0.00610835698003

          :  Hamiltonian                  GFN2-xTB          :
         :: total energy             -42.073623829479 Eh    ::
         :: gradient norm              0.002426654724 Eh/a0 ::
         :: HOMO-LUMO gap              0.379140109958 eV    ::
         :: SCC energy               -42.569892852187 Eh    ::
         :: -> dispersion             -0.022241926679 Eh    ::
         :: repulsion energy           0.495917858943 Eh    ::

    * Orbital Energies and Occupations

         #    Occupation            Energy/Eh            Energy/eV
      -------------------------------------------------------------
         1        2.0000           -0.8954723             -24.3670
       ...           ...                  ...                  ...
        25        1.9997           -0.6768906             -18.4191
        26        1.9989           -0.6568685             -17.8743
        27        1.9983           -0.6503384             -17.6966
        28        1.9977           -0.6452516             -17.5582
        29        1.9949           -0.6329763             -17.2242
        30        1.9911           -0.6241256             -16.9833
        31        1.9888           -0.6204503             -16.8833
        32        1.9473           -0.5955810             -16.2066
        33        1.9146           -0.5876822             -15.9916
        34        1.8868           -0.5829790             -15.8637
        35        1.8342           -0.5764946             -15.6872
        36        1.8143           -0.5745210             -15.6335
        37        1.5065           -0.5561043             -15.1324 (HOMO)
        38        1.1175           -0.5421712             -14.7532 (LUMO)
        39        0.0097           -0.4540984             -12.3566
        40        0.0005           -0.4073609             -11.0849
        41        0.0001           -0.3859676             -10.5027
        42        0.0000           -0.3027261              -8.2376
        43                         -0.2281413              -6.2080
        44                         -0.1759230              -4.7871
        45                         -0.1493288              -4.0634
        46                         -0.1168500              -3.1797
        47                         -0.0698956              -1.9020
        48                         -0.0513878              -1.3983
       ...                                ...                  ...
        67                          0.5073853              13.8067
      -------------------------------------------------------------
                  HL-Gap            0.0139331 Eh            0.3791 eV

     #   Z          covCN         q      C6AA      α(0)
     1   6 C        3.752    -0.101    22.484     6.762
     2   7 N        2.728     0.135    18.950     6.465
     3   6 C        1.913    -0.064    32.853     9.257
     4   7 N        1.809    -0.245    27.228     7.731
     5   6 C        2.826     0.160    24.529     8.115
     6   6 C        2.892    -0.020    28.509     8.754
     7   6 C        2.767     0.265    22.526     7.773
     8   8 O        0.861    -0.359    20.868     6.125
     9   7 N        2.744    -0.060    22.393     7.028
    10   6 C        3.709    -0.063    21.850     6.681
    11   6 C        2.723     0.320    21.566     7.602
    12   8 O        0.860    -0.332    20.375     6.052
    13   7 N        2.776    -0.030    21.823     6.938
    14   6 C        3.711    -0.076    22.091     6.717
    15   1 H        0.924     0.112     1.679     2.026
    16   1 H        0.925     0.110     1.696     2.037
    17   1 H        0.924     0.173     1.246     1.745
    18   1 H        0.920     0.137     1.481     1.903
    19   1 H        0.925     0.125     1.573     1.962
    20   1 H        0.924     0.118     1.633     1.998
    21   1 H        0.924     0.118     1.631     1.997
    22   1 H        0.924     0.121     1.602     1.979
    23   1 H        0.924     0.121     1.604     1.980
    24   1 H        0.925     0.129     1.542     1.942
    25   1 H        0.860     0.204     1.084     1.631

Wiberg/Mayer (AO) data.
largest (>0.10) Wiberg bond orders for each atom

     #   Z sym  total        # sym  WBO       # sym  WBO       # sym  WBO
 ---------------------------------------------------------------------------
     1   6 C    3.788 --    16 H    0.959    15 H    0.957     2 N    0.923
                            17 H    0.874
     2   7 N    3.727 --     3 C    1.624     6 C    1.133     1 C    0.923
     3   6 C    2.800 --     2 N    1.624    18 H    0.906
     4   7 N    2.751 --     5 C    1.620    25 H    0.898
     5   6 C    3.956 --     4 N    1.620    13 N    1.127     6 C    1.109
     6   6 C    3.597 --     2 N    1.133     7 C    1.120     5 C    1.109
     7   6 C    3.937 --     8 O    1.581     9 N    1.129     6 C    1.120
     8   8 O    1.922 --     7 C    1.581     9 N    0.111
     9   7 N    3.482 --     7 C    1.129    11 C    1.090    10 C    0.980
                             8 O    0.111    12 O    0.105
    10   6 C    3.861 --     9 N    0.980    19 H    0.956    21 H    0.941
                            20 H    0.940
    11   6 C    3.957 --    12 O    1.668    13 N    1.115     9 N    1.090
    12   8 O    1.969 --    11 C    1.668    13 N    0.111     9 N    0.105
    13   7 N    3.486 --     5 C    1.127    11 C    1.115    14 C    0.983
                            12 O    0.111
    14   6 C    3.861 --    13 N    0.983    24 H    0.954    23 H    0.938
                            22 H    0.938
    15   1 H    0.982 --     1 C    0.957
    16   1 H    0.981 --     1 C    0.959
    17   1 H    0.939 --     1 C    0.874
    18   1 H    0.935 --     3 C    0.906
    19   1 H    0.976 --    10 C    0.956
    20   1 H    0.958 --    10 C    0.940
    21   1 H    0.959 --    10 C    0.941
    22   1 H    0.956 --    14 C    0.938
    23   1 H    0.956 --    14 C    0.938
    24   1 H    0.974 --    14 C    0.954
    25   1 H    0.948 --     4 N    0.898
 ---------------------------------------------------------------------------

molecular dipole:
                 x           y           z       tot (Debye)
 q only:        1.675      -0.608       0.012
   full:        2.158      -0.355       0.023       5.559

           -------------------------------------------------
          | TOTAL ENERGY              -42.073623829479 Eh   |
          | GRADIENT NORM               0.002426654724 Eh/α |
          | HOMO-LUMO GAP               0.379140109958 eV   |
           -------------------------------------------------

 * finished run on 2024/06/05 at 19:57:56.774
