   * xtb version 6.6.1 (8d0f1dd) compiled by 'conda@1efc2f54142f' on 2023-08-01
          program call               : xtb xtbopt.xyz --opt crude --input .xc2 --gfn2

   ID    Z sym.   atoms
    1    6 C      1, 3, 5-7, 10, 11, 14
    2    7 N      2, 4, 9, 13
    3    8 O      8, 12
    4    1 H      15-25
########################################################################
[WARNING] Please study the warnings concerning your input carefully
-1- readin_getIntValue: could not parse ''
########################################################################

          :  Hamiltonian                  GFN2-xTB          :
 * total energy  :   -42.1440403 Eh     change       -0.3552714E-13 Eh
   *** GEOMETRY OPTIMIZATION CONVERGED AFTER 1 ITERATIONS ***

 final structure:
================
25
 xtb: 6.6.1 (8d0f1dd)
C            2.95193538473278        1.25909163239189        0.48408153078249
N            2.21975472748979        0.07983378646393        0.11114774446306
C            2.77050479234230       -1.03347691043204       -0.31936786855626
N            1.83507153572147       -1.93998697737882       -0.58726686324378
C            0.55481129743232       -1.43543495809847       -0.31638183417070
C            0.81806075846604       -0.07401686165749        0.13839751923599
C            0.05658111472081        1.03265406277501        0.50658927607642
O            0.37981392784223        2.14071486297542        0.83948476301238
N           -1.50950985975300        0.82936977577925        0.42629904085624
C           -2.08012633341575        1.41762511514265       -0.78429301854276
C           -2.12066248185966        0.64272195325704        1.49540255640676
O           -2.56249826712834        0.36667558778613        2.51827037649960
N           -0.40549495279920       -2.23788858608292       -0.53484948184169
C           -1.80008086104793       -2.13601925386386       -0.30835834765952
H            2.74566710479031        1.52506568547909        1.52073459046748
H            4.01612770146876        1.06983224175914        0.36340330741949
H            2.65947386406687        2.10344717710695       -0.14038264362087
H            3.82708197291674       -1.18750497165293       -0.43511334036116
H           -1.80368598302119        2.47222561953721       -0.83635955784395
H           -1.66423091266562        0.89535962070862       -1.64604234355476
H           -3.16367700788126        1.32455006182633       -0.77885080829067
H           -2.03161026466670       -1.93128695180075        0.74227564749205
H           -2.22745112322067       -3.10533886280900       -0.57376356674777
H           -2.27280564192211       -1.37555701639762       -0.93742151368787
H            1.96738102149945       -2.88441729120850       -0.91646354669011

          :  Hamiltonian                  GFN2-xTB          :
         :: total energy             -42.144040328889 Eh    ::
         :: gradient norm              0.005009148195 Eh/a0 ::
         :: HOMO-LUMO gap              1.957681051105 eV    ::
         :: SCC energy               -42.709568874306 Eh    ::
         :: -> dispersion             -0.022452159135 Eh    ::
         :: repulsion energy           0.565270035201 Eh    ::

    * Orbital Energies and Occupations

         #    Occupation            Energy/Eh            Energy/eV
      -------------------------------------------------------------
         1        2.0000           -0.9363076             -25.4782
       ...           ...                  ...                  ...
        25        2.0000           -0.6728787             -18.3100
        26        2.0000           -0.6710252             -18.2595
        27        2.0000           -0.6558091             -17.8455
        28        2.0000           -0.6462700             -17.5859
        29        1.9999           -0.6431699             -17.5015
        30        1.9999           -0.6317248             -17.1901
        31        1.9997           -0.6162382             -16.7687
        32        1.9994           -0.6044559             -16.4481
        33        1.9993           -0.6015215             -16.3682
        34        1.9988           -0.5932083             -16.1420
        35        1.9979           -0.5840019             -15.8915
        36        1.8669           -0.5175275             -14.0826
        37        1.8414           -0.5145390             -14.0013 (HOMO)
        38        0.2199           -0.4425955             -12.0436 (LUMO)
        39        0.0685           -0.4228501             -11.5063
        40        0.0052           -0.3815739             -10.3832
        41        0.0032           -0.3737683             -10.1708
        42        0.0000           -0.2997297              -8.1561
        43        0.0000           -0.2513594              -6.8398
        44                         -0.1704264              -4.6375
        45                         -0.1339691              -3.6455
        46                         -0.1026468              -2.7932
        47                         -0.0713971              -1.9428
        48                         -0.0438210              -1.1924
       ...                                ...                  ...
        67                          0.9956518              27.0931
      -------------------------------------------------------------
                  HL-Gap            0.0719435 Eh            1.9577 eV

     #   Z          covCN         q      C6AA      α(0)
     1   6 C        3.694    -0.083    22.280     6.753
     2   7 N        2.820     0.061    20.178     6.672
     3   6 C        2.962     0.077    26.287     8.410
     4   7 N        2.804    -0.075    22.687     7.074
     5   6 C        2.923     0.140    24.950     8.191
     6   6 C        3.035    -0.048    29.144     8.855
     7   6 C        2.747     0.255    22.715     7.804
     8   8 O        0.857    -0.338    20.474     6.067
     9   7 N        2.708    -0.049    22.197     6.997
    10   6 C        3.698    -0.058    21.796     6.677
    11   6 C        1.793     0.325    23.944     7.908
    12   8 O        0.856    -0.118    16.780     5.492
    13   7 N        1.839    -0.222    26.690     7.656
    14   6 C        3.688    -0.035    21.398     6.621
    15   1 H        0.925     0.112     1.681     2.027
    16   1 H        0.925     0.094     1.839     2.121
    17   1 H        0.925     0.113     1.672     2.022
    18   1 H        0.926     0.115     1.657     2.013
    19   1 H        0.924     0.112     1.682     2.028
    20   1 H        0.925     0.099     1.796     2.096
    21   1 H        0.925     0.098     1.804     2.100
    22   1 H        0.924     0.049     2.338     2.391
    23   1 H        0.924     0.093     1.852     2.128
    24   1 H        0.924     0.055     2.259     2.351
    25   1 H        0.860     0.231     0.962     1.537

Wiberg/Mayer (AO) data.
largest (>0.10) Wiberg bond orders for each atom

     #   Z sym  total        # sym  WBO       # sym  WBO       # sym  WBO
 ---------------------------------------------------------------------------
     1   6 C    3.929 --     2 N    0.992    16 H    0.974    15 H    0.958
                            17 H    0.957
     2   7 N    3.660 --     3 C    1.418     6 C    1.071     1 C    0.992
                             4 N    0.113
     3   6 C    3.891 --     2 N    1.418     4 N    1.331    18 H    0.950
     4   7 N    3.562 --     3 C    1.331     5 C    1.073    25 H    0.919
                             2 N    0.113
     5   6 C    3.940 --    13 N    1.625     6 C    1.110     4 N    1.073
     6   6 C    3.817 --     7 C    1.294     5 C    1.110     2 N    1.071
                             8 O    0.119
     7   6 C    3.859 --     8 O    1.729     6 C    1.294     9 N    0.687
     8   8 O    2.108 --     7 C    1.729     6 C    0.119
     9   7 N    3.543 --    11 C    1.586    10 C    0.930     7 C    0.687
                            12 O    0.239
    10   6 C    3.896 --    21 H    0.975    20 H    0.971    19 H    0.964
                             9 N    0.930
    11   6 C    3.759 --    12 O    2.066     9 N    1.586
    12   8 O    2.397 --    11 C    2.066     9 N    0.239
    13   7 N    2.942 --     5 C    1.625    14 C    1.047
    14   6 C    3.951 --    13 N    1.047    23 H    0.964    22 H    0.953
                            24 H    0.950
    15   1 H    0.984 --     1 C    0.958
    16   1 H    0.990 --     1 C    0.974
    17   1 H    0.984 --     1 C    0.957
    18   1 H    0.985 --     3 C    0.950
    19   1 H    0.987 --    10 C    0.964
    20   1 H    0.990 --    10 C    0.971
    21   1 H    0.989 --    10 C    0.975
    22   1 H    0.981 --    14 C    0.953
    23   1 H    0.976 --    14 C    0.964
    24   1 H    0.978 --    14 C    0.950
    25   1 H    0.946 --     4 N    0.919
 ---------------------------------------------------------------------------

molecular dipole:
                 x           y           z       tot (Debye)
 q only:        1.178      -0.630      -0.661
   full:        1.182      -0.588      -0.617       3.706

           -------------------------------------------------
          | TOTAL ENERGY              -42.144040328889 Eh   |
          | GRADIENT NORM               0.005009148195 Eh/α |
          | HOMO-LUMO GAP               1.957681051105 eV   |
           -------------------------------------------------

 * finished run on 2024/06/05 at 20:00:18.326
