   * xtb version 6.6.1 (8d0f1dd) compiled by 'conda@1efc2f54142f' on 2023-08-01
          program call               : xtb struc.xyz --opt loose --input .xc1 --gfn2

   ID    Z sym.   atoms
    1    7 N      1, 17
    2    6 C      2-6, 8, 9, 11-16, 18-23, 25, 26, 28-33
    3    8 O      7, 10, 24, 27
    4    1 H      34-72
constraining bond 26 27 to    3.7600000 Å, actual value:    1.3529414 Å

          :  Hamiltonian                  GFN2-xTB          :
 * total energy  :   -98.3696059 Eh     change       -0.4035485E-08 Eh
 * total energy  :   -98.5286925 Eh     change       -0.1590866E+00 Eh
 * total energy  :   -98.7199108 Eh     change       -0.1912182E+00 Eh
 * total energy  :   -98.8973988 Eh     change       -0.1774881E+00 Eh
 * total energy  :   -99.0407811 Eh     change       -0.1433822E+00 Eh
 * total energy  :   -99.0979646 Eh     change       -0.5718355E-01 Eh
 * total energy  :   -99.1285351 Eh     change       -0.3057045E-01 Eh
 * total energy  :   -99.1696669 Eh     change       -0.4113184E-01 Eh
 * total energy  :   -99.2056230 Eh     change       -0.3595611E-01 Eh
 * total energy  :   -99.2260103 Eh     change       -0.2038735E-01 Eh
 * total energy  :   -99.3572751 Eh     change       -0.1618273E-03 Eh
 * total energy  :   -99.3574474 Eh     change       -0.1722843E-03 Eh
 * total energy  :   -99.3575487 Eh     change       -0.1012617E-03 Eh
 * total energy  :   -99.3577165 Eh     change       -0.1678936E-03 Eh
 * total energy  :   -99.3578340 Eh     change       -0.1174280E-03 Eh
 * total energy  :   -99.3579772 Eh     change       -0.1431812E-03 Eh
 * total energy  :   -99.3580887 Eh     change       -0.1115208E-03 Eh
 * total energy  :   -99.3581242 Eh     change       -0.3551780E-04 Eh
 * total energy  :   -99.3581658 Eh     change       -0.4159566E-04 Eh
   *** GEOMETRY OPTIMIZATION CONVERGED AFTER 89 ITERATIONS ***

 final structure:
================
72
 xtb: 6.6.1 (8d0f1dd)
N           -2.00366739576807        3.00493769450782        2.20453991451987
C           -1.94856483902997        2.24608505696234        1.21404554194706
C           -3.09644159746047        1.98146832495736        0.27875406899329
C           -3.48314411715827        0.51294814684895        0.35718169583873
C           -4.36157261030989       -0.02512696101319       -0.58567426924825
C           -4.76085088941201       -1.34995141219950       -0.52901567905341
O           -5.60807038925022       -1.94615544437964       -1.39319266800526
C           -6.23016862560852       -1.17342982121157       -2.39284010003502
C           -4.26241617681386       -2.18806940166741        0.50523384482818
O           -4.69886843161523       -3.46254558437760        0.47916536184538
C           -4.31410913315559       -4.34081289958533        1.51123087019843
C           -3.39445357239980       -1.64595438858432        1.44011479065012
C           -3.01340616031694       -0.31243821023171        1.36723278325462
C           -2.57310161129133        2.32647018916711       -1.14116029318576
C           -1.60998114408816        1.28695721733879       -1.74097315665437
C           -0.26224965531600        1.30127849235019       -1.13056197262040
N            0.44765824601944        0.23144557850697       -0.80858495135479
C            1.83389987886188        0.34911137900468       -0.42050053463128
C            2.78351546597730       -0.07272999446292       -1.55886908320785
C            4.21252103491249        0.09562991011502       -1.12341561368986
C            4.91493520133045        1.25534229698237       -1.42292735714715
C            6.22307497213314        1.42867413059059       -1.01085139657901
C            6.86125139351012        0.43420848687906       -0.26812671994545
O            8.12743595708834        0.50217141947559        0.18521448078625
C            8.90377726014349        1.64356209842287       -0.10269247216494
C            6.15194776127158       -0.73268376073441        0.04388184269990
O            6.47442790374297       -4.03621828957481        1.80218851995584
C            6.82435975450554       -5.05917279372138        2.31274581002907
C            4.85159677044860       -0.89262148553492       -0.37963161212073
C           -0.09250796724591       -1.10403440926763       -0.91737832163816
C           -4.36327017442047        2.83174660411278        0.59432127354386
C           -4.95181332109722        2.47487791633605        1.95745800350256
C           -4.11588730579371        4.33583434449046        0.51982631409720
H           -4.75013905803051        0.60753166360984       -1.36636670806165
H           -6.81223121637256       -0.35306007898949       -1.96177898818637
H           -6.89998705751464       -1.85503730061789       -2.91324730513130
H           -5.50080080730847       -0.77200595917246       -3.10438522523778
H           -4.64206674306146       -3.97727751419492        2.48957100537378
H           -4.81073454308753       -5.28385986455566        1.29150332337562
H           -3.23060629810059       -4.49624841490692        1.52314431296024
H           -3.01652549582650       -2.25248222690850        2.24702075347755
H           -2.36223333391263        0.08124275244657        2.13224405394694
H           -3.42606636781074        2.42286762870578       -1.81235109632410
H           -2.07365066147506        3.29543230997623       -1.10403428486029
H           -2.06311844138783        0.29807779458068       -1.69599753066564
H           -1.48650062358205        1.54836405175886       -2.80070484443213
H           -1.02885930481852        1.72118831002925        0.89068598770770
H            0.23644804435910        2.25688346980935       -1.05331673441790
H            2.01734565892811       -0.28008513153390        0.45498650832535
H            2.04593232077955        1.38506286189161       -0.14846900669437
H            2.58281956531575        0.54808945003375       -2.43402666626148
H            2.59840931369602       -1.11491666544802       -1.82319671096619
H            4.44265446800698        2.03719606327693       -1.99939631804988
H            6.73904867046647        2.33905036133196       -1.27214461456584
H            8.46267713098140        2.54668496939763        0.32980329617640
H            9.03154719861629        1.77834715552503       -1.18039386109563
H            9.87494135905376        1.46326597211107        0.35462381149103
H            7.44081218448405       -5.80321383675040        1.78485026645301
H            6.55937981381276       -5.32603821365465        3.34828444376540
H            6.64120058455608       -1.50394785728417        0.61573509026465
H            4.33085629796924       -1.80720904647986       -0.13712516080893
H           -0.27595645340865       -1.37093640755752       -1.96040909002548
H           -1.03102387174298       -1.18160592345272       -0.36379127398758
H            0.61675994332629       -1.81272476288961       -0.49769924748843
H           -5.10581855213984        2.57219354109667       -0.16941777610151
H           -4.24853181218534        2.72714168342552        2.74489339582884
H           -5.18840114484339        1.41516571215591        2.01972997280429
H           -5.86691493283241        3.03930992784490        2.11718999254464
H           -3.37296573884486        4.63153259542235        1.25360177184192
H           -3.78856821584840        4.64674642102806       -0.46832306166743
H           -5.04154542120996        4.85950444816491        0.74291555620744
H           -1.15692734442666        3.13310515264956        2.75031788965810

          :  Hamiltonian                  GFN2-xTB          :
         :: total energy             -99.358165792512 Eh    ::
         :: gradient norm              0.003565030077 Eh/a0 ::
         :: HOMO-LUMO gap              1.761000326520 eV    ::
         :: SCC energy              -100.762275948587 Eh    ::
         :: -> dispersion             -0.072405053912 Eh    ::
         :: repulsion energy           1.402946767602 Eh    ::

    * Orbital Energies and Occupations

         #    Occupation            Energy/Eh            Energy/eV
      -------------------------------------------------------------
         1        2.0000           -0.8098983             -22.0385
       ...           ...                  ...                  ...
        78        1.9981           -0.5289213             -14.3927
        79        1.9980           -0.5281096             -14.3706
        80        1.9972           -0.5228361             -14.2271
        81        1.9955           -0.5151954             -14.0192
        82        1.9947           -0.5126342             -13.9495
        83        1.9938           -0.5100504             -13.8792
        84        1.9914           -0.5049029             -13.7391
        85        1.9832           -0.4941615             -13.4468
        86        1.9799           -0.4912467             -13.3675
        87        1.9676           -0.4836408             -13.1605
        88        1.9327           -0.4717689             -12.8375
        89        1.8871           -0.4632036             -12.6044
        90        1.8645           -0.4601168             -12.5204 (HOMO)
        91        0.3753           -0.3954013             -10.7594 (LUMO)
        92        0.0283           -0.3514127              -9.5624
        93        0.0132           -0.3391517              -9.2288
        94        0.0033           -0.3173012              -8.6342
        95        0.0027           -0.3141372              -8.5481
        96        0.0023           -0.3114853              -8.4759
        97        0.0015           -0.3048313              -8.2949
        98        0.0000           -0.1915920              -5.2135
        99        0.0000           -0.1820263              -4.9532
       100                         -0.1361441              -3.7047
       101                         -0.0702323              -1.9111
       ...                                ...                  ...
       171                          0.5754488              15.6588
      -------------------------------------------------------------
                  HL-Gap            0.0647156 Eh            1.7610 eV

     #   Z          covCN         q      C6AA      α(0)
     1   7 N        1.774    -0.268    27.767     7.803
     2   6 C        2.827     0.102    25.737     8.313
     3   6 C        3.907     0.006    20.414     6.422
     4   6 C        2.974     0.002    27.988     8.678
     5   6 C        2.920    -0.080    30.012     8.984
     6   6 C        2.862     0.129    25.167     8.223
     7   8 O        1.706    -0.230    17.809     5.698
     8   6 C        3.644     0.027    20.450     6.500
     9   6 C        2.864     0.129    25.178     8.225
    10   8 O        1.706    -0.228    17.776     5.692
    11   6 C        3.645     0.027    20.462     6.501
    12   6 C        2.914    -0.074    29.848     8.959
    13   6 C        2.921    -0.052    29.304     8.877
    14   6 C        3.812    -0.065    21.729     6.635
    15   6 C        3.802    -0.070    21.835     6.653
    16   6 C        2.844     0.009    27.800     8.641
    17   7 N        2.729     0.017    20.954     6.799
    18   6 C        3.755    -0.017    20.940     6.525
    19   6 C        3.807    -0.071    21.845     6.653
    20   6 C        2.970    -0.000    28.033     8.685
    21   6 C        2.924    -0.037    28.932     8.821
    22   6 C        2.916    -0.062    29.552     8.914
    23   6 C        2.865     0.154    24.659     8.140
    24   8 O        1.706    -0.236    17.911     5.714
    25   6 C        3.644     0.027    20.451     6.500
    26   6 C        2.918    -0.048    29.191     8.860
    27   8 O        0.856    -0.280    19.422     5.909
    28   6 C        2.702     0.180    24.127     8.040
    29   6 C        2.923    -0.035    28.871     8.811
    30   6 C        3.700    -0.071    22.026     6.711
    31   6 C        3.853    -0.007    20.671     6.467
    32   6 C        3.756    -0.118    22.816     6.811
    33   6 C        3.755    -0.120    22.846     6.815
    34   1 H        0.926     0.052     2.295     2.369
    35   1 H        0.924     0.054     2.269     2.356
    36   1 H        0.925     0.082     1.963     2.191
    37   1 H        0.924     0.047     2.356     2.400
    38   1 H        0.924     0.056     2.249     2.345
    39   1 H        0.925     0.081     1.964     2.191
    40   1 H        0.924     0.049     2.335     2.389
    41   1 H        0.926     0.053     2.281     2.362
    42   1 H        0.926     0.040     2.445     2.445
    43   1 H        0.925     0.061     2.186     2.312
    44   1 H        0.924     0.054     2.266     2.354
    45   1 H        0.925     0.068     2.112     2.273
    46   1 H        0.923     0.082     1.963     2.191
    47   1 H        0.922     0.005     2.980     2.700
    48   1 H        0.926     0.071     2.070     2.250
    49   1 H        0.924     0.071     2.069     2.250
    50   1 H        0.924     0.067     2.115     2.275
    51   1 H        0.924     0.053     2.288     2.365
    52   1 H        0.924     0.057     2.238     2.339
    53   1 H        0.926     0.041     2.432     2.439
    54   1 H        0.926     0.051     2.306     2.374
    55   1 H        0.924     0.053     2.289     2.366
    56   1 H        0.924     0.054     2.266     2.354
    57   1 H        0.925     0.078     1.996     2.209
    58   1 H        0.923     0.053     2.281     2.362
    59   1 H        0.923     0.051     2.306     2.375
    60   1 H        0.926     0.082     1.960     2.189
    61   1 H        0.926     0.049     2.333     2.388
    62   1 H        0.924     0.078     1.998     2.210
    63   1 H        0.924     0.079     1.987     2.205
    64   1 H        0.925     0.084     1.938     2.177
    65   1 H        0.924     0.037     2.486     2.466
    66   1 H        0.925     0.068     2.112     2.273
    67   1 H        0.925     0.035     2.513     2.479
    68   1 H        0.925     0.052     2.298     2.371
    69   1 H        0.925     0.064     2.158     2.297
    70   1 H        0.925     0.035     2.517     2.481
    71   1 H        0.925     0.055     2.263     2.353
    72   1 H        0.860     0.158     1.351     1.821

Wiberg/Mayer (AO) data.
largest (>0.10) Wiberg bond orders for each atom

     #   Z sym  total        # sym  WBO       # sym  WBO       # sym  WBO
 ---------------------------------------------------------------------------
     1   7 N    3.037 --     2 C    1.957    72 H    0.941
     2   6 C    3.932 --     1 N    1.957     3 C    0.994    47 H    0.905
     3   6 C    3.975 --     2 C    0.994     4 C    0.971    14 C    0.956
                            31 C    0.942
     4   6 C    3.947 --    13 C    1.413     5 C    1.368     3 C    0.971
     5   6 C    3.962 --     6 C    1.401     4 C    1.368    34 H    0.958
     6   6 C    3.904 --     5 C    1.401     9 C    1.221     7 O    1.099
     7   8 O    2.253 --     6 C    1.099     8 C    0.978
     8   6 C    3.932 --     7 O    0.978    36 H    0.977    35 H    0.973
                            37 H    0.973
     9   6 C    3.900 --    12 C    1.390     6 C    1.221    10 O    1.103
    10   8 O    2.253 --     9 C    1.103    11 C    0.977
    11   6 C    3.931 --    10 O    0.977    39 H    0.977    40 H    0.973
                            38 H    0.973
    12   6 C    3.962 --    13 C    1.406     9 C    1.390    41 H    0.964
    13   6 C    3.953 --     4 C    1.413    12 C    1.406    42 H    0.962
    14   6 C    3.973 --    15 C    0.983    44 H    0.972    43 H    0.968
                             3 C    0.956
    15   6 C    3.986 --    16 C    1.060    14 C    0.983    45 H    0.960
                            46 H    0.925
    16   6 C    3.607 --    17 N    1.421    15 C    1.060    48 H    0.957
    17   7 N    3.493 --    16 C    1.421    30 C    0.997    18 C    0.986
    18   6 C    3.952 --    17 N    0.986    50 H    0.968    19 C    0.966
                            49 H    0.962
    19   6 C    3.975 --    20 C    1.006    51 H    0.973    52 H    0.970
                            18 C    0.966
    20   6 C    3.936 --    21 C    1.402    29 C    1.379    19 C    1.006
    21   6 C    3.970 --    22 C    1.450    20 C    1.402    53 H    0.968
    22   6 C    3.951 --    21 C    1.450    23 C    1.344    54 H    0.964
    23   6 C    3.902 --    22 C    1.344    26 C    1.316    24 O    1.105
    24   8 O    2.246 --    23 C    1.105    25 C    0.977
    25   6 C    3.930 --    57 H    0.977    24 O    0.977    55 H    0.973
                            56 H    0.973
    26   6 C    3.943 --    29 C    1.481    23 C    1.316    60 H    0.962
    27   8 O    2.073 --    28 C    1.984
    28   6 C    3.861 --    27 O    1.984    58 H    0.939    59 H    0.939
    29   6 C    3.973 --    26 C    1.481    20 C    1.379    61 H    0.967
    30   6 C    3.957 --    17 N    0.997    64 H    0.977    62 H    0.966
                            63 H    0.963
    31   6 C    3.972 --    33 C    1.009    32 C    1.008    65 H    0.960
                             3 C    0.942
    32   6 C    3.979 --    31 C    1.008    67 H    0.982    68 H    0.981
                            66 H    0.974
    33   6 C    3.981 --    31 C    1.009    70 H    0.983    71 H    0.980
                            69 H    0.975
    34   1 H    0.996 --     5 C    0.958
    35   1 H    0.993 --     8 C    0.973
    36   1 H    0.993 --     8 C    0.977
    37   1 H    0.994 --     8 C    0.973
    38   1 H    0.992 --    11 C    0.973
    39   1 H    0.993 --    11 C    0.977
    40   1 H    0.993 --    11 C    0.973
    41   1 H    0.995 --    12 C    0.964
    42   1 H    0.998 --    13 C    0.962
    43   1 H    0.995 --    14 C    0.968
    44   1 H    0.996 --    14 C    0.972
    45   1 H    0.994 --    15 C    0.960
    46   1 H    0.970 --    15 C    0.925
    47   1 H    0.986 --     2 C    0.905
    48   1 H    0.995 --    16 C    0.957
    49   1 H    0.990 --    18 C    0.962
    50   1 H    0.995 --    18 C    0.968
    51   1 H    0.996 --    19 C    0.973
    52   1 H    0.995 --    19 C    0.970
    53   1 H    0.997 --    21 C    0.968
    54   1 H    0.996 --    22 C    0.964
    55   1 H    0.992 --    25 C    0.973
    56   1 H    0.992 --    25 C    0.973
    57   1 H    0.993 --    25 C    0.977
    58   1 H    0.987 --    28 C    0.939
    59   1 H    0.987 --    28 C    0.939
    60   1 H    0.991 --    26 C    0.962
    61   1 H    0.996 --    29 C    0.967
    62   1 H    0.985 --    30 C    0.966
    63   1 H    0.987 --    30 C    0.963
    64   1 H    0.993 --    30 C    0.977
    65   1 H    0.992 --    31 C    0.960
    66   1 H    0.991 --    32 C    0.974
    67   1 H    0.997 --    32 C    0.982
    68   1 H    0.994 --    32 C    0.981
    69   1 H    0.992 --    33 C    0.975
    70   1 H    0.997 --    33 C    0.983
    71   1 H    0.993 --    33 C    0.980
    72   1 H    0.970 --     1 N    0.941
 ---------------------------------------------------------------------------

molecular dipole:
                 x           y           z       tot (Debye)
 q only:        0.586      -0.000      -0.795
   full:        1.051      -0.150      -0.853       3.461

           -------------------------------------------------
          | TOTAL ENERGY              -99.358165792512 Eh   |
          | GRADIENT NORM               0.003565030077 Eh/α |
          | HOMO-LUMO GAP               1.761000326520 eV   |
           -------------------------------------------------

 * finished run on 2024/04/06 at 11:14:39.649
