   * xtb version 6.6.1 (8d0f1dd) compiled by 'conda@1efc2f54142f' on 2023-08-01
          program call               : xtb struc.xyz --opt loose --input .xc1 --gfn2

   ID    Z sym.   atoms
    1    7 N      1, 17
    2    6 C      2-6, 8, 9, 11-16, 18-23, 25, 26, 28-33
    3    8 O      7, 10, 24, 27
    4    1 H      34-72
constraining bond 38 39 to    3.2800000 Å, actual value:    1.7801364 Å

          :  Hamiltonian                  GFN2-xTB          :
 * total energy  :   -99.0024592 Eh     change       -0.4035485E-08 Eh
 * total energy  :   -99.1625228 Eh     change       -0.1600636E+00 Eh
 * total energy  :   -99.2363223 Eh     change       -0.7379946E-01 Eh
 * total energy  :   -99.2542156 Eh     change       -0.1789333E-01 Eh
 * total energy  :   -99.2571281 Eh     change       -0.2912497E-02 Eh
 * total energy  :   -99.2579017 Eh     change       -0.7735153E-03 Eh
 * total energy  :   -99.2586177 Eh     change       -0.7160923E-03 Eh
 * total energy  :   -99.2590972 Eh     change       -0.4794233E-03 Eh
 * total energy  :   -99.2598707 Eh     change       -0.7735292E-03 Eh
 * total energy  :   -99.2614571 Eh     change       -0.1586424E-02 Eh
 * total energy  :   -99.3322264 Eh     change       -0.5498551E-03 Eh
 * total energy  :   -99.3324889 Eh     change       -0.2625075E-03 Eh
 * total energy  :   -99.3326924 Eh     change       -0.2035147E-03 Eh
 * total energy  :   -99.3328743 Eh     change       -0.1818600E-03 Eh
 * total energy  :   -99.3330451 Eh     change       -0.1708172E-03 Eh
 * total energy  :   -99.3331514 Eh     change       -0.1062900E-03 Eh
 * total energy  :   -99.3332805 Eh     change       -0.1291376E-03 Eh
 * total energy  :   -99.3333586 Eh     change       -0.7813132E-04 Eh
 * total energy  :   -99.3333976 Eh     change       -0.3893759E-04 Eh
   *** GEOMETRY OPTIMIZATION CONVERGED AFTER 49 ITERATIONS ***

 final structure:
================
72
 xtb: 6.6.1 (8d0f1dd)
N           -1.95115946100835        2.77261210824274        2.28805189996806
C           -1.88176139054461        2.04778623804453        1.27256596345095
C           -3.00818432227562        1.82723251604108        0.30045472782754
C           -3.43620935984332        0.36533896079598        0.33482495023987
C           -4.32349882352982       -0.09377917045518       -0.68401436525721
C           -4.86152513141376       -1.36483936730500       -0.65133703878343
O           -5.76758139196895       -1.85847620021240       -1.52443039077360
C           -6.31323392097804       -0.99989147820039       -2.50228244762378
C           -4.47494832444140       -2.25518178624458        0.37301358884723
O           -5.15681105474237       -3.37060995245589        0.55890896615225
C           -4.85683747524958       -4.23367602098294        1.48747976789112
C           -3.44631574112994       -1.89704805251442        1.38737997338722
C           -3.02460569808388       -0.47091906257092        1.31445496790922
C           -2.43308568500481        2.19035115286906       -1.09367162665016
C           -1.46884423053732        1.14596300333398       -1.68288163723508
C           -0.14639307336118        1.11856969337144       -1.01877569467259
N            0.52133561264792        0.01939454494354       -0.67463925300867
C            1.90282939661692        0.09609038967775       -0.26491014780459
C            2.86102455349143       -0.32412633371593       -1.39633108339349
C            4.28346550917864       -0.12820801960050       -0.95321029965846
C            4.92563904164617        1.08096375175757       -1.15950595024472
C            6.22592988869387        1.27772983051236       -0.72042073661217
C            6.90803208148223        0.26744076246417       -0.05878474891249
O            8.16826527805088        0.34750057177551        0.41039598214569
C            8.89721027136408        1.53727403766158        0.21544459698946
C            6.25579765830318       -0.97649825642465        0.16069971789630
O            6.99132813619237       -1.90367911100003        0.80880144485601
C            6.43933835141420       -3.17613452546165        1.04566845385499
C            4.95616757153585       -1.15004205894075       -0.28679136768688
C           -0.06000034426586       -1.29500292179797       -0.79578335652716
C           -4.26223431066331        2.70239406240039        0.59586527843879
C           -4.89755428913166        2.34137902287190        1.93652058382375
C           -3.97091260233803        4.20042253646122        0.55293111916605
H           -4.62554795645413        0.59016366891357       -1.45603463202262
H           -6.79471572934105       -0.13103727312902       -2.04503955771571
H           -7.05946812134172       -1.59294081873101       -3.02652864428182
H           -5.55089182267014       -0.66761240830238       -3.21375091975952
H           -3.91044511745862       -2.17272688593478        2.35741187292797
H           -5.60870490036512       -4.95645782203048        1.69819748543524
H           -3.94886607218715       -4.21790919258680        2.05655182036870
H           -2.55842563203780       -2.54699886740084        1.30485495483846
H           -2.37437216006842       -0.13093794444645        2.10432384720990
H           -3.25905537069262        2.32038743066398       -1.79207231988533
H           -1.91578987865785        3.14740035390439       -1.01763358428336
H           -1.94354809339128        0.16641435133216       -1.67986939509386
H           -1.30137803828431        1.42996736201608       -2.73043002683279
H           -0.96022516499008        1.52693673915424        0.94938657689622
H            0.38800487545305        2.05267302547824       -0.93296055141314
H            2.05844548440658       -0.55243337299664        0.60198925095820
H            2.13494072440820        1.12117296492224        0.03042668067008
H            2.65597385687012        0.28994877844245       -2.27484142479201
H            2.68693342868092       -1.36903412990248       -1.65575658810629
H            4.41872919465390        1.88055106416472       -1.67811674181396
H            6.70212629361916        2.22687637917702       -0.90316717127917
H            8.41950231729810        2.38638470797016        0.71388127440355
H            9.02206673529934        1.76056504274639       -0.84838952045024
H            9.87269842657422        1.35865065955642        0.66351474027601
H            7.21716229311894       -3.74198116109726        1.55467010948676
H            5.55601533940910       -3.11726410547424        1.69008868239791
H            6.17806226917578       -3.68134679294077        0.11051813602101
H            4.45453039545718       -2.09269227526693       -0.13280586062144
H           -0.15888621196435       -1.59196155720100       -1.84279511744158
H           -1.04769337615144       -1.31215630427725       -0.33120738683113
H            0.57768739907858       -2.01593925924373       -0.28976235949795
H           -4.99088636332447        2.47760827434070       -0.19160963766725
H           -4.20974600991123        2.56395612212066        2.74553496780076
H           -5.16259086746651        1.28771576882958        1.97582393755263
H           -5.80205737994226        2.92668697657032        2.07931048813072
H           -3.22423093084048        4.45996193896640        1.29666883083553
H           -3.62853723946504        4.52059313319480       -0.42746200164687
H           -4.88235052291514        4.74684269640332        0.78094447219266
H           -1.11261719668655        2.87378138925406        2.85170831763534

          :  Hamiltonian                  GFN2-xTB          :
         :: total energy             -99.333397567796 Eh    ::
         :: gradient norm              0.003077869606 Eh/a0 ::
         :: HOMO-LUMO gap              1.188677607957 eV    ::
         :: SCC energy              -100.699197307120 Eh    ::
         :: -> dispersion             -0.075185227601 Eh    ::
         :: repulsion energy           1.364142354596 Eh    ::

    * Orbital Energies and Occupations

         #    Occupation            Energy/Eh            Energy/eV
      -------------------------------------------------------------
         1        2.0000           -0.8503858             -23.1402
       ...           ...                  ...                  ...
        78        1.9989           -0.5281519             -14.3717
        79        1.9988           -0.5271814             -14.3453
        80        1.9986           -0.5247213             -14.2784
        81        1.9986           -0.5240486             -14.2601
        82        1.9975           -0.5152811             -14.0215
        83        1.9967           -0.5106758             -13.8962
        84        1.9965           -0.5096749             -13.8690
        85        1.9959           -0.5072531             -13.8031
        86        1.9816           -0.4834476             -13.1553
        87        1.9804           -0.4824479             -13.1281
        88        1.9506           -0.4675580             -12.7229
        89        1.8662           -0.4510756             -12.2744
        90        1.6315           -0.4329106             -11.7801 (HOMO)
        91        0.4382           -0.3892275             -10.5914 (LUMO)
        92        0.1487           -0.3694182             -10.0524
        93        0.0179           -0.3348225              -9.1110
        94        0.0035           -0.3087150              -8.4006
        95        0.0032           -0.3073113              -8.3624
        96        0.0027           -0.3047875              -8.2937
        97        0.0000           -0.2308783              -6.2825
        98        0.0000           -0.1822162              -4.9584
        99                         -0.1308024              -3.5593
       100                         -0.0759417              -2.0665
       101                         -0.0631669              -1.7189
       ...                                ...                  ...
       171                          0.5822234              15.8431
      -------------------------------------------------------------
                  HL-Gap            0.0436831 Eh            1.1887 eV

     #   Z          covCN         q      C6AA      α(0)
     1   7 N        1.774    -0.274    27.916     7.824
     2   6 C        2.827     0.099    25.807     8.324
     3   6 C        3.908     0.005    20.433     6.425
     4   6 C        2.961     0.009    27.815     8.651
     5   6 C        2.917    -0.096    30.404     9.042
     6   6 C        2.847     0.134    25.075     8.207
     7   8 O        1.706    -0.243    18.031     5.733
     8   6 C        3.644     0.028    20.447     6.500
     9   6 C        2.887     0.080    26.217     8.394
    10   8 O        1.711    -0.080    15.549     5.324
    11   6 C        2.761    -0.002    28.048     8.673
    12   6 C        3.806    -0.066    21.758     6.640
    13   6 C        2.906    -0.067    29.665     8.931
    14   6 C        3.813    -0.064    21.721     6.634
    15   6 C        3.802    -0.068    21.810     6.649
    16   6 C        2.843     0.002    27.980     8.669
    17   7 N        2.729     0.005    21.178     6.835
    18   6 C        3.756    -0.015    20.904     6.519
    19   6 C        3.808    -0.070    21.836     6.652
    20   6 C        2.970    -0.002    28.064     8.689
    21   6 C        2.922    -0.050    29.235     8.867
    22   6 C        2.914    -0.068    29.697     8.936
    23   6 C        2.865     0.132    25.103     8.213
    24   8 O        1.706    -0.225    17.736     5.686
    25   6 C        3.645     0.026    20.470     6.502
    26   6 C        2.863     0.132    25.113     8.214
    27   8 O        1.706    -0.228    17.780     5.693
    28   6 C        3.645     0.028    20.431     6.497
    29   6 C        2.920    -0.080    30.006     8.983
    30   6 C        3.700    -0.068    21.974     6.704
    31   6 C        3.853    -0.007    20.675     6.467
    32   6 C        3.756    -0.119    22.830     6.813
    33   6 C        3.755    -0.119    22.835     6.814
    34   1 H        0.926     0.052     2.293     2.368
    35   1 H        0.924     0.054     2.268     2.355
    36   1 H        0.925     0.080     1.974     2.197
    37   1 H        0.924     0.049     2.338     2.391
    38   1 H        0.922     0.070     2.089     2.261
    39   1 H        0.927     0.084     1.943     2.179
    40   1 H        0.926     0.056     2.245     2.343
    41   1 H        0.923     0.056     2.244     2.343
    42   1 H        0.926     0.040     2.450     2.448
    43   1 H        0.925     0.059     2.209     2.324
    44   1 H        0.924     0.054     2.274     2.358
    45   1 H        0.925     0.065     2.144     2.290
    46   1 H        0.923     0.077     2.011     2.217
    47   1 H        0.922     0.004     2.989     2.704
    48   1 H        0.926     0.067     2.124     2.279
    49   1 H        0.924     0.065     2.147     2.291
    50   1 H        0.924     0.067     2.122     2.278
    51   1 H        0.924     0.054     2.271     2.357
    52   1 H        0.924     0.054     2.272     2.357
    53   1 H        0.926     0.044     2.399     2.422
    54   1 H        0.926     0.057     2.235     2.338
    55   1 H        0.924     0.053     2.287     2.365
    56   1 H        0.924     0.054     2.266     2.354
    57   1 H        0.925     0.081     1.971     2.195
    58   1 H        0.925     0.080     1.977     2.199
    59   1 H        0.924     0.047     2.363     2.404
    60   1 H        0.924     0.051     2.310     2.377
    61   1 H        0.926     0.045     2.384     2.415
    62   1 H        0.924     0.074     2.044     2.236
    63   1 H        0.924     0.076     2.017     2.221
    64   1 H        0.925     0.077     2.014     2.219
    65   1 H        0.924     0.035     2.510     2.478
    66   1 H        0.925     0.068     2.112     2.272
    67   1 H        0.925     0.032     2.554     2.499
    68   1 H        0.925     0.050     2.319     2.381
    69   1 H        0.925     0.062     2.180     2.309
    70   1 H        0.925     0.034     2.529     2.487
    71   1 H        0.925     0.053     2.283     2.363
    72   1 H        0.860     0.155     1.368     1.833

Wiberg/Mayer (AO) data.
largest (>0.10) Wiberg bond orders for each atom

     #   Z sym  total        # sym  WBO       # sym  WBO       # sym  WBO
 ---------------------------------------------------------------------------
     1   7 N    3.035 --     2 C    1.953    72 H    0.943
     2   6 C    3.927 --     1 N    1.953     3 C    0.994    47 H    0.904
     3   6 C    3.979 --     2 C    0.994     4 C    0.968    14 C    0.957
                            31 C    0.945
     4   6 C    3.967 --    13 C    1.658     5 C    1.210     3 C    0.968
     5   6 C    3.809 --     6 C    1.413     4 C    1.210    34 H    0.959
     6   6 C    3.899 --     5 C    1.413     9 C    1.244     7 O    1.091
     7   8 O    2.254 --     6 C    1.091     8 C    0.975
     8   6 C    3.932 --    36 H    0.977     7 O    0.975    35 H    0.975
                            37 H    0.975
     9   6 C    3.772 --     6 C    1.244    10 O    1.166    12 C    1.025
                            11 C    0.216
    10   8 O    2.545 --    11 C    1.264     9 C    1.166
    11   6 C    3.579 --    10 O    1.264    39 H    0.970    40 H    0.967
                             9 C    0.216
    12   6 C    3.987 --    13 C    1.036     9 C    1.025    41 H    0.926
                            38 H    0.920
    13   6 C    3.842 --     4 C    1.658    12 C    1.036    42 H    0.962
    14   6 C    3.974 --    15 C    0.982    44 H    0.972    43 H    0.968
                             3 C    0.957
    15   6 C    3.987 --    16 C    1.059    14 C    0.982    45 H    0.961
                            46 H    0.929
    16   6 C    3.561 --    17 N    1.382    15 C    1.059    48 H    0.958
    17   7 N    3.458 --    16 C    1.382    30 C    1.000    18 C    0.989
    18   6 C    3.956 --    17 N    0.989    50 H    0.968    19 C    0.967
                            49 H    0.964
    19   6 C    3.976 --    20 C    1.008    51 H    0.972    52 H    0.972
                            18 C    0.967
    20   6 C    3.949 --    21 C    1.413    29 C    1.378    19 C    1.008
    21   6 C    3.954 --    22 C    1.415    20 C    1.413    53 H    0.968
    22   6 C    3.962 --    21 C    1.415    23 C    1.387    54 H    0.963
    23   6 C    3.900 --    22 C    1.387    26 C    1.223    24 O    1.106
    24   8 O    2.255 --    23 C    1.106    25 C    0.977
    25   6 C    3.930 --    57 H    0.977    24 O    0.977    55 H    0.973
                            56 H    0.973
    26   6 C    3.903 --    29 C    1.398    23 C    1.223    27 O    1.099
    27   8 O    2.254 --    26 C    1.099    28 C    0.980
    28   6 C    3.934 --    27 O    0.980    58 H    0.977    59 H    0.974
                            60 H    0.974
    29   6 C    3.962 --    26 C    1.398    20 C    1.378    61 H    0.963
    30   6 C    3.961 --    17 N    1.000    64 H    0.978    62 H    0.967
                            63 H    0.964
    31   6 C    3.977 --    32 C    1.009    33 C    1.009    65 H    0.961
                             3 C    0.945
    32   6 C    3.983 --    31 C    1.009    67 H    0.983    68 H    0.982
                            66 H    0.976
    33   6 C    3.985 --    31 C    1.009    70 H    0.983    71 H    0.981
                            69 H    0.977
    34   1 H    0.996 --     5 C    0.959
    35   1 H    0.995 --     8 C    0.975
    36   1 H    0.993 --     8 C    0.977
    37   1 H    0.995 --     8 C    0.975
    38   1 H    0.975 --    12 C    0.920
    39   1 H    0.992 --    11 C    0.970
    40   1 H    0.997 --    11 C    0.967
    41   1 H    0.970 --    12 C    0.926
    42   1 H    0.998 --    13 C    0.962
    43   1 H    0.995 --    14 C    0.968
    44   1 H    0.996 --    14 C    0.972
    45   1 H    0.995 --    15 C    0.961
    46   1 H    0.969 --    15 C    0.929
    47   1 H    0.989 --     2 C    0.904
    48   1 H    0.995 --    16 C    0.958
    49   1 H    0.991 --    18 C    0.964
    50   1 H    0.995 --    18 C    0.968
    51   1 H    0.996 --    19 C    0.972
    52   1 H    0.996 --    19 C    0.972
    53   1 H    0.998 --    21 C    0.968
    54   1 H    0.995 --    22 C    0.963
    55   1 H    0.993 --    25 C    0.973
    56   1 H    0.992 --    25 C    0.973
    57   1 H    0.993 --    25 C    0.977
    58   1 H    0.993 --    28 C    0.977
    59   1 H    0.994 --    28 C    0.974
    60   1 H    0.994 --    28 C    0.974
    61   1 H    0.997 --    29 C    0.963
    62   1 H    0.984 --    30 C    0.967
    63   1 H    0.988 --    30 C    0.964
    64   1 H    0.994 --    30 C    0.978
    65   1 H    0.994 --    31 C    0.961
    66   1 H    0.992 --    32 C    0.976
    67   1 H    0.998 --    32 C    0.983
    68   1 H    0.995 --    32 C    0.982
    69   1 H    0.994 --    33 C    0.977
    70   1 H    0.998 --    33 C    0.983
    71   1 H    0.994 --    33 C    0.981
    72   1 H    0.972 --     1 N    0.943
 ---------------------------------------------------------------------------

molecular dipole:
                 x           y           z       tot (Debye)
 q only:       -0.180      -0.571      -0.670
   full:        0.109      -0.701      -0.851       2.814

           -------------------------------------------------
          | TOTAL ENERGY              -99.333397567796 Eh   |
          | GRADIENT NORM               0.003077869606 Eh/α |
          | HOMO-LUMO GAP               1.188677607957 eV   |
           -------------------------------------------------

 * finished run on 2024/04/06 at 11:15:04.068
