   * xtb version 6.6.1 (8d0f1dd) compiled by 'conda@1efc2f54142f' on 2023-08-01
          program call               : xtb xtbopt.xyz --opt crude --input .xc2 --gfn2

   ID    Z sym.   atoms
    1    7 N      1, 17
    2    6 C      2-6, 8, 9, 11-16, 18-23, 25, 26, 28-33
    3    8 O      7, 10, 24, 27
    4    1 H      34-72
########################################################################
[WARNING] Please study the warnings concerning your input carefully
-1- readin_getIntValue: could not parse ''
########################################################################

          :  Hamiltonian                  GFN2-xTB          :
 * total energy  :   -99.3337892 Eh     change       -0.8213874E-11 Eh
 * total energy  :   -99.3358569 Eh     change       -0.2067723E-02 Eh
 * total energy  :   -99.3370136 Eh     change       -0.1156724E-02 Eh
 * total energy  :   -99.3374986 Eh     change       -0.4849774E-03 Eh
   *** GEOMETRY OPTIMIZATION CONVERGED AFTER 4 ITERATIONS ***

 final structure:
================
72
 xtb: 6.6.1 (8d0f1dd)
N           -1.94972180246653        2.78037436272004        2.28442682345928
C           -1.87364432898416        2.06372465446973        1.26338821913692
C           -2.99851942773312        1.84022245377770        0.28970585558780
C           -3.41866495218758        0.37741693256467        0.32839921484521
C           -4.32611739448255       -0.09445926318338       -0.66587655262349
C           -4.87278240562734       -1.36037212236896       -0.59889568005103
O           -5.77378791014188       -1.86232859404528       -1.47381387053099
C           -6.30329752870832       -1.01930044728073       -2.47298584613124
C           -4.50158629775406       -2.24178364266536        0.44550550939921
O           -5.16508806384748       -3.38142519248174        0.55552692401404
C           -4.93230020180593       -4.31788626124854        1.43021203217197
C           -3.43865527762948       -1.86853752002844        1.43012262433343
C           -2.98616237830388       -0.45323598279630        1.30099622689281
C           -2.42725979990640        2.20322437246174       -1.10508912491218
C           -1.46600033602806        1.15477369845592       -1.69311132163315
C           -0.14380911841403        1.12330706660651       -1.02852938403355
N            0.52038085436047        0.02305718526912       -0.68058860688927
C            1.90117589878671        0.09825801450404       -0.26739765510140
C            2.86215270375687       -0.32130803196199       -1.39671410546584
C            4.28431484930551       -0.12599034722361       -0.95180541757753
C            4.92738325501392        1.08275492372776       -1.15795740542158
C            6.22800956092551        1.27862331698458       -0.71938611746594
C            6.91004902620390        0.26767923238419       -0.05874578777511
O            8.17071958431364        0.34659875798031        0.40961296305104
C            8.90005729093058        1.53639894497770        0.21623568798907
C            6.25715590634627       -0.97592095208396        0.16029757423794
O            6.99310930130241       -1.90408578608530        0.80670112189805
C            6.44127649878357       -3.17663234151880        1.04322349589705
C            4.95701783695977       -1.14840469297420       -0.28620267454633
C           -0.06325889713639       -1.29054874976066       -0.79889987732118
C           -4.25809933684085        2.70578657839612        0.58919069593826
C           -4.89171910044795        2.33709926571157        1.92894525722363
C           -3.97465487834797        4.20514809622045        0.55180134222343
H           -4.62501611056958        0.57227934482318       -1.45467848649429
H           -6.78905207045546       -0.14122531620298       -2.03772352822798
H           -7.04495056565036       -1.61848415399209       -2.99752944679942
H           -5.53283025969930       -0.70051100343389       -3.18197878995335
H           -3.82399812633844       -2.01266972427083        2.45504621729146
H           -5.64128466500101       -5.13231684683761        1.44340887734956
H           -4.11076797928163       -4.27023246611431        2.13486452568380
H           -2.57658388585996       -2.55267698763311        1.34168151679984
H           -2.32468882601978       -0.10640795262389        2.07916775430302
H           -3.25487515475008        2.33220447054162       -1.80175966054338
H           -1.90825631038611        3.15946620079707       -1.03175065546946
H           -1.94361724408302        0.17665616389958       -1.68817021137467
H           -1.29838646898263        1.43632185557104       -2.74124176896088
H           -0.94908268460769        1.54962104122624        0.93883842357366
H            0.39317658265268        2.05582336869033       -0.94278696469633
H            2.05398927630781       -0.55130925846424        0.59913953621126
H            2.13312646813028        1.12285431652692        0.02967236704687
H            2.65903729169230        0.29342875998747       -2.27521477808542
H            2.68837605346689       -1.36600661836130       -1.65730842536847
H            4.42100885195104        1.88295445743954       -1.67616584995671
H            6.70477891494012        2.22751630796766       -0.90210491045717
H            8.42268449321355        2.38498934512334        0.71588005625293
H            9.02507301414910        1.76118604651505       -0.84726327758033
H            9.87549240990366        1.35676796665769        0.66405302019357
H            7.21936327642051       -3.74251225574606        1.55181085272865
H            5.55811894518056       -3.11820861321429        1.68787596457884
H            6.17989283014704       -3.68156131888590        0.10793466111422
H            4.45525779998453       -2.09100327239594       -0.13213242697992
H           -0.15856479531724       -1.59147272648604       -1.84494216799829
H           -1.05263433317650       -1.30416532440163       -0.33786377461639
H            0.57105351550349       -2.01079711597704       -0.28772169522485
H           -4.98595953418121        2.47878506948642       -0.19843649139667
H           -4.20507986268948        2.55952421634677        2.73901340141943
H           -5.15364287030913        1.28254692333669        1.96501536918320
H           -5.79828387327259        2.91878595253255        2.07366192361042
H           -3.22910671339810        4.46475202340524        1.29657910561650
H           -3.63325695667407        4.52955563771691       -0.42744890412458
H           -4.88825502847647        4.74687454070067        0.78183292850816
H           -1.11341293765757        2.88057853874569        2.85171841462546

          :  Hamiltonian                  GFN2-xTB          :
         :: total energy             -99.337498604552 Eh    ::
         :: gradient norm              0.009425075593 Eh/a0 ::
         :: HOMO-LUMO gap              1.173305205586 eV    ::
         :: SCC energy              -100.697446578894 Eh    ::
         :: -> dispersion             -0.075149570267 Eh    ::
         :: repulsion energy           1.358683076194 Eh    ::

    * Orbital Energies and Occupations

         #    Occupation            Energy/Eh            Energy/eV
      -------------------------------------------------------------
         1        2.0000           -0.8493305             -23.1115
       ...           ...                  ...                  ...
        78        1.9989           -0.5272322             -14.3467
        79        1.9989           -0.5269306             -14.3385
        80        1.9986           -0.5240534             -14.2602
        81        1.9986           -0.5235661             -14.2470
        82        1.9975           -0.5147696             -14.0076
        83        1.9968           -0.5104565             -13.8902
        84        1.9966           -0.5093941             -13.8613
        85        1.9960           -0.5068785             -13.7929
        86        1.9819           -0.4829632             -13.1421
        87        1.9818           -0.4829154             -13.1408
        88        1.9515           -0.4671391             -12.7115
        89        1.8679           -0.4505681             -12.2606
        90        1.6222           -0.4316971             -11.7471 (HOMO)
        91        0.4399           -0.3885790             -10.5738 (LUMO)
        92        0.1510           -0.3689567             -10.0398
        93        0.0183           -0.3344647              -9.1012
        94        0.0034           -0.3076189              -8.3707
        95        0.0032           -0.3067828              -8.3480
        96        0.0027           -0.3042596              -8.2793
        97        0.0000           -0.2299457              -6.2571
        98        0.0000           -0.1816908              -4.9441
        99                         -0.1304265              -3.5491
       100                         -0.0765479              -2.0830
       101                         -0.0628273              -1.7096
       ...                                ...                  ...
       171                          0.5826962              15.8560
      -------------------------------------------------------------
                  HL-Gap            0.0431182 Eh            1.1733 eV

     #   Z          covCN         q      C6AA      α(0)
     1   7 N        1.774    -0.274    27.929     7.826
     2   6 C        2.827     0.098    25.810     8.325
     3   6 C        3.909     0.005    20.433     6.425
     4   6 C        2.961     0.009    27.813     8.650
     5   6 C        2.916    -0.095    30.397     9.041
     6   6 C        2.847     0.134    25.071     8.206
     7   8 O        1.706    -0.243    18.033     5.733
     8   6 C        3.644     0.028    20.446     6.500
     9   6 C        2.865     0.079    26.226     8.395
    10   8 O        1.711    -0.076    15.501     5.316
    11   6 C        2.742     0.002    27.963     8.658
    12   6 C        3.806    -0.066    21.759     6.640
    13   6 C        2.907    -0.068    29.701     8.936
    14   6 C        3.813    -0.064    21.719     6.633
    15   6 C        3.802    -0.068    21.808     6.649
    16   6 C        2.842     0.001    27.987     8.670
    17   7 N        2.729     0.005    21.182     6.835
    18   6 C        3.755    -0.015    20.903     6.519
    19   6 C        3.808    -0.070    21.835     6.652
    20   6 C        2.970    -0.002    28.066     8.690
    21   6 C        2.922    -0.050    29.236     8.867
    22   6 C        2.914    -0.068    29.699     8.936
    23   6 C        2.865     0.132    25.105     8.213
    24   8 O        1.706    -0.225    17.740     5.687
    25   6 C        3.645     0.026    20.469     6.502
    26   6 C        2.863     0.132    25.115     8.215
    27   8 O        1.706    -0.228    17.785     5.694
    28   6 C        3.645     0.028    20.430     6.496
    29   6 C        2.920    -0.080    30.006     8.983
    30   6 C        3.700    -0.068    21.975     6.704
    31   6 C        3.853    -0.007    20.674     6.467
    32   6 C        3.756    -0.119    22.829     6.813
    33   6 C        3.755    -0.119    22.834     6.813
    34   1 H        0.926     0.052     2.296     2.370
    35   1 H        0.924     0.054     2.271     2.356
    36   1 H        0.925     0.080     1.978     2.200
    37   1 H        0.924     0.048     2.342     2.393
    38   1 H        0.923     0.070     2.084     2.258
    39   1 H        0.926     0.086     1.917     2.165
    40   1 H        0.925     0.054     2.271     2.357
    41   1 H        0.923     0.057     2.237     2.339
    42   1 H        0.926     0.039     2.458     2.452
    43   1 H        0.925     0.059     2.211     2.325
    44   1 H        0.924     0.053     2.277     2.360
    45   1 H        0.925     0.065     2.146     2.291
    46   1 H        0.923     0.077     2.013     2.219
    47   1 H        0.922     0.004     2.988     2.703
    48   1 H        0.926     0.066     2.126     2.280
    49   1 H        0.924     0.064     2.148     2.292
    50   1 H        0.924     0.067     2.124     2.279
    51   1 H        0.924     0.054     2.272     2.357
    52   1 H        0.924     0.054     2.273     2.358
    53   1 H        0.926     0.044     2.401     2.423
    54   1 H        0.926     0.057     2.237     2.339
    55   1 H        0.924     0.053     2.289     2.366
    56   1 H        0.924     0.054     2.267     2.355
    57   1 H        0.925     0.081     1.972     2.196
    58   1 H        0.925     0.080     1.978     2.199
    59   1 H        0.924     0.046     2.364     2.405
    60   1 H        0.924     0.051     2.312     2.378
    61   1 H        0.926     0.045     2.386     2.416
    62   1 H        0.924     0.074     2.046     2.237
    63   1 H        0.924     0.077     2.015     2.220
    64   1 H        0.925     0.077     2.015     2.220
    65   1 H        0.924     0.035     2.510     2.478
    66   1 H        0.925     0.068     2.113     2.273
    67   1 H        0.925     0.032     2.560     2.502
    68   1 H        0.925     0.050     2.321     2.382
    69   1 H        0.925     0.062     2.180     2.309
    70   1 H        0.925     0.034     2.528     2.486
    71   1 H        0.925     0.053     2.285     2.364
    72   1 H        0.860     0.155     1.370     1.834

Wiberg/Mayer (AO) data.
largest (>0.10) Wiberg bond orders for each atom

     #   Z sym  total        # sym  WBO       # sym  WBO       # sym  WBO
 ---------------------------------------------------------------------------
     1   7 N    3.034 --     2 C    1.953    72 H    0.943
     2   6 C    3.927 --     1 N    1.953     3 C    0.994    47 H    0.904
     3   6 C    3.979 --     2 C    0.994     4 C    0.967    14 C    0.958
                            31 C    0.945
     4   6 C    3.966 --    13 C    1.662     5 C    1.206     3 C    0.967
     5   6 C    3.806 --     6 C    1.418     4 C    1.206    34 H    0.959
     6   6 C    3.897 --     5 C    1.418     9 C    1.238     7 O    1.091
     7   8 O    2.253 --     6 C    1.091     8 C    0.976
     8   6 C    3.933 --    36 H    0.977     7 O    0.976    35 H    0.975
                            37 H    0.975
     9   6 C    3.765 --     6 C    1.238    10 O    1.167    12 C    1.019
                            11 C    0.222
    10   8 O    2.553 --    11 C    1.274     9 C    1.167
    11   6 C    3.577 --    10 O    1.274    40 H    0.969    39 H    0.968
                             9 C    0.222
    12   6 C    3.987 --    13 C    1.033     9 C    1.019    38 H    0.930
                            41 H    0.929
    13   6 C    3.841 --     4 C    1.662    12 C    1.033    42 H    0.961
    14   6 C    3.973 --    15 C    0.982    44 H    0.972    43 H    0.968
                             3 C    0.958
    15   6 C    3.987 --    16 C    1.059    14 C    0.982    45 H    0.961
                            46 H    0.929
    16   6 C    3.560 --    17 N    1.381    15 C    1.059    48 H    0.958
    17   7 N    3.457 --    16 C    1.381    30 C    1.000    18 C    0.989
    18   6 C    3.957 --    17 N    0.989    50 H    0.968    19 C    0.967
                            49 H    0.964
    19   6 C    3.976 --    20 C    1.008    51 H    0.972    52 H    0.972
                            18 C    0.967
    20   6 C    3.949 --    21 C    1.414    29 C    1.378    19 C    1.008
    21   6 C    3.955 --    22 C    1.414    20 C    1.414    53 H    0.968
    22   6 C    3.963 --    21 C    1.414    23 C    1.387    54 H    0.963
    23   6 C    3.901 --    22 C    1.387    26 C    1.224    24 O    1.106
    24   8 O    2.255 --    23 C    1.106    25 C    0.977
    25   6 C    3.930 --    57 H    0.977    24 O    0.977    55 H    0.973
                            56 H    0.973
    26   6 C    3.904 --    29 C    1.398    23 C    1.224    27 O    1.099
    27   8 O    2.254 --    26 C    1.099    28 C    0.980
    28   6 C    3.934 --    27 O    0.980    58 H    0.977    59 H    0.974
                            60 H    0.974
    29   6 C    3.962 --    26 C    1.398    20 C    1.378    61 H    0.963
    30   6 C    3.960 --    17 N    1.000    64 H    0.978    62 H    0.967
                            63 H    0.964
    31   6 C    3.977 --    33 C    1.009    32 C    1.009    65 H    0.961
                             3 C    0.945
    32   6 C    3.983 --    31 C    1.009    67 H    0.983    68 H    0.982
                            66 H    0.976
    33   6 C    3.985 --    31 C    1.009    70 H    0.984    71 H    0.981
                            69 H    0.977
    34   1 H    0.996 --     5 C    0.959
    35   1 H    0.995 --     8 C    0.975
    36   1 H    0.993 --     8 C    0.977
    37   1 H    0.995 --     8 C    0.975
    38   1 H    0.974 --    12 C    0.930
    39   1 H    0.992 --    11 C    0.968
    40   1 H    0.997 --    11 C    0.969
    41   1 H    0.970 --    12 C    0.929
    42   1 H    0.998 --    13 C    0.961
    43   1 H    0.995 --    14 C    0.968
    44   1 H    0.996 --    14 C    0.972
    45   1 H    0.995 --    15 C    0.961
    46   1 H    0.969 --    15 C    0.929
    47   1 H    0.989 --     2 C    0.904
    48   1 H    0.995 --    16 C    0.958
    49   1 H    0.991 --    18 C    0.964
    50   1 H    0.995 --    18 C    0.968
    51   1 H    0.996 --    19 C    0.972
    52   1 H    0.996 --    19 C    0.972
    53   1 H    0.998 --    21 C    0.968
    54   1 H    0.995 --    22 C    0.963
    55   1 H    0.993 --    25 C    0.973
    56   1 H    0.992 --    25 C    0.973
    57   1 H    0.993 --    25 C    0.977
    58   1 H    0.993 --    28 C    0.977
    59   1 H    0.994 --    28 C    0.974
    60   1 H    0.994 --    28 C    0.974
    61   1 H    0.997 --    29 C    0.963
    62   1 H    0.984 --    30 C    0.967
    63   1 H    0.988 --    30 C    0.964
    64   1 H    0.994 --    30 C    0.978
    65   1 H    0.994 --    31 C    0.961
    66   1 H    0.993 --    32 C    0.976
    67   1 H    0.998 --    32 C    0.983
    68   1 H    0.995 --    32 C    0.982
    69   1 H    0.994 --    33 C    0.977
    70   1 H    0.998 --    33 C    0.984
    71   1 H    0.994 --    33 C    0.981
    72   1 H    0.972 --     1 N    0.943
 ---------------------------------------------------------------------------

molecular dipole:
                 x           y           z       tot (Debye)
 q only:       -0.269      -0.653      -0.676
   full:        0.018      -0.775      -0.832       2.889

           -------------------------------------------------
          | TOTAL ENERGY              -99.337498604552 Eh   |
          | GRADIENT NORM               0.009425075593 Eh/α |
          | HOMO-LUMO GAP               1.173305205586 eV   |
           -------------------------------------------------

 * finished run on 2024/04/06 at 11:15:05.039
