   * xtb version 6.6.1 (8d0f1dd) compiled by 'conda@1efc2f54142f' on 2023-08-01
          program call               : xtb struc.xyz --opt loose --input .xc1 --gfn2

   ID    Z sym.   atoms
    1    6 C      1, 3, 5-7, 10, 11, 14
    2    7 N      2, 4, 9, 13
    3    8 O      8, 12
    4    1 H      15-25
constraining bond 6 13 to    4.9200000 Å, actual value:    2.4008916 Å

          :  Hamiltonian                  GFN2-xTB          :
 * total energy  :     3.0754259 Eh     change       -0.6650680E-10 Eh
 * total energy  :   -17.8799331 Eh     change       -0.2095536E+02 Eh
 * total energy  :   -30.3932908 Eh     change       -0.1251336E+02 Eh
 * total energy  :   -37.5341037 Eh     change       -0.7140813E+01 Eh
 * total energy  :   -40.7522216 Eh     change       -0.3218118E+01 Eh
 * total energy  :   -41.2877277 Eh     change       -0.5355060E+00 Eh
 * total energy  :   -41.3353775 Eh     change       -0.4764983E-01 Eh
 * total energy  :   -41.4186793 Eh     change       -0.8330177E-01 Eh
 * total energy  :   -41.4696873 Eh     change       -0.5100805E-01 Eh
 * total energy  :   -41.4972814 Eh     change       -0.2759410E-01 Eh
 * total energy  :   -42.0850668 Eh     change       -0.8959257E-04 Eh
 * total energy  :   -42.0851332 Eh     change       -0.6642453E-04 Eh
 * total energy  :   -42.0851925 Eh     change       -0.5924903E-04 Eh
 * total energy  :   -42.0852476 Eh     change       -0.5514279E-04 Eh
 * total energy  :   -42.0853102 Eh     change       -0.6263177E-04 Eh
 * total energy  :   -42.0853709 Eh     change       -0.6071191E-04 Eh
 * total energy  :   -42.0854581 Eh     change       -0.8715457E-04 Eh
 * total energy  :   -42.0855435 Eh     change       -0.8542908E-04 Eh
 * total energy  :   -42.0855910 Eh     change       -0.4751137E-04 Eh
   *** GEOMETRY OPTIMIZATION CONVERGED AFTER 127 ITERATIONS ***

 final structure:
================
25
 xtb: 6.6.1 (8d0f1dd)
C            3.43766465633725        0.92887509848718        0.42711100814211
N            2.03681823380665        0.51857808792842        0.27059398952093
C            1.91632557920182       -0.68830404313301       -0.34867803451120
N            0.96356298680046       -1.61518411477507       -0.49123803028237
C           -0.31963303386125       -1.79983777922017       -0.05530941610414
C            1.11724278190737        1.50517284372017        0.65097932189610
C           -0.37712204898388        1.19742233598668        0.35325485683514
O            1.43839414754551        2.55868441753067        1.11342534778105
N           -0.90059254430587        2.00858993103869       -0.42707587883456
C           -2.24603697787387        2.12651092544009       -0.84229778874632
C           -1.27330045555982       -1.04821833807842        0.58315347624658
O           -1.20670637340918        0.19993925225169        1.03411811772439
N           -2.28386635442665       -2.04003184500928        0.49771654633896
C           -1.29725810809125       -2.95817752775515       -0.10727155115711
H            3.98409131449550        0.19051879849102        1.01137070725775
H            3.91238774094118        1.05791097973296       -0.54516367168229
H            3.45596416524706        1.88209645583985        0.95163565904535
H            2.85725288436483       -1.00491309840433       -0.78147252448009
H           -2.59237534351006        3.10243067255440       -0.49450514995956
H           -2.25710197135102        2.15306468709210       -1.93322645274240
H           -2.91149350324741        1.34318915135971       -0.46747992241380
H           -1.03971761529234       -3.81480234101257        0.51519883451616
H           -1.61096449527430       -3.29002123757330       -1.09696563811199
H           -2.93538631048816       -2.27323471761055        1.23005503965521
H            1.29228215912208       -2.42202005325835       -1.01675722804613

          :  Hamiltonian                  GFN2-xTB          :
         :: total energy             -42.085591044917 Eh    ::
         :: gradient norm              0.002508266641 Eh/a0 ::
         :: HOMO-LUMO gap              1.982150446909 eV    ::
         :: SCC energy               -42.584230000203 Eh    ::
         :: -> dispersion             -0.021248283336 Eh    ::
         :: repulsion energy           0.498286345453 Eh    ::

    * Orbital Energies and Occupations

         #    Occupation            Energy/Eh            Energy/eV
      -------------------------------------------------------------
         1        2.0000           -0.8904682             -24.2309
       ...           ...                  ...                  ...
        25        2.0000           -0.6602732             -17.9669
        26        2.0000           -0.6574562             -17.8903
        27        1.9999           -0.6482694             -17.6403
        28        1.9999           -0.6403322             -17.4243
        29        1.9998           -0.6283859             -17.0993
        30        1.9997           -0.6241494             -16.9840
        31        1.9995           -0.6154655             -16.7477
        32        1.9984           -0.5971889             -16.2503
        33        1.9961           -0.5830028             -15.8643
        34        1.9951           -0.5794951             -15.7689
        35        1.9876           -0.5646295             -15.3643
        36        1.9266           -0.5359438             -14.5838
        37        1.8547           -0.5245372             -14.2734 (HOMO)
        38        0.2274           -0.4516945             -12.2912 (LUMO)
        39        0.0137           -0.4054058             -11.0317
        40        0.0014           -0.3696341             -10.0583
        41        0.0002           -0.3399095              -9.2494
        42        0.0000           -0.2380893              -6.4787
        43                         -0.2060735              -5.6075
        44                         -0.1835372              -4.9943
        45                         -0.1629916              -4.4352
        46                         -0.1327936              -3.6135
        47                         -0.0862428              -2.3468
        48                         -0.0744381              -2.0256
       ...                                ...                  ...
        67                          0.5552834              15.1100
      -------------------------------------------------------------
                  HL-Gap            0.0728427 Eh            1.9822 eV

     #   Z          covCN         q      C6AA      α(0)
     1   6 C        3.727    -0.086    22.240     6.733
     2   7 N        2.728    -0.016    21.557     6.896
     3   6 C        2.781     0.057    26.699     8.463
     4   7 N        2.680    -0.043    22.070     6.977
     5   6 C        3.123    -0.020    28.329     8.716
     6   6 C        2.769     0.267    22.496     7.768
     7   6 C        2.753     0.179    24.142     8.046
     8   8 O        0.858    -0.285    19.521     5.924
     9   7 N        1.834    -0.133    24.649     7.357
    10   6 C        3.697    -0.044    21.531     6.637
    11   6 C        3.181     0.214    23.122     7.849
    12   8 O        1.697    -0.246    18.071     5.739
    13   7 N        2.928    -0.170    24.658     7.375
    14   6 C        4.157    -0.010    20.662     6.456
    15   1 H        0.925     0.091     1.870     2.139
    16   1 H        0.925     0.092     1.862     2.134
    17   1 H        0.925     0.130     1.538     1.940
    18   1 H        0.925     0.106     1.731     2.057
    19   1 H        0.924     0.117     1.635     2.000
    20   1 H        0.924     0.100     1.783     2.088
    21   1 H        0.924     0.065     2.146     2.291
    22   1 H        0.925     0.090     1.878     2.143
    23   1 H        0.925     0.101     1.779     2.086
    24   1 H        0.860     0.207     1.070     1.620
    25   1 H        0.860     0.235     0.945     1.523

Wiberg/Mayer (AO) data.
largest (>0.10) Wiberg bond orders for each atom

     #   Z sym  total        # sym  WBO       # sym  WBO       # sym  WBO
 ---------------------------------------------------------------------------
     1   6 C    3.915 --    15 H    0.974    16 H    0.969    17 H    0.962
                             2 N    0.959
     2   7 N    3.583 --     3 C    1.247     6 C    1.093     1 C    0.959
                             8 O    0.132
     3   6 C    3.783 --     4 N    1.347     2 N    1.247    18 H    0.947
     4   7 N    3.568 --     3 C    1.347     5 C    1.146    25 H    0.912
     5   6 C    3.829 --    11 C    1.405     4 N    1.146    14 C    0.997
     6   6 C    3.903 --     8 O    1.794     2 N    1.093     7 C    0.907
     7   6 C    3.894 --     9 N    1.906     6 C    0.907    12 O    0.861
     8   8 O    2.096 --     6 C    1.794     2 N    0.132
     9   7 N    3.148 --     7 C    1.906    10 C    1.049
    10   6 C    3.945 --     9 N    1.049    21 H    0.963    20 H    0.945
                            19 H    0.929
    11   6 C    3.868 --     5 C    1.405    13 N    1.151    12 O    1.130
    12   8 O    2.280 --    11 C    1.130     7 C    0.861
    13   7 N    3.260 --    11 C    1.151    14 C    0.986    24 H    0.927
    14   6 C    3.954 --     5 C    0.997    13 N    0.986    22 H    0.957
                            23 H    0.955
    15   1 H    0.988 --     1 C    0.974
    16   1 H    0.987 --     1 C    0.969
    17   1 H    0.982 --     1 C    0.962
    18   1 H    0.988 --     3 C    0.947
    19   1 H    0.981 --    10 C    0.929
    20   1 H    0.985 --    10 C    0.945
    21   1 H    0.979 --    10 C    0.963
    22   1 H    0.990 --    14 C    0.957
    23   1 H    0.987 --    14 C    0.955
    24   1 H    0.952 --    13 N    0.927
    25   1 H    0.944 --     4 N    0.912
 ---------------------------------------------------------------------------

molecular dipole:
                 x           y           z       tot (Debye)
 q only:        0.761      -2.250      -0.918
   full:        0.575      -2.856      -0.732       7.635

           -------------------------------------------------
          | TOTAL ENERGY              -42.085591044917 Eh   |
          | GRADIENT NORM               0.002508266641 Eh/α |
          | HOMO-LUMO GAP               1.982150446909 eV   |
           -------------------------------------------------

 * finished run on 2024/06/05 at 20:00:15.566
