   * xtb version 6.6.1 (8d0f1dd) compiled by 'conda@1efc2f54142f' on 2023-08-01
          program call               : xtb xtbopt.xyz --opt crude --input .xc2 --gfn2

   ID    Z sym.   atoms
    1    6 C      1, 3, 5-7, 10, 11, 14
    2    7 N      2, 4, 9, 13
    3    8 O      8, 12
    4    1 H      15-25
########################################################################
[WARNING] Please study the warnings concerning your input carefully
-1- readin_getIntValue: could not parse ''
########################################################################

          :  Hamiltonian                  GFN2-xTB          :
 * total energy  :   -42.0857534 Eh     change       -0.2202682E-12 Eh
 * total energy  :   -42.0933841 Eh     change       -0.7630709E-02 Eh
 * total energy  :   -42.0972758 Eh     change       -0.3891777E-02 Eh
 * total energy  :   -42.0981550 Eh     change       -0.8791515E-03 Eh
 * total energy  :   -42.0987089 Eh     change       -0.5538592E-03 Eh
 * total energy  :   -42.0991322 Eh     change       -0.4233605E-03 Eh
 * total energy  :   -42.0996158 Eh     change       -0.4836138E-03 Eh
 * total energy  :   -42.1001769 Eh     change       -0.5610232E-03 Eh
 * total energy  :   -42.1007909 Eh     change       -0.6140347E-03 Eh
 * total energy  :   -42.1013129 Eh     change       -0.5220306E-03 Eh
 * total energy  :   -42.1016271 Eh     change       -0.3141377E-03 Eh
 * total energy  :   -42.1020897 Eh     change       -0.4626215E-03 Eh
 * total energy  :   -42.1022922 Eh     change       -0.2025104E-03 Eh
 * total energy  :   -42.1025746 Eh     change       -0.2824478E-03 Eh
   *** GEOMETRY OPTIMIZATION CONVERGED AFTER 14 ITERATIONS ***

 final structure:
================
25
 xtb: 6.6.1 (8d0f1dd)
C            3.29978474146223        0.90222925418073        0.47092488500950
N            1.93002475848498        0.47371634975333        0.19927455515384
C            1.80487118701488       -0.53126781037872       -0.69756859454115
N            0.86789385432182       -1.47175680196966       -0.76410417585833
C           -0.26178466259683       -1.69270572403441       -0.02520123231377
C            0.93227562307662        1.11952669054385        0.92641926535369
C           -0.46248843422417        1.12520555801835        0.34804534869809
O            1.17996431981223        1.76842241732987        1.91197572892242
N           -0.75040139174391        1.92246455780070       -0.55869480833677
C           -2.04513626653197        2.16387519859907       -1.09086861439610
C           -1.20763343619438       -0.98118503926226        0.68956898964839
O           -1.40207975939443        0.28474568373084        1.01232792264676
N           -2.05293225175743       -2.03065598801747        0.84845772834261
C           -1.13259502275381       -2.92733666901656        0.14323832210263
H            3.86678335118088        0.10025262525093        0.94243051930183
H            3.78843408771529        1.20131295812131       -0.45608749858007
H            3.26209237507960        1.75271728904215        1.14922377966458
H            2.64693186286404       -0.66070455782612       -1.36476831178700
H           -2.31290394034905        3.18810316128740       -0.82869106827069
H           -1.96604225322239        2.11724648409036       -2.17603652228566
H           -2.81498739314765        1.47859674570146       -0.72732372787211
H           -0.71823449450366       -3.72207149458665        0.76415937654459
H           -1.56892154201721       -3.33985106504208       -0.76440266252544
H           -2.77083567219255       -2.21844608163647        1.52510302880851
H            1.04835187371191       -2.20419520005632       -1.44623061554189

          :  Hamiltonian                  GFN2-xTB          :
         :: total energy             -42.102574633963 Eh    ::
         :: gradient norm              0.008836012820 Eh/a0 ::
         :: HOMO-LUMO gap              2.039934880364 eV    ::
         :: SCC energy               -42.615745694626 Eh    ::
         :: -> dispersion             -0.021919227479 Eh    ::
         :: repulsion energy           0.512921826524 Eh    ::

    * Orbital Energies and Occupations

         #    Occupation            Energy/Eh            Energy/eV
      -------------------------------------------------------------
         1        2.0000           -0.9048058             -24.6210
       ...           ...                  ...                  ...
        25        2.0000           -0.6632985             -18.0493
        26        2.0000           -0.6545466             -17.8111
        27        2.0000           -0.6516989             -17.7336
        28        1.9999           -0.6463229             -17.5873
        29        1.9999           -0.6340405             -17.2531
        30        1.9998           -0.6244444             -16.9920
        31        1.9996           -0.6168397             -16.7851
        32        1.9984           -0.5952994             -16.1989
        33        1.9974           -0.5873960             -15.9839
        34        1.9963           -0.5814289             -15.8215
        35        1.9885           -0.5634633             -15.3326
        36        1.9420           -0.5375141             -14.6265
        37        1.8574           -0.5225618             -14.2196 (HOMO)
        38        0.2054           -0.4475956             -12.1797 (LUMO)
        39        0.0122           -0.4012516             -10.9186
        40        0.0029           -0.3785020             -10.2996
        41        0.0003           -0.3447703              -9.3817
        42                         -0.2057400              -5.5985
        43                         -0.1881403              -5.1196
        44                         -0.1649125              -4.4875
        45                         -0.1442912              -3.9264
        46                         -0.1079980              -2.9388
        47                         -0.0726154              -1.9760
        48                         -0.0636333              -1.7315
       ...                                ...                  ...
        67                          0.5821394              15.8408
      -------------------------------------------------------------
                  HL-Gap            0.0749662 Eh            2.0399 eV

     #   Z          covCN         q      C6AA      α(0)
     1   6 C        3.715    -0.081    22.183     6.729
     2   7 N        2.731    -0.015    21.535     6.892
     3   6 C        2.780     0.057    26.702     8.464
     4   7 N        2.682    -0.040    22.023     6.970
     5   6 C        3.184    -0.036    28.428     8.701
     6   6 C        2.767     0.257    22.668     7.797
     7   6 C        2.842     0.194    23.866     8.006
     8   8 O        0.858    -0.305    19.863     5.975
     9   7 N        1.827    -0.163    25.313     7.455
    10   6 C        3.704    -0.041    21.469     6.624
    11   6 C        3.270     0.222    22.238     7.604
    12   8 O        1.703    -0.223    17.701     5.680
    13   7 N        2.988    -0.144    24.104     7.292
    14   6 C        4.175    -0.013    20.727     6.466
    15   1 H        0.925     0.093     1.854     2.129
    16   1 H        0.925     0.094     1.844     2.124
    17   1 H        0.925     0.125     1.575     1.963
    18   1 H        0.925     0.109     1.705     2.042
    19   1 H        0.924     0.111     1.686     2.031
    20   1 H        0.925     0.095     1.831     2.116
    21   1 H        0.924     0.060     2.199     2.319
    22   1 H        0.924     0.097     1.817     2.108
    23   1 H        0.925     0.100     1.782     2.088
    24   1 H        0.860     0.213     1.042     1.599
    25   1 H        0.860     0.234     0.950     1.527

Wiberg/Mayer (AO) data.
largest (>0.10) Wiberg bond orders for each atom

     #   Z sym  total        # sym  WBO       # sym  WBO       # sym  WBO
 ---------------------------------------------------------------------------
     1   6 C    3.914 --    15 H    0.971    16 H    0.967    17 H    0.965
                             2 N    0.958
     2   7 N    3.581 --     3 C    1.243     6 C    1.101     1 C    0.958
                             8 O    0.134
     3   6 C    3.789 --     4 N    1.358     2 N    1.243    18 H    0.947
     4   7 N    3.568 --     3 C    1.358     5 C    1.139    25 H    0.911
     5   6 C    3.794 --    11 C    1.357     4 N    1.139    14 C    0.991
     6   6 C    3.907 --     8 O    1.770     2 N    1.101     7 C    0.923
     7   6 C    3.910 --     9 N    1.896     6 C    0.923    12 O    0.894
     8   8 O    2.073 --     6 C    1.770     2 N    0.134
     9   7 N    3.124 --     7 C    1.896    10 C    1.036
    10   6 C    3.949 --     9 N    1.036    21 H    0.968    20 H    0.951
                            19 H    0.936
    11   6 C    3.879 --     5 C    1.357    13 N    1.227    12 O    1.123
    12   8 O    2.314 --    11 C    1.123     7 C    0.894
    13   7 N    3.358 --    11 C    1.227    14 C    0.984    24 H    0.926
    14   6 C    3.948 --     5 C    0.991    13 N    0.984    22 H    0.957
                            23 H    0.955
    15   1 H    0.988 --     1 C    0.971
    16   1 H    0.988 --     1 C    0.967
    17   1 H    0.984 --     1 C    0.965
    18   1 H    0.987 --     3 C    0.947
    19   1 H    0.984 --    10 C    0.936
    20   1 H    0.988 --    10 C    0.951
    21   1 H    0.984 --    10 C    0.968
    22   1 H    0.989 --    14 C    0.957
    23   1 H    0.988 --    14 C    0.955
    24   1 H    0.952 --    13 N    0.926
    25   1 H    0.944 --     4 N    0.911
 ---------------------------------------------------------------------------

molecular dipole:
                 x           y           z       tot (Debye)
 q only:        0.675      -2.162      -1.333
   full:        0.381      -2.592      -1.256       7.384

           -------------------------------------------------
          | TOTAL ENERGY              -42.102574633963 Eh   |
          | GRADIENT NORM               0.008836012820 Eh/α |
          | HOMO-LUMO GAP               2.039934880364 eV   |
           -------------------------------------------------

 * finished run on 2024/06/05 at 20:00:16.039
