   * xtb version 6.6.1 (8d0f1dd) compiled by 'conda@1efc2f54142f' on 2023-08-01
          program call               : xtb struc.xyz --opt loose --input .xc1 --gfn2

   ID    Z sym.   atoms
    1    7 N      1, 17
    2    6 C      2-6, 8, 9, 11-16, 18-23, 25, 26, 28-33
    3    8 O      7, 10, 24, 27
    4    1 H      34-72
constraining bond 2 32 to    6.0000000 Å, actual value:    3.1063216 Å

          :  Hamiltonian                  GFN2-xTB          :
 * total energy  :   -97.9090380 Eh     change       -0.4035485E-08 Eh
 * total energy  :   -98.3005036 Eh     change       -0.3914656E+00 Eh
 * total energy  :   -98.5533784 Eh     change       -0.2528747E+00 Eh
 * total energy  :   -98.7227192 Eh     change       -0.1693408E+00 Eh
 * total energy  :   -98.8394880 Eh     change       -0.1167688E+00 Eh
 * total energy  :   -98.9243928 Eh     change       -0.8490487E-01 Eh
 * total energy  :   -98.9916780 Eh     change       -0.6728522E-01 Eh
 * total energy  :   -99.0442249 Eh     change       -0.5254681E-01 Eh
 * total energy  :   -99.0805453 Eh     change       -0.3632040E-01 Eh
 * total energy  :   -99.1041203 Eh     change       -0.2357504E-01 Eh
 * total energy  :   -99.3311944 Eh     change       -0.1233231E-03 Eh
 * total energy  :   -99.3313125 Eh     change       -0.1180671E-03 Eh
 * total energy  :   -99.3314062 Eh     change       -0.9371402E-04 Eh
 * total energy  :   -99.3315201 Eh     change       -0.1138976E-03 Eh
 * total energy  :   -99.3316107 Eh     change       -0.9063058E-04 Eh
 * total energy  :   -99.3317005 Eh     change       -0.8976945E-04 Eh
 * total energy  :   -99.3317751 Eh     change       -0.7460270E-04 Eh
 * total energy  :   -99.3318278 Eh     change       -0.5267291E-04 Eh
 * total energy  :   -99.3318666 Eh     change       -0.3885286E-04 Eh
   *** GEOMETRY OPTIMIZATION CONVERGED AFTER 92 ITERATIONS ***

 final structure:
================
72
 xtb: 6.6.1 (8d0f1dd)
N           -0.07141017154616        1.64393589005706        1.42426645495348
C           -0.55439166232798        0.79173523417806        0.64168226361087
C           -3.18398871363701        1.69126261128412       -0.08153220815389
C           -3.95768014470084        0.46608067604267        0.17540988133446
C           -4.55105616745114       -0.26398718186393       -0.85652585152586
C           -5.25473060865487       -1.42882509865958       -0.59771712639914
O           -5.85629780799504       -2.19379793034691       -1.53000417414519
C           -5.81624549904424       -1.79871290824296       -2.88004365449640
C           -5.37849059202838       -1.89530331943212        0.74112967318510
O           -6.07268932058824       -3.03685186781722        0.89115886266760
C           -6.28427605850797       -3.55335835623707        2.18562055374921
C           -4.79051788672439       -1.15868621903453        1.76265579771429
C           -4.09099887361109        0.00134363727651        1.48392053709402
C           -2.51425802537345        1.83719801806361       -1.44918102933539
C           -1.50605408307911        0.71610965664586       -1.69217787101064
C           -0.24989737436970        0.89203278239219       -0.83549061810468
N            0.79081840319211       -0.06009530566176       -1.19195886440735
C            2.10268792987885        0.20696087558576       -0.64212182011055
C            3.17747191891733        0.13554333015468       -1.74492963641975
C            4.54640384056986        0.31797353949260       -1.16100780970648
C            5.18450869050924        1.54978940548648       -1.19316888073201
C            6.44390615445735        1.71318927733234       -0.63969999841250
C            7.09414656610585        0.64738378159090       -0.03092420901892
O            8.31667975885836        0.68924141796503        0.52786948388605
C            9.05215152819639        1.89101321634366        0.48937681227204
C            6.44267980875261       -0.61807593721580        0.02131102630455
O            7.13544465909729       -1.59583969256671        0.63528457497755
C            6.57509703699275       -2.88446127871625        0.72785479855284
C            5.18507158733305       -0.75636797212099       -0.54597009290044
C            0.44568294280825       -1.46054345980696       -1.22868726792684
C           -3.04837745685489        2.63094089187489        0.81213601788573
C           -5.99642673383163        2.74417139835501        2.26287785500754
C           -2.44678020286322        3.86124850808617        1.24538856401440
H           -4.48822063058882        0.09297658728784       -1.87097387285979
H           -6.29566411970443       -0.82712050705204       -3.02904396596027
H           -6.37154692168223       -2.56059336496990       -3.42338104639487
H           -4.78954006274144       -1.76203097709856       -3.25820252982847
H           -6.84418568113545       -2.85062129792940        2.81088660534275
H           -6.87147243437922       -4.45937283353405        2.04616657127047
H           -5.33922497387791       -3.80734059278380        2.67629050607719
H           -4.87322319065197       -1.48821201176439        2.78608738218715
H           -3.63503806138527        0.55556565167351        2.28993257776791
H           -3.29120030319795        1.81299184384865       -2.21431956212185
H           -2.02012746868499        2.80722490924171       -1.50516918492631
H           -1.98073103402920       -0.24105751058118       -1.47251720804804
H           -1.20418498999947        0.72411310811888       -2.74142991266750
H           -1.12920471884492       -0.09144201698252        0.94205709776816
H            0.16792599778254        1.88869968583694       -1.01951978527550
H            2.34949914575306       -0.51531026526902        0.14754611858197
H            2.11625605679575        1.20250492008506       -0.19540146683024
H            2.97209210392970        0.91097905433245       -2.48267448917526
H            3.11641188827715       -0.83333662307295       -2.24270790693947
H            4.70177095846997        2.39220464110324       -1.66370323417824
H            6.91658752895403        2.68021824047974       -0.68835406362904
H            8.54566949043258        2.68821609447189        1.04192992144264
H            9.23178457212199        2.21607284722574       -0.53996896605133
H           10.00330812992279        1.66776314196088        0.96896345269364
H            7.31161360491903       -3.48687589845351        1.25627660016476
H            5.64003979567590       -2.87425677807533        1.29730491001032
H            6.39708134305799       -3.31618132164041       -0.26181135219985
H            4.68800239338939       -1.71366446277527       -0.52551913262812
H           -0.37603681896302       -1.63068795631437       -1.92005926728835
H            0.17257896780543       -1.86243792648280       -0.24481032747650
H            1.30483082713699       -2.01763397525700       -1.59382115591477
H           -5.03411747388393        2.68970542413121        1.76074161935453
H           -5.84771135093990        2.79552266676691        3.33372252078753
H           -6.57360854974484        1.86117251201670        2.02100116731048
H           -6.52829251468057        3.62545077916539        1.93098166294253
H           -1.35973782764807        3.74282139568836        1.28751763532591
H           -2.71246632618580        4.68484338694729        0.57834488166400
H           -2.79038369006865        4.13606039793183        2.24554246247382
H           -0.24120150650941        1.50496093358775        2.41655753531459

          :  Hamiltonian                  GFN2-xTB          :
         :: total energy             -99.331866623827 Eh    ::
         :: gradient norm              0.003456613747 Eh/a0 ::
         :: HOMO-LUMO gap              1.001997033987 eV    ::
         :: SCC energy              -100.736731910967 Eh    ::
         :: -> dispersion             -0.071720827919 Eh    ::
         :: repulsion energy           1.403697285182 Eh    ::

    * Orbital Energies and Occupations

         #    Occupation            Energy/Eh            Energy/eV
      -------------------------------------------------------------
         1        2.0000           -0.8116169             -22.0852
       ...           ...                  ...                  ...
        78        1.9981           -0.5325517             -14.4915
        79        1.9979           -0.5307710             -14.4430
        80        1.9974           -0.5276211             -14.3573
        81        1.9968           -0.5241200             -14.2620
        82        1.9966           -0.5231662             -14.2361
        83        1.9946           -0.5159476             -14.0396
        84        1.9891           -0.5047749             -13.7356
        85        1.9733           -0.4904769             -13.3466
        86        1.9672           -0.4872105             -13.2577
        87        1.9633           -0.4853906             -13.2081
        88        1.8239           -0.4593760             -12.5003
        89        1.7962           -0.4568231             -12.4308
        90        1.7256           -0.4514780             -12.2853 (HOMO)
        91        0.7613           -0.4146553             -11.2833 (LUMO)
        92        0.0163           -0.3463065              -9.4235
        93        0.0095           -0.3377676              -9.1911
        94        0.0022           -0.3148646              -8.5679
        95        0.0016           -0.3094922              -8.4217
        96        0.0013           -0.3067498              -8.3471
        97        0.0001           -0.2703113              -7.3555
        98        0.0000           -0.1846177              -5.0237
        99        0.0000           -0.1812855              -4.9330
       100                         -0.1050460              -2.8584
       101                         -0.0649231              -1.7666
       ...                                ...                  ...
       171                          0.6949416              18.9103
      -------------------------------------------------------------
                  HL-Gap            0.0368227 Eh            1.0020 eV

     #   Z          covCN         q      C6AA      α(0)
     1   7 N        1.778    -0.298    28.545     7.912
     2   6 C        2.817     0.090    25.977     8.351
     3   6 C        2.946     0.009    27.825     8.652
     4   6 C        2.976     0.010    27.794     8.648
     5   6 C        2.918    -0.076    29.896     8.966
     6   6 C        2.862     0.132    25.105     8.213
     7   8 O        1.706    -0.226    17.747     5.688
     8   6 C        3.645     0.027    20.451     6.500
     9   6 C        2.863     0.135    25.056     8.205
    10   8 O        1.706    -0.220    17.645     5.671
    11   6 C        3.645     0.025    20.492     6.506
    12   6 C        2.912    -0.067    29.657     8.930
    13   6 C        2.923    -0.042    29.041     8.837
    14   6 C        3.810    -0.057    21.586     6.613
    15   6 C        3.806    -0.067    21.775     6.643
    16   6 C        3.804     0.026    20.143     6.389
    17   7 N        2.731    -0.116    23.518     7.203
    18   6 C        3.752    -0.002    20.665     6.483
    19   6 C        3.809    -0.073    21.881     6.659
    20   6 C        2.968     0.011    27.770     8.644
    21   6 C        2.921    -0.043    29.071     8.842
    22   6 C        2.913    -0.065    29.614     8.924
    23   6 C        2.864     0.135    25.046     8.203
    24   8 O        1.706    -0.216    17.587     5.662
    25   6 C        3.645     0.023    20.515     6.510
    26   6 C        2.862     0.135    25.043     8.203
    27   8 O        1.706    -0.219    17.639     5.670
    28   6 C        3.645     0.026    20.475     6.503
    29   6 C        2.920    -0.076    29.900     8.967
    30   6 C        3.698    -0.047    21.589     6.646
    31   6 C        1.979    -0.028    31.792     9.106
    32   6 C        3.701    -0.159    23.766     6.971
    33   6 C        3.752    -0.103    22.530     6.769
    34   1 H        0.926     0.055     2.254     2.348
    35   1 H        0.924     0.054     2.267     2.355
    36   1 H        0.925     0.082     1.954     2.186
    37   1 H        0.924     0.049     2.338     2.391
    38   1 H        0.924     0.057     2.229     2.335
    39   1 H        0.925     0.083     1.946     2.182
    40   1 H        0.924     0.054     2.267     2.355
    41   1 H        0.926     0.058     2.217     2.329
    42   1 H        0.926     0.049     2.327     2.385
    43   1 H        0.924     0.066     2.128     2.281
    44   1 H        0.925     0.054     2.266     2.354
    45   1 H        0.924     0.054     2.275     2.359
    46   1 H        0.924     0.063     2.164     2.300
    47   1 H        0.924     0.016     2.800     2.617
    48   1 H        0.924     0.073     2.048     2.238
    49   1 H        0.923     0.038     2.473     2.459
    50   1 H        0.924     0.059     2.213     2.326
    51   1 H        0.925     0.060     2.194     2.316
    52   1 H        0.924     0.057     2.236     2.338
    53   1 H        0.926     0.055     2.259     2.351
    54   1 H        0.926     0.061     2.183     2.310
    55   1 H        0.924     0.058     2.226     2.333
    56   1 H        0.924     0.059     2.215     2.327
    57   1 H        0.925     0.084     1.939     2.178
    58   1 H        0.925     0.083     1.948     2.183
    59   1 H        0.924     0.052     2.297     2.370
    60   1 H        0.924     0.056     2.251     2.346
    61   1 H        0.926     0.052     2.299     2.371
    62   1 H        0.925     0.058     2.224     2.332
    63   1 H        0.924     0.036     2.500     2.473
    64   1 H        0.925     0.063     2.165     2.301
    65   1 H        0.925     0.043     2.408     2.427
    66   1 H        0.925     0.044     2.397     2.421
    67   1 H        0.925     0.039     2.458     2.452
    68   1 H        0.925     0.048     2.347     2.396
    69   1 H        0.924     0.095     1.829     2.115
    70   1 H        0.924     0.088     1.901     2.156
    71   1 H        0.924     0.098     1.803     2.100
    72   1 H        0.860     0.159     1.344     1.816

Wiberg/Mayer (AO) data.
largest (>0.10) Wiberg bond orders for each atom

     #   Z sym  total        # sym  WBO       # sym  WBO       # sym  WBO
 ---------------------------------------------------------------------------
     1   7 N    3.000 --     2 C    1.944    72 H    0.941
     2   6 C    3.920 --     1 N    1.944    16 C    0.972    47 H    0.937
     3   6 C    3.948 --    31 C    1.858     4 C    1.043    14 C    0.918
     4   6 C    3.913 --    13 C    1.360     5 C    1.354     3 C    1.043
     5   6 C    3.953 --     6 C    1.400     4 C    1.354    34 H    0.956
     6   6 C    3.893 --     5 C    1.400     9 C    1.215     7 O    1.103
     7   8 O    2.251 --     6 C    1.103     8 C    0.978
     8   6 C    3.931 --     7 O    0.978    36 H    0.976    37 H    0.973
                            35 H    0.973
     9   6 C    3.883 --    12 C    1.369     6 C    1.215    10 O    1.115
    10   8 O    2.254 --     9 C    1.115    11 C    0.975
    11   6 C    3.927 --    39 H    0.977    10 O    0.975    38 H    0.972
                            40 H    0.972
    12   6 C    3.959 --    13 C    1.438     9 C    1.369    41 H    0.962
    13   6 C    3.935 --    12 C    1.438     4 C    1.360    42 H    0.965
    14   6 C    3.904 --    15 C    0.998    44 H    0.975    43 H    0.953
                             3 C    0.918
    15   6 C    3.982 --    14 C    0.998    16 C    0.984    45 H    0.967
                            46 H    0.965
    16   6 C    3.964 --    15 C    0.984    17 N    0.980     2 C    0.972
                            48 H    0.952
    17   7 N    3.121 --    30 C    1.017    18 C    1.004    16 C    0.980
    18   6 C    3.962 --    17 N    1.004    50 H    0.969    19 C    0.968
                            49 H    0.962
    19   6 C    3.975 --    20 C    1.015    51 H    0.972    18 C    0.968
                            52 H    0.964
    20   6 C    3.924 --    21 C    1.392    29 C    1.381    19 C    1.015
    21   6 C    3.927 --    22 C    1.424    20 C    1.392    53 H    0.967
    22   6 C    3.948 --    21 C    1.424    23 C    1.374    54 H    0.962
    23   6 C    3.871 --    22 C    1.374    26 C    1.209    24 O    1.116
    24   8 O    2.245 --    23 C    1.116    25 C    0.975
    25   6 C    3.925 --    57 H    0.976    24 O    0.975    56 H    0.971
                            55 H    0.971
    26   6 C    3.879 --    29 C    1.390    23 C    1.209    27 O    1.109
    27   8 O    2.247 --    26 C    1.109    28 C    0.977
    28   6 C    3.929 --    27 O    0.977    58 H    0.977    59 H    0.972
                            60 H    0.972
    29   6 C    3.950 --    26 C    1.390    20 C    1.381    61 H    0.961
    30   6 C    3.969 --    17 N    1.017    62 H    0.975    64 H    0.975
                            63 H    0.964
    31   6 C    3.216 --     3 C    1.858    33 C    1.133
    32   6 C    3.968 --    67 H    0.996    66 H    0.996    68 H    0.996
                            65 H    0.963
    33   6 C    3.963 --    31 C    1.133    70 H    0.930    71 H    0.929
                            69 H    0.926
    34   1 H    0.995 --     5 C    0.956
    35   1 H    0.992 --     8 C    0.973
    36   1 H    0.992 --     8 C    0.976
    37   1 H    0.993 --     8 C    0.973
    38   1 H    0.991 --    11 C    0.972
    39   1 H    0.992 --    11 C    0.977
    40   1 H    0.991 --    11 C    0.972
    41   1 H    0.994 --    12 C    0.962
    42   1 H    0.997 --    13 C    0.965
    43   1 H    0.990 --    14 C    0.953
    44   1 H    0.996 --    14 C    0.975
    45   1 H    0.996 --    15 C    0.967
    46   1 H    0.989 --    15 C    0.965
    47   1 H    0.986 --     2 C    0.937
    48   1 H    0.990 --    16 C    0.952
    49   1 H    0.985 --    18 C    0.962
    50   1 H    0.995 --    18 C    0.969
    51   1 H    0.994 --    19 C    0.972
    52   1 H    0.993 --    19 C    0.964
    53   1 H    0.996 --    21 C    0.967
    54   1 H    0.994 --    22 C    0.962
    55   1 H    0.989 --    25 C    0.971
    56   1 H    0.989 --    25 C    0.971
    57   1 H    0.992 --    25 C    0.976
    58   1 H    0.992 --    28 C    0.977
    59   1 H    0.991 --    28 C    0.972
    60   1 H    0.990 --    28 C    0.972
    61   1 H    0.996 --    29 C    0.961
    62   1 H    0.993 --    30 C    0.975
    63   1 H    0.979 --    30 C    0.964
    64   1 H    0.993 --    30 C    0.975
    65   1 H    0.997 --    32 C    0.963
    66   1 H    0.997 --    32 C    0.996
    67   1 H    0.997 --    32 C    0.996
    68   1 H    0.996 --    32 C    0.996
    69   1 H    0.970 --    33 C    0.926
    70   1 H    0.964 --    33 C    0.930
    71   1 H    0.952 --    33 C    0.929
    72   1 H    0.967 --     1 N    0.941
 ---------------------------------------------------------------------------

molecular dipole:
                 x           y           z       tot (Debye)
 q only:        0.183       0.654      -0.326
   full:       -0.103       0.461      -0.035       1.205

           -------------------------------------------------
          | TOTAL ENERGY              -99.331866623827 Eh   |
          | GRADIENT NORM               0.003456613747 Eh/α |
          | HOMO-LUMO GAP               1.001997033987 eV   |
           -------------------------------------------------

 * finished run on 2024/04/06 at 11:11:45.861
