   * xtb version 6.6.1 (8d0f1dd) compiled by 'conda@1efc2f54142f' on 2023-08-01
          program call               : xtb xtbopt.xyz --opt crude --input .xc2 --gfn2

   ID    Z sym.   atoms
    1    6 C      1, 3, 5-7, 10, 11, 14
    2    7 N      2, 4, 9, 13
    3    8 O      8, 12
    4    1 H      15-25

          :  Hamiltonian                  GFN2-xTB          :
 * total energy  :   -42.1528376 Eh     change       -0.1278977E-12 Eh
   *** GEOMETRY OPTIMIZATION CONVERGED AFTER 1 ITERATIONS ***

 final structure:
================
25
 xtb: 6.6.1 (8d0f1dd)
C            2.42556616588449        1.42322194564544        0.39317194000905
N            1.75876997137152        0.16526481314347        0.18520689511066
C            2.37005188694649       -1.02358792203203       -0.04862836681258
N            1.45074536125120       -2.02260910236925       -0.15041924359392
C            0.22914573842033       -1.45316201714775        0.02567257261774
C            0.42065998937845       -0.09124415392541        0.23472007647586
C           -0.15191854767694        2.96908808588668       -2.27629522302933
O            0.97159386694618        3.14575045945976       -2.30523815590711
N           -0.79149736928333        0.49393749892785        0.43168553967866
C           -1.14511700113838        1.88084266572782        0.59131611256731
C           -1.76103127341502       -0.51727913451636        0.32913354192118
O           -2.94499966219961       -0.37684529242600        0.44765082240236
N           -1.09625149107382       -1.73114132739040        0.07974406031139
C           -1.78789223590738       -2.97637364058352       -0.12835979895992
H            2.51081874392770        1.64068831200996        1.46024013038176
H            3.42489578681667        1.38033995012299       -0.03542334746922
H            1.86794975600945        2.22527008325615       -0.08732401022576
H            3.42676391332024       -1.15411334483355       -0.14596024790047
H           -0.51090338049673        2.35727638875162        1.34123390840022
H           -1.05821542547219        2.41419765344913       -0.36663106594636
H           -2.18510851622785        1.91236895858514        0.91477528089301
H           -1.49883227288943       -3.71112718316305        0.62341562999969
H           -1.57947741119598       -3.36948904989663       -1.12413970996077
H           -2.85376978861391       -2.76978776312766       -0.03788356494422
H            1.66848470941054       -2.99324834195358       -0.32049215812097

          :  Hamiltonian                  GFN2-xTB          :
         :: total energy             -42.152837648481 Eh    ::
         :: gradient norm              0.003383677224 Eh/a0 ::
         :: HOMO-LUMO gap              2.993140426190 eV    ::
         :: SCC energy               -42.681357103970 Eh    ::
         :: -> dispersion             -0.021604106170 Eh    ::
         :: repulsion energy           0.528286803067 Eh    ::

    * Orbital Energies and Occupations

         #    Occupation            Energy/Eh            Energy/eV
      -------------------------------------------------------------
         1        2.0000           -0.9052491             -24.6331
       ...           ...                  ...                  ...
        25        1.9996           -0.6721295             -18.2896
        26        1.9995           -0.6712458             -18.2655
        27        1.9994           -0.6640114             -18.0687
        28        1.9989           -0.6494199             -17.6716
        29        1.9985           -0.6429317             -17.4951
        30        1.9971           -0.6270382             -17.0626
        31        1.9958           -0.6185522             -16.8317
        32        1.9956           -0.6173810             -16.7998
        33        1.9951           -0.6145044             -16.7215
        34        1.9790           -0.5799291             -15.7807
        35        1.9730           -0.5739071             -15.6168
        36        1.9608           -0.5649304             -15.3725
        37        1.8209           -0.5270899             -14.3428 (HOMO)
        38        0.1802           -0.4170940             -11.3497 (LUMO)
        39        0.0469           -0.3834281             -10.4336
        40        0.0434           -0.3815438             -10.3823
        41        0.0100           -0.3462605              -9.4222
        42        0.0076           -0.3397054              -9.2439
        43        0.0000           -0.2141285              -5.8267
        44        0.0000           -0.2043505              -5.5607
        45        0.0000           -0.1810707              -4.9272
        46        0.0000           -0.0886359              -2.4119
        47        0.0000           -0.0813758              -2.2143
        48                         -0.0713855              -1.9425
       ...                                ...                  ...
        67                          0.6639172              18.0661
      -------------------------------------------------------------
                  HL-Gap            0.1099959 Eh            2.9931 eV

     #   Z          covCN         q      C6AA      α(0)
     1   6 C        3.689    -0.079    22.217     6.746
     2   7 N        2.809     0.042    20.504     6.725
     3   6 C        3.079     0.028    27.297     8.566
     4   7 N        2.768    -0.059    22.376     7.025
     5   6 C        3.189     0.079    25.780     8.283
     6   6 C        3.198     0.066    26.015     8.314
     7   6 C        0.856     0.032    34.135     9.749
     8   8 O        0.856    -0.087    16.329     5.418
     9   7 N        2.796    -0.052    22.238     7.004
    10   6 C        3.687    -0.070    22.044     6.721
    11   6 C        2.916     0.303    21.867     7.668
    12   8 O        0.857    -0.349    20.689     6.098
    13   7 N        2.794    -0.053    22.268     7.009
    14   6 C        3.688    -0.066    21.972     6.710
    15   1 H        0.924     0.102     1.770     2.081
    16   1 H        0.925     0.105     1.738     2.062
    17   1 H        0.925     0.105     1.742     2.064
    18   1 H        0.927     0.118     1.626     1.994
    19   1 H        0.924     0.086     1.914     2.163
    20   1 H        0.923     0.099     1.799     2.097
    21   1 H        0.925     0.123     1.591     1.973
    22   1 H        0.924     0.089     1.884     2.147
    23   1 H        0.924     0.088     1.894     2.152
    24   1 H        0.925     0.121     1.603     1.980
    25   1 H        0.860     0.228     0.972     1.544

Wiberg/Mayer (AO) data.
largest (>0.10) Wiberg bond orders for each atom

     #   Z sym  total        # sym  WBO       # sym  WBO       # sym  WBO
 ---------------------------------------------------------------------------
     1   6 C    3.927 --     2 N    0.988    16 H    0.971    17 H    0.966
                            15 H    0.959
     2   7 N    3.599 --     3 C    1.274     6 C    1.176     1 C    0.988
     3   6 C    3.700 --     2 N    1.274     4 N    1.253    18 H    0.956
     4   7 N    3.534 --     3 C    1.253     5 C    1.185    25 H    0.921
     5   6 C    3.885 --     6 C    1.304     4 N    1.185    13 N    1.182
     6   6 C    3.886 --     5 C    1.304     2 N    1.176     9 N    1.172
     7   6 C    2.551 --     8 O    2.506
     8   8 O    2.520 --     7 C    2.506
     9   7 N    3.506 --     6 C    1.172    11 C    1.072    10 C    0.986
                            12 O    0.128
    10   6 C    3.910 --     9 N    0.986    19 H    0.969    21 H    0.962
                            20 H    0.933
    11   6 C    3.929 --    12 O    1.681     9 N    1.072    13 N    1.066
    12   8 O    1.989 --    11 C    1.681     9 N    0.128    13 N    0.127
    13   7 N    3.509 --     5 C    1.182    11 C    1.066    14 C    0.985
                            12 O    0.127
    14   6 C    3.918 --    13 N    0.985    23 H    0.965    22 H    0.965
                            24 H    0.965
    15   1 H    0.983 --     1 C    0.959
    16   1 H    0.987 --     1 C    0.971
    17   1 H    0.986 --     1 C    0.966
    18   1 H    0.986 --     3 C    0.956
    19   1 H    0.986 --    10 C    0.969
    20   1 H    0.979 --    10 C    0.933
    21   1 H    0.981 --    10 C    0.962
    22   1 H    0.984 --    14 C    0.965
    23   1 H    0.984 --    14 C    0.965
    24   1 H    0.982 --    14 C    0.965
    25   1 H    0.947 --     4 N    0.921
 ---------------------------------------------------------------------------

molecular dipole:
                 x           y           z       tot (Debye)
 q only:        2.213      -1.464       0.384
   full:        2.901      -1.607       0.252       8.455

           -------------------------------------------------
          | TOTAL ENERGY              -42.152837648481 Eh   |
          | GRADIENT NORM               0.003383677224 Eh/α |
          | HOMO-LUMO GAP               2.993140426190 eV   |
           -------------------------------------------------

 * finished run on 2024/06/05 at 19:58:48.821
