   * xtb version 6.6.1 (8d0f1dd) compiled by 'conda@1efc2f54142f' on 2023-08-01
          program call               : xtb struc.xyz --opt loose --input .xc1 --gfn2

   ID    Z sym.   atoms
    1    6 C      1, 3, 5-7, 10, 11, 14
    2    7 N      2, 4, 9, 13
    3    8 O      8, 12
    4    1 H      15-25
constraining bond 7 9 to    3.9200000 Å, actual value:    1.3883974 Å

          :  Hamiltonian                  GFN2-xTB          :
 * total energy  :   -30.8165547 Eh     change       -0.2401990E-09 Eh
 * total energy  :   -34.9523938 Eh     change       -0.4135839E+01 Eh
 * total energy  :   -38.4464319 Eh     change       -0.3494038E+01 Eh
 * total energy  :   -40.6493779 Eh     change       -0.2202946E+01 Eh
 * total energy  :   -41.5971561 Eh     change       -0.9477782E+00 Eh
 * total energy  :   -41.7810017 Eh     change       -0.1838456E+00 Eh
 * total energy  :   -41.8077361 Eh     change       -0.2673443E-01 Eh
 * total energy  :   -41.8443970 Eh     change       -0.3666083E-01 Eh
 * total energy  :   -41.8736039 Eh     change       -0.2920693E-01 Eh
 * total energy  :   -41.8641659 Eh     change        0.9438022E-02 Eh
 * total energy  :   -42.1747221 Eh     change       -0.9345317E-04 Eh
 * total energy  :   -42.1748062 Eh     change       -0.8416576E-04 Eh
 * total energy  :   -42.1748845 Eh     change       -0.7825584E-04 Eh
 * total energy  :   -42.1749674 Eh     change       -0.8292973E-04 Eh
 * total energy  :   -42.1750338 Eh     change       -0.6640730E-04 Eh
 * total energy  :   -42.1750276 Eh     change        0.6204236E-05 Eh
 * total energy  :   -42.1750574 Eh     change       -0.2981651E-04 Eh
 * total energy  :   -42.1751282 Eh     change       -0.7074020E-04 Eh
 * total energy  :   -42.1751457 Eh     change       -0.1756333E-04 Eh
   *** GEOMETRY OPTIMIZATION CONVERGED AFTER 97 ITERATIONS ***

 final structure:
================
25
 xtb: 6.6.1 (8d0f1dd)
C            3.68490284548565        0.81083828699958        0.44216129590148
N            2.69662242350862       -0.20159449859831        0.21025367871574
C            2.81068439688724       -1.50386943578697        0.44446853708590
N            1.66987611648738       -2.13904086862061        0.12165261995715
C            0.72136157792042       -1.22520350301749       -0.35516635998066
C            1.41213382944381        0.05647376981548       -0.29228993189283
C            0.92266001065750        1.26021447304633       -0.59441124687683
O            0.45962977885900        2.28762667639121       -0.88311135422969
N           -2.88048706788991        1.49553128739598        0.32768971209709
C           -3.97578365192234        2.31810093163476        0.02941200385008
C           -1.91669771311170        1.19483539778487        0.94380884961413
O           -0.95273463433271        0.74566871655947        1.41360217704764
N           -0.46287165859803       -1.41776528452849       -0.76354138527312
C           -1.15790708673712       -2.65175395343303       -0.82095832398121
H            3.37317046805834        1.46655153773671        1.25858244082660
H            4.63318904824707        0.34509852544076        0.70214429895709
H            3.81629683784893        1.41760755708238       -0.45533261048644
H            3.68990590275948       -1.98184490456965        0.83083139061245
H           -3.66098938520021        3.35775788423165       -0.08778516431081
H           -4.41037852399512        1.96747893906099       -0.90781814161717
H           -4.72912771363244        2.25374637836306        0.81821736918340
H           -0.80912212616829       -3.40152556718498       -0.10272307229675
H           -1.08208072106430       -3.06311115189478       -1.83174475170788
H           -2.21148314687116       -2.44217878422046       -0.63079912657528
H            1.51966170749981       -3.13140386807515        0.21402871328560

          :  Hamiltonian                  GFN2-xTB          :
         :: total energy             -42.175145746716 Eh    ::
         :: gradient norm              0.001246461200 Eh/a0 ::
         :: HOMO-LUMO gap              2.493555027331 eV    ::
         :: SCC energy               -42.788181553932 Eh    ::
         :: -> dispersion             -0.019537012307 Eh    ::
         :: repulsion energy           0.612927950378 Eh    ::

    * Orbital Energies and Occupations

         #    Occupation            Energy/Eh            Energy/eV
      -------------------------------------------------------------
         1        2.0000           -0.8926836             -24.2912
       ...           ...                  ...                  ...
        25        1.9993           -0.6549855             -17.8231
        26        1.9992           -0.6512532             -17.7215
        27        1.9987           -0.6396172             -17.4049
        28        1.9982           -0.6323971             -17.2084
        29        1.9978           -0.6281171             -17.0919
        30        1.9975           -0.6246742             -16.9982
        31        1.9957           -0.6117897             -16.6476
        32        1.9936           -0.6023796             -16.3916
        33        1.9895           -0.5906326             -16.0719
        34        1.9215           -0.5419863             -14.7482
        35        1.9110           -0.5388807             -14.6637
        36        1.8345           -0.5231754             -14.2363
        37        1.7820           -0.5159415             -14.0395 (HOMO)
        38        0.2943           -0.4243051             -11.5459 (LUMO)
        39        0.2583           -0.4207045             -11.4480
        40        0.0265           -0.3636626              -9.8958
        41        0.0023           -0.3050152              -8.2999
        42        0.0012           -0.2890462              -7.8653
        43        0.0007           -0.2782241              -7.5709
        44        0.0000           -0.1689420              -4.5971
        45        0.0000           -0.1374584              -3.7404
        46        0.0000           -0.0786746              -2.1408
        47        0.0000           -0.0721391              -1.9630
        48                         -0.0381699              -1.0387
       ...                                ...                  ...
        67                          1.2291895              33.4479
      -------------------------------------------------------------
                  HL-Gap            0.0916365 Eh            2.4936 eV

     #   Z          covCN         q      C6AA      α(0)
     1   6 C        3.691    -0.082    22.256     6.751
     2   7 N        2.802     0.055    20.274     6.687
     3   6 C        2.957     0.064    26.569     8.454
     4   7 N        2.771    -0.087    22.929     7.112
     5   6 C        2.931     0.158    24.593     8.133
     6   6 C        3.040    -0.005    28.116     8.697
     7   6 C        1.843     0.241    25.556     8.167
     8   8 O        0.856    -0.143    17.171     5.556
     9   7 N        1.820    -0.121    24.393     7.318
    10   6 C        3.685    -0.035    21.407     6.624
    11   6 C        1.769     0.312    24.216     7.956
    12   8 O        0.856    -0.283    19.477     5.917
    13   7 N        1.824    -0.203    26.240     7.590
    14   6 C        3.697    -0.035    21.379     6.614
    15   1 H        0.924     0.103     1.762     2.076
    16   1 H        0.925     0.101     1.775     2.084
    17   1 H        0.924     0.100     1.789     2.092
    18   1 H        0.926     0.110     1.699     2.038
    19   1 H        0.924     0.097     1.817     2.108
    20   1 H        0.924     0.106     1.730     2.057
    21   1 H        0.924     0.098     1.799     2.098
    22   1 H        0.924     0.053     2.281     2.362
    23   1 H        0.924     0.090     1.881     2.145
    24   1 H        0.924     0.094     1.841     2.122
    25   1 H        0.860     0.214     1.037     1.595

Wiberg/Mayer (AO) data.
largest (>0.10) Wiberg bond orders for each atom

     #   Z sym  total        # sym  WBO       # sym  WBO       # sym  WBO
 ---------------------------------------------------------------------------
     1   6 C    3.931 --     2 N    0.997    16 H    0.973    17 H    0.963
                            15 H    0.958
     2   7 N    3.556 --     3 C    1.354     6 C    1.058     1 C    0.997
     3   6 C    3.738 --     2 N    1.354     4 N    1.282    18 H    0.952
     4   7 N    3.495 --     3 C    1.282     5 C    1.069    25 H    0.924
     5   6 C    3.893 --    13 N    1.617     6 C    1.070     4 N    1.069
     6   6 C    3.822 --     7 C    1.425     5 C    1.070     2 N    1.058
                             8 O    0.122
     7   6 C    3.557 --     8 O    2.032     6 C    1.425
     8   8 O    2.243 --     7 C    2.032     6 C    0.122
     9   7 N    3.375 --    11 C    2.006    10 C    1.028    12 O    0.341
    10   6 C    3.905 --     9 N    1.028    20 H    0.951    19 H    0.944
                            21 H    0.944
    11   6 C    3.929 --     9 N    2.006    12 O    1.850
    12   8 O    2.234 --    11 C    1.850     9 N    0.341
    13   7 N    2.874 --     5 C    1.617    14 C    1.046
    14   6 C    3.927 --    13 N    1.046    22 H    0.953    24 H    0.951
                            23 H    0.938
    15   1 H    0.981 --     1 C    0.958
    16   1 H    0.988 --     1 C    0.973
    17   1 H    0.984 --     1 C    0.963
    18   1 H    0.984 --     3 C    0.952
    19   1 H    0.970 --    10 C    0.944
    20   1 H    0.972 --    10 C    0.951
    21   1 H    0.969 --    10 C    0.944
    22   1 H    0.967 --    14 C    0.953
    23   1 H    0.964 --    14 C    0.938
    24   1 H    0.968 --    14 C    0.951
    25   1 H    0.952 --     4 N    0.924
 ---------------------------------------------------------------------------

molecular dipole:
                 x           y           z       tot (Debye)
 q only:        1.375      -0.786      -0.002
   full:        1.615      -1.166       0.247       5.101

           -------------------------------------------------
          | TOTAL ENERGY              -42.175145746716 Eh   |
          | GRADIENT NORM               0.001246461200 Eh/α |
          | HOMO-LUMO GAP               2.493555027331 eV   |
           -------------------------------------------------

 * finished run on 2024/06/05 at 19:58:51.101
