   * xtb version 6.6.1 (8d0f1dd) compiled by 'conda@1efc2f54142f' on 2023-08-01
          program call               : xtb struc.xyz --opt loose --input .xc1 --gfn2

   ID    Z sym.   atoms
    1    6 C      1, 3, 5-7, 10, 11, 14
    2    7 N      2, 4, 9, 13
    3    8 O      8, 12
    4    1 H      15-25
constraining bond 13 23 to    4.0600000 Å, actual value:    2.0982917 Å

          :  Hamiltonian                  GFN2-xTB          :
 * total energy  :   -35.3765964 Eh     change       -0.6650680E-10 Eh
 * total energy  :   -38.4003798 Eh     change       -0.3023783E+01 Eh
 * total energy  :   -40.5862341 Eh     change       -0.2185854E+01 Eh
 * total energy  :   -41.6010027 Eh     change       -0.1014769E+01 Eh
 * total energy  :   -41.8715307 Eh     change       -0.2705281E+00 Eh
 * total energy  :   -41.8999631 Eh     change       -0.2843240E-01 Eh
 * total energy  :   -41.9146008 Eh     change       -0.1463762E-01 Eh
 * total energy  :   -41.9422087 Eh     change       -0.2760796E-01 Eh
 * total energy  :   -41.9637553 Eh     change       -0.2154660E-01 Eh
 * total energy  :   -41.9746687 Eh     change       -0.1091334E-01 Eh
 * total energy  :   -42.1013325 Eh     change       -0.1450537E-02 Eh
 * total energy  :   -42.1024045 Eh     change       -0.1071926E-02 Eh
 * total energy  :   -42.1029023 Eh     change       -0.4978690E-03 Eh
 * total energy  :   -42.1031504 Eh     change       -0.2480733E-03 Eh
 * total energy  :   -42.1030678 Eh     change        0.8261478E-04 Eh
 * total energy  :   -42.1033757 Eh     change       -0.3078532E-03 Eh
 * total energy  :   -42.1034371 Eh     change       -0.6148649E-04 Eh
 * total energy  :   -42.1035183 Eh     change       -0.8118581E-04 Eh
 * total energy  :   -42.1035461 Eh     change       -0.2776216E-04 Eh
   *** GEOMETRY OPTIMIZATION CONVERGED AFTER 32 ITERATIONS ***

 final structure:
================
25
 xtb: 6.6.1 (8d0f1dd)
C            3.23156979646897        1.18947959506923       -0.00822426253698
N            2.27680335185719        0.11277682996389        0.02368464759158
C            2.54516785223768       -1.18741106600298        0.05645205356577
N            1.39792693967126       -1.89611211269812        0.11118613091260
C            0.35328377209140       -1.00481856093393        0.10852272512049
C            0.91149031910960        0.26640643564045        0.05363964815495
C            0.10354957814605        1.46662942604879        0.02331503459821
O            0.51993230008581        2.60128608473664       -0.01302841910364
N           -1.26106319962904        1.15611527764570        0.03631777799512
C           -2.19776136602503        2.27548001470808       -0.01127482575947
C           -1.85750154542766       -0.07288787993244        0.07380770854837
O           -3.04088031303274       -0.24404942776776        0.05705357867271
N           -0.98020839241493       -1.23922386875882        0.14656519478264
C           -1.55974131411935       -2.44361427546446        0.24556696464350
H            3.75307453563088        1.25923065203860        0.94779555331120
H            3.96463891555990        1.02300715737676       -0.79681726808032
H            2.70162587591441        2.12446153737680       -0.18789777559518
H            3.52638270568886       -1.62118689321968        0.04272818515872
H           -1.62129950518572        3.19710653388446       -0.00504956715507
H           -2.80101069207458        2.21208430694200       -0.91589912990026
H           -2.86078313002508        2.23719963717396        0.85169267882066
H           -0.97105648612114       -3.33706847712105        0.31555654604839
H           -1.67432158482747       -4.87971781427407       -1.51040091238159
H           -2.63280778621663       -2.47264047497252        0.25827522355594
H            1.33342088673731       -2.90429409585961        0.12760412693181

          :  Hamiltonian                  GFN2-xTB          :
         :: total energy             -42.103546087495 Eh    ::
         :: gradient norm              0.002771180745 Eh/a0 ::
         :: HOMO-LUMO gap              0.292592465043 eV    ::
         :: SCC energy               -42.626878683344 Eh    ::
         :: -> dispersion             -0.022711808805 Eh    ::
         :: repulsion energy           0.523237726357 Eh    ::

    * Orbital Energies and Occupations

         #    Occupation            Energy/Eh            Energy/eV
      -------------------------------------------------------------
         1        2.0000           -0.9209955             -25.0616
       ...           ...                  ...                  ...
        25        2.0000           -0.6725782             -18.3018
        26        2.0000           -0.6722783             -18.2936
        27        2.0000           -0.6631625             -18.0456
        28        1.9999           -0.6389636             -17.3871
        29        1.9998           -0.6351669             -17.2838
        30        1.9998           -0.6314145             -17.1817
        31        1.9996           -0.6230145             -16.9531
        32        1.9985           -0.6018879             -16.3782
        33        1.9975           -0.5937541             -16.1569
        34        1.9966           -0.5890122             -16.0278
        35        1.9875           -0.5681157             -15.4592
        36        1.9860           -0.5663612             -15.4115
        37        1.1338           -0.4921791             -13.3929 (HOMO)
        38        0.7979           -0.4814266             -13.1003 (LUMO)
        39        0.0921           -0.4399241             -11.9709
        40        0.0094           -0.4030695             -10.9681
        41        0.0019           -0.3773562             -10.2684
        42        0.0000           -0.2926097              -7.9623
        43                         -0.2174992              -5.9185
        44                         -0.2046139              -5.5678
        45                         -0.1547086              -4.2098
        46                         -0.1388423              -3.7781
        47                         -0.0718956              -1.9564
        48                         -0.0436405              -1.1875
       ...                                ...                  ...
        67                          0.5542459              15.0818
      -------------------------------------------------------------
                  HL-Gap            0.0107526 Eh            0.2926 eV

     #   Z          covCN         q      C6AA      α(0)
     1   6 C        3.691    -0.097    22.543     6.794
     2   7 N        2.831     0.087    19.736     6.598
     3   6 C        3.051     0.055    26.712     8.476
     4   7 N        2.789    -0.055    22.308     7.015
     5   6 C        3.038     0.094    25.888     8.345
     6   6 C        3.114    -0.015    28.237     8.705
     7   6 C        2.763     0.268    22.482     7.765
     8   8 O        0.858    -0.362    20.932     6.134
     9   7 N        2.744    -0.077    22.742     7.083
    10   6 C        3.714    -0.065    21.879     6.683
    11   6 C        2.734     0.311    21.713     7.629
    12   8 O        0.859    -0.333    20.393     6.055
    13   7 N        2.735     0.010    21.082     6.819
    14   6 C        2.797    -0.053    29.298     8.867
    15   1 H        0.924     0.112     1.682     2.028
    16   1 H        0.925     0.108     1.715     2.048
    17   1 H        0.925     0.140     1.464     1.892
    18   1 H        0.926     0.130     1.537     1.939
    19   1 H        0.925     0.117     1.637     2.001
    20   1 H        0.925     0.100     1.788     2.091
    21   1 H        0.925     0.100     1.784     2.089
    22   1 H        0.926     0.095     1.836     2.119
    23   1 H        0.000    -0.036     9.366     5.596
    24   1 H        0.926     0.137     1.481     1.903
    25   1 H        0.860     0.232     0.958     1.533

Wiberg/Mayer (AO) data.
largest (>0.10) Wiberg bond orders for each atom

     #   Z sym  total        # sym  WBO       # sym  WBO       # sym  WBO
 ---------------------------------------------------------------------------
     1   6 C    3.911 --     2 N    0.984    16 H    0.962    17 H    0.959
                            15 H    0.954
     2   7 N    3.676 --     3 C    1.388     6 C    1.166     1 C    0.984
     3   6 C    3.847 --     2 N    1.388     4 N    1.290    18 H    0.951
     4   7 N    3.558 --     3 C    1.290     5 C    1.168    25 H    0.917
     5   6 C    3.887 --     6 C    1.342     4 N    1.168    13 N    1.162
     6   6 C    3.859 --     5 C    1.342     2 N    1.166     7 C    1.072
     7   6 C    3.917 --     8 O    1.679     9 N    1.081     6 C    1.072
     8   8 O    1.992 --     7 C    1.679     9 N    0.138
     9   7 N    3.569 --    11 C    1.171     7 C    1.081    10 C    0.962
                            12 O    0.151     8 O    0.138
    10   6 C    3.909 --    19 H    0.967    21 H    0.966    20 H    0.965
                             9 N    0.962
    11   6 C    3.925 --    12 O    1.732     9 N    1.171    13 N    0.928
    12   8 O    2.061 --    11 C    1.732     9 N    0.151
    13   7 N    3.624 --    14 C    1.309     5 C    1.162    11 C    0.928
    14   6 C    3.357 --    13 N    1.309    22 H    0.965    24 H    0.957
    15   1 H    0.984 --     1 C    0.954
    16   1 H    0.986 --     1 C    0.962
    17   1 H    0.980 --     1 C    0.959
    18   1 H    0.982 --     3 C    0.951
    19   1 H    0.985 --    10 C    0.967
    20   1 H    0.986 --    10 C    0.965
    21   1 H    0.986 --    10 C    0.966
    22   1 H    0.990 --    14 C    0.965
    23   1 H    0.027
    24   1 H    0.980 --    14 C    0.957
    25   1 H    0.946 --     4 N    0.917
 ---------------------------------------------------------------------------

molecular dipole:
                 x           y           z       tot (Debye)
 q only:        2.640      -1.458       0.287
   full:        2.902      -2.052       0.298       9.066

           -------------------------------------------------
          | TOTAL ENERGY              -42.103546087495 Eh   |
          | GRADIENT NORM               0.002771180745 Eh/α |
          | HOMO-LUMO GAP               0.292592465043 eV   |
           -------------------------------------------------

 * finished run on 2024/06/05 at 19:58:01.660
