   * xtb version 6.6.1 (8d0f1dd) compiled by 'conda@1efc2f54142f' on 2023-08-01
          program call               : xtb struc.xyz --opt loose --input .xc1 --gfn2

   ID    Z sym.   atoms
    1    6 C      1, 3, 5-7, 10, 11, 14
    2    7 N      2, 4, 9, 13
    3    8 O      8, 12
    4    1 H      15-25
constraining bond 2 13 to    5.8400000 Å, actual value:    3.5076258 Å

          :  Hamiltonian                  GFN2-xTB          :
 * total energy  :   -22.8213794 Eh     change       -0.6650680E-10 Eh
 * total energy  :   -31.4940152 Eh     change       -0.8672636E+01 Eh
 * total energy  :   -36.8474419 Eh     change       -0.5353427E+01 Eh
 * total energy  :   -39.9600826 Eh     change       -0.3112641E+01 Eh
 * total energy  :   -41.3240426 Eh     change       -0.1363960E+01 Eh
 * total energy  :   -41.5439419 Eh     change       -0.2198993E+00 Eh
 * total energy  :   -41.5881205 Eh     change       -0.4417861E-01 Eh
 * total energy  :   -41.6659011 Eh     change       -0.7778055E-01 Eh
 * total energy  :   -41.7127001 Eh     change       -0.4679897E-01 Eh
 * total energy  :   -41.7429671 Eh     change       -0.3026706E-01 Eh
 * total energy  :   -42.1366748 Eh     change       -0.1943582E-03 Eh
 * total energy  :   -42.1368800 Eh     change       -0.2051786E-03 Eh
 * total energy  :   -42.1370557 Eh     change       -0.1756802E-03 Eh
 * total energy  :   -42.1370386 Eh     change        0.1705855E-04 Eh
 * total energy  :   -42.1372179 Eh     change       -0.1792737E-03 Eh
 * total energy  :   -42.1372443 Eh     change       -0.2645693E-04 Eh
 * total energy  :   -42.1373072 Eh     change       -0.6288265E-04 Eh
 * total energy  :   -42.1373545 Eh     change       -0.4728373E-04 Eh
 * total energy  :   -42.1373824 Eh     change       -0.2791133E-04 Eh
   *** GEOMETRY OPTIMIZATION CONVERGED AFTER 111 ITERATIONS ***

 final structure:
================
25
 xtb: 6.6.1 (8d0f1dd)
C            5.02557454953581        0.01750873381578       -0.25699740514784
N            4.08370521869329       -0.06240669429461        0.78388683913736
C            2.85329593244446       -0.24616848017346        0.77634503398249
N            2.04383705190720       -0.43148449407072       -0.37441918229128
C            0.77516566948674       -0.61767263786352       -0.37581865909339
C           -0.47351353988415       -0.33868762907468       -0.13685895994833
C           -0.96478308169703        1.13010649349716       -0.00618900861942
O           -0.27985646020856        2.10767945753403        0.00543731430286
N           -2.30759341911149        1.00048945834406        0.10260135638220
C           -3.22557863010004        2.10953444286830        0.23012325977559
C           -2.73695288682396       -0.33177506856165        0.06968571677019
O           -3.86064881147428       -0.71931113929967        0.15815440174429
N           -1.59606356359431       -1.11124874403155       -0.07826563382703
C           -1.63471158381624       -2.54960191972704       -0.13396126940557
H            5.49527623783314        1.00234443353840       -0.19780680156799
H            5.80877663922556       -0.71651033982924       -0.04632537282924
H            4.64099443929949       -0.14453406501862       -1.27329835434322
H            2.31023409216311       -0.26528178292685        1.70975301083428
H           -2.68371680417591        2.97323358482920        0.61063716674925
H           -3.66210413217855        2.35306510318713       -0.74037232589575
H           -4.02476521101524        1.82569491611785        0.91409108492264
H           -1.17479831564864       -2.98567451788641        0.75400471015336
H           -1.11464106297283       -2.90821995642441       -1.02177624052876
H           -2.68093045432469       -2.84741043032438       -0.17648495869376
H            2.54422964052275       -0.42543018263450       -1.26497410468163

          :  Hamiltonian                  GFN2-xTB          :
         :: total energy             -42.137382418490 Eh    ::
         :: gradient norm              0.003243271060 Eh/a0 ::
         :: HOMO-LUMO gap              1.699684725328 eV    ::
         :: SCC energy               -42.699098958714 Eh    ::
         :: -> dispersion             -0.019600968877 Eh    ::
         :: repulsion energy           0.561759881278 Eh    ::

    * Orbital Energies and Occupations

         #    Occupation            Energy/Eh            Energy/eV
      -------------------------------------------------------------
         1        2.0000           -0.8911104             -24.2483
       ...           ...                  ...                  ...
        25        1.9999           -0.6703317             -18.2407
        26        1.9999           -0.6667454             -18.1431
        27        1.9996           -0.6432806             -17.5046
        28        1.9994           -0.6359651             -17.3055
        29        1.9991           -0.6304016             -17.1541
        30        1.9989           -0.6265250             -17.0486
        31        1.9978           -0.6157363             -16.7550
        32        1.9955           -0.6045801             -16.4515
        33        1.9873           -0.5880832             -16.0026
        34        1.9733           -0.5762793             -15.6814
        35        1.9689           -0.5738203             -15.6144
        36        1.9448           -0.5645453             -15.3621
        37        1.8023           -0.5431248             -14.7792 (HOMO)
        38        0.3000           -0.4806626             -13.0795 (LUMO)
        39        0.0328           -0.4433130             -12.0632
        40        0.0006           -0.3808702             -10.3640
        41        0.0000           -0.3389117              -9.2223
        42        0.0000           -0.3304641              -8.9924
        43                         -0.1978620              -5.3841
        44                         -0.1685036              -4.5852
        45                         -0.1412384              -3.8433
        46                         -0.0765703              -2.0836
        47                         -0.0675696              -1.8387
        48                         -0.0238333              -0.6485
       ...                                ...                  ...
        67                          0.7544073              20.5285
      -------------------------------------------------------------
                  HL-Gap            0.0624623 Eh            1.6997 eV

     #   Z          covCN         q      C6AA      α(0)
     1   6 C        3.693    -0.052    21.689     6.663
     2   7 N        1.823    -0.108    24.113     7.276
     3   6 C        2.773     0.099    25.787     8.317
     4   7 N        2.683    -0.006    21.376     6.867
     5   6 C        1.914     0.043    29.996     8.845
     6   6 C        2.970     0.042    27.053     8.532
     7   6 C        2.820     0.283    22.214     7.723
     8   8 O        0.857    -0.313    20.022     5.999
     9   7 N        2.786    -0.066    22.526     7.049
    10   6 C        3.691    -0.060    21.840     6.687
    11   6 C        2.811     0.324    21.495     7.596
    12   8 O        0.857    -0.326    20.258     6.035
    13   7 N        2.775    -0.041    22.040     6.973
    14   6 C        3.691    -0.067    21.979     6.709
    15   1 H        0.924     0.118     1.626     1.994
    16   1 H        0.924     0.117     1.635     1.999
    17   1 H        0.923     0.058     2.228     2.334
    18   1 H        0.926     0.108     1.717     2.049
    19   1 H        0.925     0.106     1.731     2.058
    20   1 H        0.924     0.101     1.774     2.083
    21   1 H        0.925     0.110     1.694     2.036
    22   1 H        0.924     0.089     1.889     2.149
    23   1 H        0.925     0.087     1.913     2.163
    24   1 H        0.925     0.118     1.630     1.996
    25   1 H        0.860     0.235     0.943     1.521

Wiberg/Mayer (AO) data.
largest (>0.10) Wiberg bond orders for each atom

     #   Z sym  total        # sym  WBO       # sym  WBO       # sym  WBO
 ---------------------------------------------------------------------------
     1   6 C    3.936 --     2 N    1.066    17 H    0.946    16 H    0.932
                            15 H    0.931
     2   7 N    3.070 --     3 C    1.839     1 C    1.066
     3   6 C    3.914 --     2 N    1.839     4 N    1.007    18 H    0.938
     4   7 N    3.569 --     5 C    1.508     3 C    1.007    25 H    0.885
     5   6 C    3.613 --     6 C    1.754     4 N    1.508
     6   6 C    3.931 --     5 C    1.754    13 N    1.148     7 C    0.823
     7   6 C    3.909 --     8 O    1.762     9 N    1.198     6 C    0.823
     8   8 O    2.122 --     7 C    1.762     9 N    0.156
     9   7 N    3.546 --     7 C    1.198    11 C    1.045    10 C    0.970
                             8 O    0.156    12 O    0.106
    10   6 C    3.902 --     9 N    0.970    19 H    0.970    21 H    0.963
                            20 H    0.957
    11   6 C    3.949 --    12 O    1.738    13 N    1.077     9 N    1.045
    12   8 O    2.074 --    11 C    1.738    13 N    0.121     9 N    0.106
    13   7 N    3.493 --     6 C    1.148    11 C    1.077    14 C    0.984
                            12 O    0.121
    14   6 C    3.920 --    13 N    0.984    23 H    0.967    24 H    0.967
                            22 H    0.963
    15   1 H    0.974 --     1 C    0.931
    16   1 H    0.973 --     1 C    0.932
    17   1 H    0.967 --     1 C    0.946
    18   1 H    0.980 --     3 C    0.938
    19   1 H    0.985 --    10 C    0.970
    20   1 H    0.978 --    10 C    0.957
    21   1 H    0.980 --    10 C    0.963
    22   1 H    0.981 --    14 C    0.963
    23   1 H    0.984 --    14 C    0.967
    24   1 H    0.984 --    14 C    0.967
    25   1 H    0.938 --     4 N    0.885
 ---------------------------------------------------------------------------

molecular dipole:
                 x           y           z       tot (Debye)
 q only:        2.121      -0.845      -0.420
   full:        2.112      -0.984      -0.752       6.224

           -------------------------------------------------
          | TOTAL ENERGY              -42.137382418490 Eh   |
          | GRADIENT NORM               0.003243271060 Eh/α |
          | HOMO-LUMO GAP               1.699684725328 eV   |
           -------------------------------------------------

 * finished run on 2024/06/05 at 19:59:08.576
