   * xtb version 6.6.1 (8d0f1dd) compiled by 'conda@1efc2f54142f' on 2023-08-01
          program call               : xtb struc.xyz --opt loose --input .xc1 --gfn2

   ID    Z sym.   atoms
    1    6 C      1, 3, 5-7, 10, 11, 14
    2    7 N      2, 4, 9, 13
    3    8 O      8, 12
    4    1 H      15-25
constraining bond 4 14 to    5.9200000 Å, actual value:    2.9945428 Å

          :  Hamiltonian                  GFN2-xTB          :
 * total energy  :   -26.9667393 Eh     change       -0.6650680E-10 Eh
 * total energy  :   -32.0912462 Eh     change       -0.5124507E+01 Eh
 * total energy  :   -35.6750117 Eh     change       -0.3583766E+01 Eh
 * total energy  :   -38.4039282 Eh     change       -0.2728917E+01 Eh
 * total energy  :   -40.4145893 Eh     change       -0.2010661E+01 Eh
 * total energy  :   -41.3628708 Eh     change       -0.9482816E+00 Eh
 * total energy  :   -41.5537897 Eh     change       -0.1909189E+00 Eh
 * total energy  :   -41.5829423 Eh     change       -0.2915264E-01 Eh
 * total energy  :   -41.6166649 Eh     change       -0.3372253E-01 Eh
 * total energy  :   -41.6395534 Eh     change       -0.2288852E-01 Eh
 * total energy  :   -42.1167721 Eh     change       -0.8333420E-03 Eh
 * total energy  :   -42.1181688 Eh     change       -0.1396690E-02 Eh
 * total energy  :   -42.1188619 Eh     change       -0.6931331E-03 Eh
 * total energy  :   -42.1196164 Eh     change       -0.7545084E-03 Eh
 * total energy  :   -42.1200966 Eh     change       -0.4801850E-03 Eh
 * total energy  :   -42.1204411 Eh     change       -0.3444602E-03 Eh
 * total energy  :   -42.1205209 Eh     change       -0.7978112E-04 Eh
 * total energy  :   -42.1206027 Eh     change       -0.8183048E-04 Eh
 * total energy  :   -42.1206291 Eh     change       -0.2639295E-04 Eh
   *** GEOMETRY OPTIMIZATION CONVERGED AFTER 54 ITERATIONS ***

 final structure:
================
25
 xtb: 6.6.1 (8d0f1dd)
C            3.31193622027484        1.44571164302007        0.02420636691262
N            2.60623434247356        0.18740456487938       -0.00307804822291
C            3.28516840190288       -0.99849726836813       -0.02257941789922
N            2.77962744453782       -2.14960884433099       -0.03396332266222
C            0.70464090863276       -1.20221513129255       -0.00573549490137
C            1.24128401882382        0.03654508907832        0.00191231376339
C            0.23575470420369        1.12280253772593        0.00263225761960
O            0.50541871219930        2.29761562746190        0.00106074975969
N           -1.08907727632979        0.66985867649667        0.00202590214749
C           -2.14552058941367        1.66934128862806       -0.00186420169707
C           -1.44278547028434       -0.64353208849958        0.00089821577385
O           -2.71650600355373       -0.89994879422267        0.00554200944286
N           -0.52916470084693       -1.59281648008473       -0.00565409793689
C           -3.13895027579003       -2.26459540213181        0.00812492088063
H            3.87982843225840        1.53958552209020        0.95209087571635
H            4.00294542654973        1.50503674607541       -0.81801906422427
H            2.60038227858541        2.26714844911319       -0.03798273111972
H            4.36835380150311       -0.93379633874944       -0.02892022495764
H           -1.68121997095146        2.65391125938226        0.00370243944102
H           -2.76158279362649        1.55288248287143       -0.89296567989855
H           -2.77381001576686        1.54788539081560        0.87979112643415
H           -2.77826137220663       -2.77556127272371        0.90135460459178
H           -2.77277504436770       -2.78165681698039       -0.87915796489037
H           -4.22800583661259       -2.22917334811478        0.00410375259693
H            1.69651617190518       -2.20608895053945       -0.02635366877006

          :  Hamiltonian                  GFN2-xTB          :
         :: total energy             -42.120629081374 Eh    ::
         :: gradient norm              0.002724758266 Eh/a0 ::
         :: HOMO-LUMO gap              1.564648004516 eV    ::
         :: SCC energy               -42.639816823880 Eh    ::
         :: -> dispersion             -0.021541685102 Eh    ::
         :: repulsion energy           0.519148850697 Eh    ::

    * Orbital Energies and Occupations

         #    Occupation            Energy/Eh            Energy/eV
      -------------------------------------------------------------
         1        2.0000           -0.9206955             -25.0534
       ...           ...                  ...                  ...
        25        1.9999           -0.6688511             -18.2004
        26        1.9999           -0.6654956             -18.1091
        27        1.9994           -0.6430075             -17.4971
        28        1.9991           -0.6365369             -17.3211
        29        1.9988           -0.6310415             -17.1715
        30        1.9984           -0.6268977             -17.0588
        31        1.9975           -0.6197178             -16.8634
        32        1.9949           -0.6084002             -16.5554
        33        1.9927           -0.6028168             -16.4035
        34        1.9845           -0.5907215             -16.0744
        35        1.9795           -0.5862949             -15.9539
        36        1.9725           -0.5815755             -15.8255
        37        1.7524           -0.5449211             -14.8281 (HOMO)
        38        0.3156           -0.4874213             -13.2634 (LUMO)
        39        0.0117           -0.4326437             -11.7728
        40        0.0029           -0.4106966             -11.1756
        41        0.0005           -0.3824826             -10.4079
        42        0.0000           -0.2952739              -8.0348
        43                         -0.2014901              -5.4828
        44                         -0.1633592              -4.4452
        45                         -0.1388623              -3.7786
        46                         -0.0745559              -2.0288
        47                         -0.0259759              -0.7068
        48                         -0.0245154              -0.6671
       ...                                ...                  ...
        67                          0.5271609              14.3448
      -------------------------------------------------------------
                  HL-Gap            0.0574998 Eh            1.5646 eV

     #   Z          covCN         q      C6AA      α(0)
     1   6 C        3.694    -0.085    22.307     6.757
     2   7 N        2.745     0.019    20.918     6.793
     3   6 C        2.815     0.118    25.387     8.255
     4   7 N        1.799    -0.222    26.664     7.649
     5   6 C        2.586     0.066    26.545     8.424
     6   6 C        2.943     0.018    27.599     8.616
     7   6 C        2.786     0.277    22.319     7.738
     8   8 O        0.858    -0.339    20.506     6.071
     9   7 N        2.742    -0.055    22.299     7.013
    10   6 C        3.703    -0.070    21.999     6.706
    11   6 C        2.851     0.303    21.864     7.664
    12   8 O        1.706    -0.172    16.901     5.551
    13   7 N        1.834    -0.209    26.380     7.611
    14   6 C        3.654     0.001    20.863     6.558
    15   1 H        0.924     0.099     1.795     2.095
    16   1 H        0.924     0.098     1.802     2.099
    17   1 H        0.925     0.128     1.549     1.946
    18   1 H        0.925     0.139     1.471     1.896
    19   1 H        0.925     0.125     1.574     1.962
    20   1 H        0.925     0.103     1.753     2.071
    21   1 H        0.925     0.104     1.751     2.070
    22   1 H        0.924     0.098     1.802     2.099
    23   1 H        0.924     0.098     1.801     2.099
    24   1 H        0.925     0.118     1.632     1.998
    25   1 H        1.358     0.239     0.916     1.494

Wiberg/Mayer (AO) data.
largest (>0.10) Wiberg bond orders for each atom

     #   Z sym  total        # sym  WBO       # sym  WBO       # sym  WBO
 ---------------------------------------------------------------------------
     1   6 C    3.906 --     2 N    0.987    16 H    0.960    15 H    0.957
                            17 H    0.954
     2   7 N    3.525 --     3 C    1.179     6 C    1.145     1 C    0.987
                             4 N    0.113
     3   6 C    3.946 --     4 N    1.787     2 N    1.179    18 H    0.905
     4   7 N    2.896 --     3 C    1.787    25 H    0.635     5 C    0.202
                             2 N    0.113
     5   6 C    3.660 --     6 C    1.478    13 N    1.446    25 H    0.281
                             4 N    0.202
     6   6 C    3.901 --     5 C    1.478     2 N    1.145     7 C    1.008
     7   6 C    3.931 --     8 O    1.693     9 N    1.099     6 C    1.008
     8   8 O    2.066 --     7 C    1.693     9 N    0.137
     9   7 N    3.590 --    11 C    1.203     7 C    1.099    10 C    0.965
                             8 O    0.137
    10   6 C    3.901 --     9 N    0.965    19 H    0.964    21 H    0.962
                            20 H    0.962
    11   6 C    3.912 --    13 N    1.311    12 O    1.221     9 N    1.203
    12   8 O    2.364 --    11 C    1.221    14 C    0.924
    13   7 N    3.095 --     5 C    1.446    11 C    1.311
    14   6 C    3.865 --    24 H    0.971    23 H    0.967    22 H    0.967
                            12 O    0.924
    15   1 H    0.974 --     1 C    0.957
    16   1 H    0.977 --     1 C    0.960
    17   1 H    0.980 --     1 C    0.954
    18   1 H    0.961 --     3 C    0.905
    19   1 H    0.983 --    10 C    0.964
    20   1 H    0.985 --    10 C    0.962
    21   1 H    0.985 --    10 C    0.962
    22   1 H    0.985 --    14 C    0.967
    23   1 H    0.985 --    14 C    0.967
    24   1 H    0.984 --    14 C    0.971
    25   1 H    0.942 --     4 N    0.635     5 C    0.281
 ---------------------------------------------------------------------------

molecular dipole:
                 x           y           z       tot (Debye)
 q only:        0.274      -0.741       0.007
   full:        0.367      -0.543       0.014       1.665

           -------------------------------------------------
          | TOTAL ENERGY              -42.120629081374 Eh   |
          | GRADIENT NORM               0.002724758266 Eh/α |
          | HOMO-LUMO GAP               1.564648004516 eV   |
           -------------------------------------------------

 * finished run on 2024/06/05 at 19:57:56.923
