   * xtb version 6.6.1 (8d0f1dd) compiled by 'conda@1efc2f54142f' on 2023-08-01
          program call               : xtb struc.xyz --opt loose --input .xc1 --gfn2

   ID    Z sym.   atoms
    1    6 C      1, 3, 5-7, 10, 11, 14
    2    7 N      2, 4, 9, 13
    3    8 O      8, 12
    4    1 H      15-25
constraining bond 20 21 to    3.2800000 Å, actual value:    1.7685310 Å

          :  Hamiltonian                  GFN2-xTB          :
 * total energy  :   -38.1687418 Eh     change       -0.6650680E-10 Eh
 * total energy  :   -40.2707870 Eh     change       -0.2102045E+01 Eh
 * total energy  :   -41.6264372 Eh     change       -0.1355650E+01 Eh
 * total energy  :   -42.0325093 Eh     change       -0.4060721E+00 Eh
 * total energy  :   -42.0624310 Eh     change       -0.2992166E-01 Eh
 * total energy  :   -42.0629139 Eh     change       -0.4829193E-03 Eh
 * total energy  :   -42.0640261 Eh     change       -0.1112167E-02 Eh
 * total energy  :   -42.0644920 Eh     change       -0.4659066E-03 Eh
 * total energy  :   -42.0648166 Eh     change       -0.3246313E-03 Eh
 * total energy  :   -42.0651597 Eh     change       -0.3430483E-03 Eh
 * total energy  :   -42.0663791 Eh     change       -0.6615224E-04 Eh
 * total energy  :   -42.0664184 Eh     change       -0.3931681E-04 Eh
 * total energy  :   -42.0664617 Eh     change       -0.4333925E-04 Eh
 * total energy  :   -42.0664908 Eh     change       -0.2906650E-04 Eh
 * total energy  :   -42.0665068 Eh     change       -0.1599048E-04 Eh
 * total energy  :   -42.0665187 Eh     change       -0.1194069E-04 Eh
 * total energy  :   -42.0665321 Eh     change       -0.1337200E-04 Eh
 * total energy  :   -42.0665446 Eh     change       -0.1251561E-04 Eh
 * total energy  :   -42.0665936 Eh     change       -0.4896468E-04 Eh
   *** GEOMETRY OPTIMIZATION CONVERGED AFTER 22 ITERATIONS ***

 final structure:
================
25
 xtb: 6.6.1 (8d0f1dd)
C            3.21338015029103        1.14246478311164        0.01876806517332
N            2.25994230214428        0.06463657575545       -0.00055803923075
C            2.53328609798244       -1.23343050682768       -0.00817618077824
N            1.38201469828062       -1.94540785811233       -0.00827649428739
C            0.34288360994116       -1.06276368140567       -0.00000242539693
C            0.89177782049664        0.20962432765317        0.00524863860061
C            0.06146331375315        1.39797489812389       -0.00350855196184
O            0.45838319421228        2.53843523510632       -0.01738064406894
N           -1.30399381190849        1.06862759340621        0.00328134998700
C           -2.25433718685789        2.13318747089777        0.00539343345074
C           -1.86820074695700       -0.20460779509185        0.00557951465894
O           -3.05103853321624       -0.38341258488587        0.01007762199799
N           -0.97771649658846       -1.30054030954318        0.00140030985359
C           -1.52341931329139       -2.64457909220774       -0.00242981698897
H            3.71253139068910        1.18809963074793        0.98786819385005
H            3.96536785486959        0.99547162006637       -0.75550259972620
H            2.68605300548936        2.08057186636990       -0.15016001131184
H            3.51588196032035       -1.66245584282228       -0.01472370342885
H           -1.75836714288153        3.09573631722286        0.00637789977728
H           -2.69725502335301        2.11518200265293       -1.63347899352741
H           -2.71651156979055        2.09838973663209        1.60695740829882
H           -1.20464696119786       -3.18838912481122        0.88687504224001
H           -1.21834366427114       -3.17805183663664       -0.90280285653316
H           -2.60895714945373       -2.55291875648503        0.00625923853153
H            1.32025371539728       -2.95360612731704       -0.01591478127933

          :  Hamiltonian                  GFN2-xTB          :
         :: total energy             -42.066593582563 Eh    ::
         :: gradient norm              0.003025936586 Eh/a0 ::
         :: HOMO-LUMO gap              2.798801384755 eV    ::
         :: SCC energy               -42.565122169839 Eh    ::
         :: -> dispersion             -0.023707144369 Eh    ::
         :: repulsion energy           0.495589375939 Eh    ::

    * Orbital Energies and Occupations

         #    Occupation            Energy/Eh            Energy/eV
      -------------------------------------------------------------
         1        2.0000           -0.9157484             -24.9188
       ...           ...                  ...                  ...
        25        2.0000           -0.6674366             -18.1619
        26        2.0000           -0.6618558             -18.0100
        27        1.9999           -0.6406108             -17.4319
        28        1.9999           -0.6337370             -17.2449
        29        1.9998           -0.6264670             -17.0470
        30        1.9997           -0.6241433             -16.9838
        31        1.9997           -0.6206172             -16.8879
        32        1.9994           -0.6113642             -16.6361
        33        1.9949           -0.5777131             -15.7204
        34        1.9873           -0.5632483             -15.3268
        35        1.9816           -0.5573268             -15.1656
        36        1.9507           -0.5414963             -14.7349
        37        1.9426           -0.5390192             -14.6675 (HOMO)
        38        0.0972           -0.4361651             -11.8687 (LUMO)
        39        0.0291           -0.4165348             -11.3345
        40        0.0166           -0.4075247             -11.0893
        41        0.0019           -0.3730752             -10.1519
        42        0.0000           -0.3148735              -8.5681
        43        0.0000           -0.2697291              -7.3397
        44                         -0.2034970              -5.5374
        45                         -0.1990840              -5.4174
        46                         -0.1460128              -3.9732
        47                         -0.1288983              -3.5075
        48                         -0.0802785              -2.1845
       ...                                ...                  ...
        67                          0.5573800              15.1671
      -------------------------------------------------------------
                  HL-Gap            0.1028541 Eh            2.7988 eV

     #   Z          covCN         q      C6AA      α(0)
     1   6 C        3.691    -0.095    22.506     6.789
     2   7 N        2.833     0.085    19.763     6.603
     3   6 C        3.057     0.050    26.830     8.494
     4   7 N        2.795    -0.059    22.378     7.026
     5   6 C        3.043     0.115    25.424     8.270
     6   6 C        3.119    -0.025    28.438     8.734
     7   6 C        2.764     0.268    22.474     7.764
     8   8 O        0.858    -0.367    21.033     6.149
     9   7 N        2.744    -0.089    22.969     7.118
    10   6 C        1.924    -0.005    31.221     9.024
    11   6 C        2.732     0.319    21.584     7.606
    12   8 O        0.859    -0.344    20.589     6.084
    13   7 N        2.738    -0.059    22.374     7.025
    14   6 C        3.697    -0.073    22.078     6.721
    15   1 H        0.924     0.110     1.697     2.037
    16   1 H        0.925     0.106     1.729     2.056
    17   1 H        0.925     0.137     1.485     1.906
    18   1 H        0.926     0.126     1.564     1.955
    19   1 H        0.925     0.110     1.695     2.036
    20   1 H        0.020     0.080     4.932     4.060
    21   1 H        0.034     0.083     4.858     4.030
    22   1 H        0.925     0.083     1.952     2.185
    23   1 H        0.925     0.083     1.951     2.184
    24   1 H        0.925     0.129     1.544     1.943
    25   1 H        0.860     0.231     0.961     1.535

Wiberg/Mayer (AO) data.
largest (>0.10) Wiberg bond orders for each atom

     #   Z sym  total        # sym  WBO       # sym  WBO       # sym  WBO
 ---------------------------------------------------------------------------
     1   6 C    3.914 --     2 N    0.985    16 H    0.963    17 H    0.961
                            15 H    0.955
     2   7 N    3.680 --     3 C    1.397     6 C    1.160     1 C    0.985
     3   6 C    3.852 --     2 N    1.397     4 N    1.268    18 H    0.952
     4   7 N    3.588 --     3 C    1.268     5 C    1.192    25 H    0.918
     5   6 C    3.947 --     6 C    1.349    13 N    1.217     4 N    1.192
     6   6 C    3.913 --     5 C    1.349     2 N    1.160     7 C    1.070
     7   6 C    3.940 --     8 O    1.693     9 N    1.073     6 C    1.070
     8   8 O    2.035 --     7 C    1.693     9 N    0.143
     9   7 N    3.552 --    11 C    1.096     7 C    1.073    10 C    1.031
                             8 O    0.143    12 O    0.128
    10   6 C    3.745 --     9 N    1.031    19 H    0.960    21 H    0.860
                            20 H    0.849
    11   6 C    3.955 --    12 O    1.726     9 N    1.096    13 N    1.037
    12   8 O    2.076 --    11 C    1.726     9 N    0.128    13 N    0.125
    13   7 N    3.555 --     5 C    1.217    11 C    1.037    14 C    0.973
                            12 O    0.125
    14   6 C    3.923 --    13 N    0.973    22 H    0.971    23 H    0.971
                            24 H    0.963
    15   1 H    0.985 --     1 C    0.955
    16   1 H    0.986 --     1 C    0.963
    17   1 H    0.981 --     1 C    0.961
    18   1 H    0.983 --     3 C    0.952
    19   1 H    0.978 --    10 C    0.960
    20   1 H    0.929 --    10 C    0.849
    21   1 H    0.938 --    10 C    0.860
    22   1 H    0.990 --    14 C    0.971
    23   1 H    0.990 --    14 C    0.971
    24   1 H    0.983 --    14 C    0.963
    25   1 H    0.946 --     4 N    0.918
 ---------------------------------------------------------------------------

molecular dipole:
                 x           y           z       tot (Debye)
 q only:        2.498      -1.976       0.012
   full:        2.891      -2.439       0.016       9.614

           -------------------------------------------------
          | TOTAL ENERGY              -42.066593582563 Eh   |
          | GRADIENT NORM               0.003025936586 Eh/α |
          | HOMO-LUMO GAP               2.798801384755 eV   |
           -------------------------------------------------

 * finished run on 2024/06/05 at 20:00:21.589
