   * xtb version 6.6.1 (8d0f1dd) compiled by 'conda@1efc2f54142f' on 2023-08-01
          program call               : xtb xtbopt.xyz --opt crude --input .xc2 --gfn2

   ID    Z sym.   atoms
    1    6 C      1, 3, 5-7, 10, 11, 14
    2    7 N      2, 4, 9, 13
    3    8 O      8, 12
    4    1 H      15-25

          :  Hamiltonian                  GFN2-xTB          :
 * total energy  :   -42.1703953 Eh     change       -0.3630873E-11 Eh
   *** GEOMETRY OPTIMIZATION CONVERGED AFTER 1 ITERATIONS ***

 final structure:
================
25
 xtb: 6.6.1 (8d0f1dd)
C            3.42984081994932        1.60628492501909        0.02034718303094
N            2.60415948314355        0.42851292303680        0.00561465705779
C            3.01677974501380       -0.83962980318812        0.00237833406205
N            1.95702423835428       -1.67337762346369       -0.00020568470605
C            0.81427019781495       -0.91785239665175        0.00231776201354
C            1.23420562799072        0.42037157153918        0.00602979929584
C            0.26227847030169        1.48417167996848       -0.00317107652339
O            0.51565498267473        2.67615437109836       -0.01365900651887
N           -1.03282285541142        0.98766444789408       -0.00192287457905
C           -2.12394916953821        1.93714769583098       -0.00757833647961
C           -1.40350477542343       -0.38082052852916        0.00182780158396
O           -2.58547594142076       -0.65483615499275        0.00427724026062
N           -0.43265189699277       -1.32379369635124        0.00076245946103
C           -3.22571213345990       -3.59487646565282       -0.00871509132883
H            3.96621880384289        1.68363134898854        0.96773736564085
H            4.15677461818636        1.57195866491447       -0.79145375423989
H            2.79055609427032        2.48168548316557       -0.09684150576674
H            4.04386392068914       -1.14898303520893        0.00072228417699
H           -1.70505533504735        2.94281810934696       -0.00269629866966
H           -2.74253733474099        1.78858339173286       -0.89515725535296
H           -2.75458111296413        1.78396713530583        0.87061330675790
H           -3.01186965456702       -4.10053416686178        0.91198034406232
H           -3.03246363520173       -4.08190950848911       -0.94433537748861
H           -3.56898383021729       -2.57520289375287        0.00560684272227
H            1.98841218685216       -2.68289693309869       -0.00330750057324

          :  Hamiltonian                  GFN2-xTB          :
         :: total energy             -42.170395348265 Eh    ::
         :: gradient norm              0.002519417352 Eh/a0 ::
         :: HOMO-LUMO gap              1.590327599016 eV    ::
         :: SCC energy               -42.694060900106 Eh    ::
         :: -> dispersion             -0.020942037750 Eh    ::
         :: repulsion energy           0.523621731717 Eh    ::

    * Orbital Energies and Occupations

         #    Occupation            Energy/Eh            Energy/eV
      -------------------------------------------------------------
         1        2.0000           -0.9007823             -24.5115
       ...           ...                  ...                  ...
        25        1.9980           -0.6610046             -17.9869
        26        1.9950           -0.6390916             -17.3906
        27        1.9940           -0.6348127             -17.2741
        28        1.9883           -0.6188417             -16.8395
        29        1.9850           -0.6128516             -16.6765
        30        1.9830           -0.6098850             -16.5958
        31        1.9809           -0.6071060             -16.5202
        32        1.9796           -0.6055079             -16.4767
        33        1.9329           -0.5767230             -15.6934
        34        1.8747           -0.5611482             -15.2696
        35        1.8705           -0.5603251             -15.2472
        36        1.8220           -0.5521446             -15.0246
        37        1.7400           -0.5420425             -14.7497 (HOMO)
        38        0.7271           -0.4835990             -13.1594 (LUMO)
        39        0.1063           -0.4285008             -11.6601
        40        0.0229           -0.3910233             -10.6403
        41        0.0060           -0.3590297              -9.7697
        42        0.0002           -0.2717611              -7.3950
        43        0.0000           -0.1860878              -5.0637
        44        0.0000           -0.1678945              -4.5686
        45        0.0000           -0.1258198              -3.4237
        46                         -0.0723091              -1.9676
        47                         -0.0295844              -0.8050
        48                         -0.0249285              -0.6783
       ...                                ...                  ...
        67                          0.5303718              14.4322
      -------------------------------------------------------------
                  HL-Gap            0.0584435 Eh            1.5903 eV

     #   Z          covCN         q      C6AA      α(0)
     1   6 C        3.691    -0.090    22.420     6.776
     2   7 N        2.821     0.079    19.866     6.620
     3   6 C        3.052     0.058    26.659     8.468
     4   7 N        2.790    -0.055    22.308     7.015
     5   6 C        3.060     0.148    24.731     8.155
     6   6 C        3.123    -0.019    28.287     8.710
     7   6 C        2.767     0.272    22.398     7.751
     8   8 O        0.858    -0.358    20.868     6.125
     9   7 N        2.747    -0.079    22.772     7.087
    10   6 C        3.703    -0.055    21.716     6.663
    11   6 C        2.756     0.336    21.294     7.556
    12   8 O        0.860    -0.347    20.656     6.094
    13   7 N        1.832    -0.253    27.446     7.763
    14   6 C        2.779    -0.088    30.177     8.998
    15   1 H        0.924     0.110     1.693     2.035
    16   1 H        0.924     0.108     1.714     2.047
    17   1 H        0.924     0.136     1.489     1.908
    18   1 H        0.926     0.124     1.580     1.966
    19   1 H        0.925     0.120     1.615     1.987
    20   1 H        0.924     0.111     1.687     2.031
    21   1 H        0.924     0.111     1.684     2.029
    22   1 H        0.926     0.121     1.601     1.979
    23   1 H        0.926     0.122     1.601     1.979
    24   1 H        0.926     0.152     1.378     1.836
    25   1 H        0.860     0.236     0.942     1.520

Wiberg/Mayer (AO) data.
largest (>0.10) Wiberg bond orders for each atom

     #   Z sym  total        # sym  WBO       # sym  WBO       # sym  WBO
 ---------------------------------------------------------------------------
     1   6 C    3.900 --     2 N    0.987    16 H    0.958    17 H    0.956
                            15 H    0.952
     2   7 N    3.655 --     3 C    1.360     6 C    1.169     1 C    0.987
     3   6 C    3.797 --     2 N    1.360     4 N    1.294    18 H    0.952
     4   7 N    3.566 --     3 C    1.294     5 C    1.159    25 H    0.917
     5   6 C    3.924 --    13 N    1.360     6 C    1.253     4 N    1.159
     6   6 C    3.785 --     5 C    1.253     2 N    1.169     7 C    1.090
     7   6 C    3.926 --     8 O    1.617     9 N    1.126     6 C    1.090
     8   8 O    1.895 --     7 C    1.617     9 N    0.126
     9   7 N    3.441 --     7 C    1.126    11 C    1.037    10 C    0.990
                             8 O    0.126
    10   6 C    3.863 --     9 N    0.990    19 H    0.952    21 H    0.941
                            20 H    0.941
    11   6 C    3.931 --    12 O    1.620    13 N    1.190     9 N    1.037
    12   8 O    1.886 --    11 C    1.620
    13   7 N    2.817 --     5 C    1.360    11 C    1.190
    14   6 C    2.904 --    22 H    0.973    23 H    0.973    24 H    0.950
    15   1 H    0.978 --     1 C    0.952
    16   1 H    0.980 --     1 C    0.958
    17   1 H    0.977 --     1 C    0.956
    18   1 H    0.983 --     3 C    0.952
    19   1 H    0.970 --    10 C    0.952
    20   1 H    0.958 --    10 C    0.941
    21   1 H    0.958 --    10 C    0.941
    22   1 H    0.974 --    14 C    0.973
    23   1 H    0.974 --    14 C    0.973
    24   1 H    0.962 --    14 C    0.950
    25   1 H    0.943 --     4 N    0.917
 ---------------------------------------------------------------------------

molecular dipole:
                 x           y           z       tot (Debye)
 q only:        2.091      -1.731       0.009
   full:        2.501      -1.882       0.013       7.956

           -------------------------------------------------
          | TOTAL ENERGY              -42.170395348265 Eh   |
          | GRADIENT NORM               0.002519417352 Eh/α |
          | HOMO-LUMO GAP               1.590327599016 eV   |
           -------------------------------------------------

 * finished run on 2024/06/05 at 19:58:48.891
