   * xtb version 6.6.1 (8d0f1dd) compiled by 'conda@1efc2f54142f' on 2023-08-01
          program call               : xtb struc.xyz --opt loose --input .xc1 --gfn2

   ID    Z sym.   atoms
    1    7 N      1, 17
    2    6 C      2-6, 8, 9, 11-16, 18-23, 25, 26, 28-33
    3    8 O      7, 10, 24, 27
    4    1 H      34-72
constraining bond 49 52 to    4.2800000 Å, actual value:    2.4828202 Å

          :  Hamiltonian                  GFN2-xTB          :
 * total energy  :   -98.8274299 Eh     change       -0.4035485E-08 Eh
 * total energy  :   -99.0916902 Eh     change       -0.2642603E+00 Eh
 * total energy  :   -99.2338292 Eh     change       -0.1421390E+00 Eh
 * total energy  :   -99.2744765 Eh     change       -0.4064737E-01 Eh
 * total energy  :   -99.2805751 Eh     change       -0.6098537E-02 Eh
 * total energy  :   -99.2825946 Eh     change       -0.2019573E-02 Eh
 * total energy  :   -99.2851015 Eh     change       -0.2506892E-02 Eh
 * total energy  :   -99.2866325 Eh     change       -0.1531006E-02 Eh
 * total energy  :   -99.2872556 Eh     change       -0.6230712E-03 Eh
 * total energy  :   -99.2877399 Eh     change       -0.4842904E-03 Eh
 * total energy  :   -99.3250643 Eh     change       -0.6784285E-03 Eh
 * total energy  :   -99.3256628 Eh     change       -0.5985278E-03 Eh
 * total energy  :   -99.3261526 Eh     change       -0.4898031E-03 Eh
 * total energy  :   -99.3264949 Eh     change       -0.3422763E-03 Eh
 * total energy  :   -99.3267336 Eh     change       -0.2387420E-03 Eh
 * total energy  :   -99.3268669 Eh     change       -0.1332439E-03 Eh
 * total energy  :   -99.3269474 Eh     change       -0.8057180E-04 Eh
 * total energy  :   -99.3270082 Eh     change       -0.6074636E-04 Eh
 * total energy  :   -99.3270413 Eh     change       -0.3310603E-04 Eh
   *** GEOMETRY OPTIMIZATION CONVERGED AFTER 44 ITERATIONS ***

 final structure:
================
72
 xtb: 6.6.1 (8d0f1dd)
N           -2.32966920880494        3.05796641599744        2.39170017787921
C           -2.10222566438133        2.27018983220477        1.44955963404352
C           -3.07160509503524        1.97209218927306        0.33783425509429
C           -3.53010578441909        0.52477365803592        0.43139640635691
C           -4.34872415063155       -0.00583270980983       -0.56741831410933
C           -4.81196309000693       -1.30988695684720       -0.51043097776226
O           -5.63010974270536       -1.88472730748597       -1.41493073060015
C           -6.19950855185778       -1.09200029232375       -2.43097136405678
C           -4.41957966461912       -2.14518603463230        0.57113985991031
O           -4.89586827358434       -3.40490208900819        0.53424691288686
C           -4.59829967322762       -4.28277389309800        1.59495021582401
C           -3.60592244175717       -1.61314525547066        1.55916379144958
C           -3.17620311826838       -0.29360996038650        1.49400798924577
C           -2.29276716984062        2.18953111918996       -0.98795098757579
C           -1.27039704853020        1.09054575743852       -1.33119654179460
C           -0.04278818999237        1.14579170586454       -0.49548580568380
N            0.58146277490296        0.10532265185170        0.04679952357880
C            1.72124449535606        0.21123285471243        0.71780887486302
C            3.57507381197660       -0.63015620278800       -2.71263608673195
C            4.61766655391383       -0.35438341332384       -1.86086202207921
C            5.15215389058104        0.96008955542223       -1.75055411692618
C            6.22283580194272        1.22938492304321       -0.93734442693448
C            6.81366265424549        0.21983724227265       -0.17110886115310
O            7.86773529594806        0.36840795036830        0.63843871025950
C            8.52096346522797        1.61507371006570        0.71988575301126
C            6.27555831110914       -1.10728081954248       -0.23380836312715
O            6.90105364884068       -1.99877466505675        0.56297267458685
C            6.49483939667782       -3.34642897651105        0.52914962076019
C            5.21505425139639       -1.37391539726670       -1.06107889145738
C           -0.01154303073560       -1.21607061799724       -0.07142854627204
C           -4.33124009765763        2.88834387440000        0.36970880261328
C           -5.17218425257116        2.63683923828946        1.61925546442788
C           -4.00022536140633        4.37388483196473        0.25942423213904
H           -4.63969565084710        0.61615129006650       -1.39740603887690
H           -6.74444585687174       -0.23954899054172       -2.01437900010814
H           -6.89633954459715       -1.74404497181666       -2.95407696939474
H           -5.44226161315376       -0.73504891945213       -3.13636545634863
H           -4.97277932641600       -3.90055009084104        2.54910068729398
H           -5.10733067680559       -5.21405058958024        1.35466030466370
H           -3.52208468711103       -4.46788088564882        1.67209270419488
H           -3.31068971756744       -2.21552512233889        2.40306229937640
H           -2.57672616378424        0.09255152584228        2.30384943636608
H           -3.01290082272539        2.24261622056945       -1.80404615918407
H           -1.77842229177903        3.14972833580031       -0.93882966040730
H           -1.75851657566394        0.11917403300739       -1.27448102619088
H           -0.97850332493765        1.25218512769772       -2.37723039745475
H           -1.14177252024842        1.74379350301892        1.31208144977833
H            0.46349612654974        2.09636184531142       -0.42122744052356
H            2.15592795976844       -0.64617949655896        1.18620763435589
H            2.19768592095357        1.16720267223931        0.80843190147034
H            3.13154140324684        0.14236951514701       -3.31374473576725
H            3.20293691330162       -1.63104738030775       -2.84029735531598
H            4.71293948070388        1.74870426129647       -2.34117211725942
H            6.61586427974676        2.23272177126502       -0.89403880124075
H            7.87153499659462        2.37910454465488        1.15823989137237
H            8.86926751279543        1.94986006917486       -0.26121626857721
H            9.37793895746312        1.45401922518201        1.37163448540450
H            7.15244832375020       -3.86802755223680        1.22169999873352
H            5.45724194882039       -3.46044958420003        0.85911338201719
H            6.60866868082477       -3.77309412839450       -0.47171801657991
H            4.81201998525056       -2.37075407653312       -1.13901412991794
H           -0.06625510564525       -1.50817914625099       -1.11966108959474
H           -1.01697979151357       -1.22099437440733        0.35363771502128
H            0.59965127520234       -1.93988008881776        0.46101404475148
H           -4.93705898550413        2.61682508762396       -0.50218309914897
H           -4.61662517046686        2.92716940901417        2.50535574281373
H           -5.44812142870445        1.58836055452227        1.70363640623312
H           -6.08281625740930        3.22841762305079        1.57222229766913
H           -3.36847725157106        4.68327662139533        1.08631819032661
H           -3.50553669066859        4.61017655844728       -0.67891743619940
H           -4.92207797814193        4.94819437031677        0.30374548415131
H           -1.59460547793545        3.21019783694300        3.07492912203097

          :  Hamiltonian                  GFN2-xTB          :
         :: total energy             -99.327041289699 Eh    ::
         :: gradient norm              0.001461926541 Eh/a0 ::
         :: HOMO-LUMO gap              0.719735726118 eV    ::
         :: SCC energy              -100.729862457842 Eh    ::
         :: -> dispersion             -0.072508949300 Eh    ::
         :: repulsion energy           1.400955762594 Eh    ::

    * Orbital Energies and Occupations

         #    Occupation            Energy/Eh            Energy/eV
      -------------------------------------------------------------
         1        2.0000           -0.8162636             -22.2117
       ...           ...                  ...                  ...
        78        1.9977           -0.5275706             -14.3559
        79        1.9976           -0.5270397             -14.3415
        80        1.9968           -0.5223159             -14.2129
        81        1.9964           -0.5202522             -14.1568
        82        1.9945           -0.5137699             -13.9804
        83        1.9937           -0.5115175             -13.9191
        84        1.9922           -0.5080973             -13.8260
        85        1.9887           -0.5021146             -13.6632
        86        1.9765           -0.4904883             -13.3469
        87        1.9293           -0.4726774             -12.8622
        88        1.9216           -0.4709712             -12.8158
        89        1.8480           -0.4598618             -12.5135
        90        1.5542           -0.4400887             -11.9754 (HOMO)
        91        0.7923           -0.4136389             -11.2557 (LUMO)
        92        0.0141           -0.3420244              -9.3070
        93        0.0093           -0.3353320              -9.1248
        94        0.0029           -0.3168298              -8.6214
        95        0.0024           -0.3139034              -8.5417
        96        0.0020           -0.3110998              -8.4655
        97        0.0004           -0.2870433              -7.8108
        98        0.0000           -0.1914160              -5.2087
        99        0.0000           -0.1800660              -4.8998
       100                         -0.1030533              -2.8042
       101                         -0.0663487              -1.8054
       ...                                ...                  ...
       171                          0.5892797              16.0351
      -------------------------------------------------------------
                  HL-Gap            0.0264498 Eh            0.7197 eV

     #   Z          covCN         q      C6AA      α(0)
     1   7 N        1.774    -0.264    27.676     7.790
     2   6 C        2.826     0.101    25.754     8.316
     3   6 C        3.907     0.007    20.404     6.420
     4   6 C        2.973     0.006    27.889     8.662
     5   6 C        2.921    -0.078    29.943     8.973
     6   6 C        2.862     0.131    25.138     8.218
     7   8 O        1.706    -0.228    17.779     5.693
     8   6 C        3.644     0.027    20.461     6.502
     9   6 C        2.864     0.129    25.165     8.223
    10   8 O        1.706    -0.226    17.751     5.688
    11   6 C        3.645     0.026    20.467     6.502
    12   6 C        2.913    -0.074    29.853     8.960
    13   6 C        2.921    -0.053    29.307     8.878
    14   6 C        3.811    -0.065    21.735     6.636
    15   6 C        3.801    -0.066    21.768     6.643
    16   6 C        2.869    -0.041    29.008     8.829
    17   7 N        2.729     0.100    19.516     6.561
    18   6 C        2.821    -0.107    30.679     9.076
    19   6 C        2.852    -0.095    30.376     9.033
    20   6 C        2.959     0.022    27.505     8.602
    21   6 C        2.921    -0.039    28.960     8.825
    22   6 C        2.906    -0.063    29.572     8.917
    23   6 C        2.864     0.140    24.944     8.187
    24   8 O        1.706    -0.204    17.400     5.632
    25   6 C        3.645     0.022    20.541     6.514
    26   6 C        2.857     0.135    25.053     8.204
    27   8 O        1.706    -0.231    17.830     5.701
    28   6 C        3.646     0.027    20.453     6.499
    29   6 C        2.917    -0.079    29.977     8.978
    30   6 C        3.719    -0.077    22.101     6.715
    31   6 C        3.853    -0.008    20.680     6.468
    32   6 C        3.755    -0.118    22.821     6.811
    33   6 C        3.755    -0.118    22.824     6.812
    34   1 H        0.926     0.054     2.267     2.355
    35   1 H        0.924     0.055     2.263     2.352
    36   1 H        0.925     0.082     1.960     2.189
    37   1 H        0.924     0.050     2.322     2.383
    38   1 H        0.924     0.056     2.245     2.343
    39   1 H        0.925     0.082     1.959     2.189
    40   1 H        0.924     0.049     2.332     2.388
    41   1 H        0.926     0.053     2.285     2.364
    42   1 H        0.926     0.040     2.446     2.446
    43   1 H        0.925     0.056     2.244     2.343
    44   1 H        0.924     0.053     2.284     2.363
    45   1 H        0.925     0.056     2.242     2.342
    46   1 H        0.923     0.066     2.133     2.284
    47   1 H        0.923     0.016     2.788     2.611
    48   1 H        0.926     0.057     2.232     2.336
    49   1 H        0.927     0.061     2.191     2.314
    50   1 H        0.926     0.059     2.214     2.327
    51   1 H        0.926     0.051     2.312     2.378
    52   1 H        0.926     0.050     2.325     2.384
    53   1 H        0.926     0.056     2.244     2.342
    54   1 H        0.926     0.059     2.211     2.325
    55   1 H        0.924     0.059     2.210     2.325
    56   1 H        0.924     0.061     2.183     2.310
    57   1 H        0.925     0.086     1.918     2.166
    58   1 H        0.925     0.081     1.965     2.192
    59   1 H        0.924     0.047     2.354     2.399
    60   1 H        0.924     0.055     2.260     2.351
    61   1 H        0.926     0.055     2.261     2.351
    62   1 H        0.925     0.082     1.958     2.188
    63   1 H        0.924     0.084     1.942     2.179
    64   1 H        0.925     0.084     1.937     2.176
    65   1 H        0.924     0.038     2.476     2.461
    66   1 H        0.925     0.070     2.085     2.258
    67   1 H        0.925     0.035     2.518     2.482
    68   1 H        0.925     0.051     2.306     2.375
    69   1 H        0.925     0.062     2.178     2.308
    70   1 H        0.925     0.036     2.499     2.472
    71   1 H        0.925     0.054     2.266     2.354
    72   1 H        0.860     0.159     1.340     1.813

Wiberg/Mayer (AO) data.
largest (>0.10) Wiberg bond orders for each atom

     #   Z sym  total        # sym  WBO       # sym  WBO       # sym  WBO
 ---------------------------------------------------------------------------
     1   7 N    3.022 --     2 C    1.957    72 H    0.940
     2   6 C    3.930 --     1 N    1.957     3 C    0.993    47 H    0.906
     3   6 C    3.970 --     2 C    0.993     4 C    0.971    14 C    0.954
                            31 C    0.943
     4   6 C    3.944 --    13 C    1.409     5 C    1.370     3 C    0.971
     5   6 C    3.959 --     6 C    1.399     4 C    1.370    34 H    0.957
     6   6 C    3.900 --     5 C    1.399     9 C    1.219     7 O    1.102
     7   8 O    2.252 --     6 C    1.102     8 C    0.977
     8   6 C    3.930 --     7 O    0.977    36 H    0.976    35 H    0.974
                            37 H    0.973
     9   6 C    3.895 --    12 C    1.389     6 C    1.219    10 O    1.104
    10   8 O    2.251 --     9 C    1.104    11 C    0.977
    11   6 C    3.930 --    10 O    0.977    39 H    0.977    40 H    0.973
                            38 H    0.973
    12   6 C    3.959 --    13 C    1.405     9 C    1.389    41 H    0.963
    13   6 C    3.948 --     4 C    1.409    12 C    1.405    42 H    0.962
    14   6 C    3.975 --    15 C    0.986    44 H    0.972    43 H    0.969
                             3 C    0.954
    15   6 C    3.986 --    16 C    1.050    14 C    0.986    45 H    0.963
                            46 H    0.938
    16   6 C    3.672 --    17 N    1.346    15 C    1.050    48 H    0.960
                            18 C    0.214
    17   7 N    3.744 --    18 C    1.366    16 C    1.346    30 C    0.984
    18   6 C    3.595 --    17 N    1.366    49 H    0.975    50 H    0.974
                            16 C    0.214
    19   6 C    3.538 --    20 C    1.498    52 H    0.979    51 H    0.979
    20   6 C    3.979 --    19 C    1.498    21 C    1.208    29 C    1.200
    21   6 C    3.807 --    22 C    1.520    20 C    1.208    53 H    0.967
    22   6 C    3.969 --    21 C    1.520    23 C    1.318    54 H    0.962
    23   6 C    3.768 --    22 C    1.318    26 C    1.172    24 O    1.141
    24   8 O    2.257 --    23 C    1.141    25 C    0.972
    25   6 C    3.924 --    57 H    0.976    24 O    0.972    56 H    0.972
                            55 H    0.971
    26   6 C    3.915 --    29 C    1.483    23 C    1.172    27 O    1.097
    27   8 O    2.254 --    26 C    1.097    28 C    0.978
    28   6 C    3.931 --    27 O    0.978    58 H    0.977    59 H    0.974
                            60 H    0.973
    29   6 C    3.854 --    26 C    1.483    20 C    1.200    61 H    0.962
    30   6 C    3.955 --    17 N    0.984    64 H    0.977    62 H    0.970
                            63 H    0.963
    31   6 C    3.969 --    33 C    1.009    32 C    1.008    65 H    0.957
                             3 C    0.943
    32   6 C    3.975 --    31 C    1.008    67 H    0.981    68 H    0.981
                            66 H    0.972
    33   6 C    3.979 --    31 C    1.009    70 H    0.982    71 H    0.979
                            69 H    0.975
    34   1 H    0.996 --     5 C    0.957
    35   1 H    0.993 --     8 C    0.974
    36   1 H    0.992 --     8 C    0.976
    37   1 H    0.993 --     8 C    0.973
    38   1 H    0.992 --    11 C    0.973
    39   1 H    0.993 --    11 C    0.977
    40   1 H    0.993 --    11 C    0.973
    41   1 H    0.995 --    12 C    0.963
    42   1 H    0.998 --    13 C    0.962
    43   1 H    0.995 --    14 C    0.969
    44   1 H    0.996 --    14 C    0.972
    45   1 H    0.996 --    15 C    0.963
    46   1 H    0.975 --    15 C    0.938
    47   1 H    0.978 --     2 C    0.906
    48   1 H    0.996 --    16 C    0.960
    49   1 H    0.996 --    18 C    0.975
    50   1 H    0.997 --    18 C    0.974
    51   1 H    0.996 --    19 C    0.979
    52   1 H    0.997 --    19 C    0.979
    53   1 H    0.996 --    21 C    0.967
    54   1 H    0.995 --    22 C    0.962
    55   1 H    0.989 --    25 C    0.971
    56   1 H    0.990 --    25 C    0.972
    57   1 H    0.992 --    25 C    0.976
    58   1 H    0.993 --    28 C    0.977
    59   1 H    0.994 --    28 C    0.974
    60   1 H    0.993 --    28 C    0.973
    61   1 H    0.996 --    29 C    0.962
    62   1 H    0.993 --    30 C    0.970
    63   1 H    0.993 --    30 C    0.963
    64   1 H    0.993 --    30 C    0.977
    65   1 H    0.990 --    31 C    0.957
    66   1 H    0.989 --    32 C    0.972
    67   1 H    0.996 --    32 C    0.981
    68   1 H    0.993 --    32 C    0.981
    69   1 H    0.992 --    33 C    0.975
    70   1 H    0.996 --    33 C    0.982
    71   1 H    0.993 --    33 C    0.979
    72   1 H    0.967 --     1 N    0.940
 ---------------------------------------------------------------------------

molecular dipole:
                 x           y           z       tot (Debye)
 q only:        1.079      -0.127      -0.308
   full:        1.488      -0.202      -0.419       3.963

           -------------------------------------------------
          | TOTAL ENERGY              -99.327041289699 Eh   |
          | GRADIENT NORM               0.001461926541 Eh/α |
          | HOMO-LUMO GAP               0.719735726118 eV   |
           -------------------------------------------------

 * finished run on 2024/04/06 at 11:15:12.539
