   * xtb version 6.6.1 (8d0f1dd) compiled by 'conda@1efc2f54142f' on 2023-08-01
          program call               : xtb struc.xyz --opt loose --input .xc1 --gfn2

   ID    Z sym.   atoms
    1    6 C      1, 3, 5-7, 10, 11, 14
    2    7 N      2, 4, 9, 13
    3    8 O      8, 12
    4    1 H      15-25
constraining bond 5 17 to    4.7133300 Å, actual value:    3.9116783 Å

          :  Hamiltonian                  GFN2-xTB          :
 * total energy  :   -43.4075143 Eh     change       -0.2401990E-09 Eh
 * total energy  :   -46.2664803 Eh     change       -0.2858966E+01 Eh
 * total energy  :   -50.5099623 Eh     change       -0.4243482E+01 Eh
 * total energy  :   -56.2282781 Eh     change       -0.5718316E+01 Eh
 * total energy  :   -63.3316647 Eh     change       -0.7103387E+01 Eh
 * total energy  :   -71.1230792 Eh     change       -0.7791414E+01 Eh
 * total energy  :   -65.5154055 Eh     change        0.5607674E+01 Eh
 * total energy  :   -71.6623809 Eh     change       -0.6146975E+01 Eh
 * total energy  :   -72.4858871 Eh     change       -0.8235062E+00 Eh
 * total energy  :   -72.6751382 Eh     change       -0.1892511E+00 Eh
 * total energy  :   -73.3895003 Eh     change       -0.7755116E-04 Eh
 * total energy  :   -73.3895477 Eh     change       -0.4742353E-04 Eh
 * total energy  :   -73.3889672 Eh     change        0.5804397E-03 Eh
 * total energy  :   -73.3895768 Eh     change       -0.6095768E-03 Eh
 * total energy  :   -73.3892794 Eh     change        0.2974110E-03 Eh
 * total energy  :   -73.3896058 Eh     change       -0.3264166E-03 Eh
 * total energy  :   -73.3896161 Eh     change       -0.1022931E-04 Eh
 * total energy  :   -73.3896508 Eh     change       -0.3477279E-04 Eh
 * total energy  :   -73.3896585 Eh     change       -0.7642649E-05 Eh
   *** GEOMETRY OPTIMIZATION CONVERGED AFTER 74 ITERATIONS ***

 final structure:
================
25
 xtb: 6.6.1 (8d0f1dd)
C            4.53083745326384        0.42928143603837        0.00941204627457
N            4.05664893423259       -0.71144411186751       -0.26385639351060
C            3.15556627901948       -1.60454857762343       -0.05255099705177
N            1.82714957362042       -1.37292612377840       -0.01213422014413
C            1.29702070285165       -0.05202921859307       -0.05267347005852
C           -0.10072785046552        0.06715327180843       -0.02675268741956
C           -0.66651031567735        1.43634167274548       -0.04246397553219
O           -0.07635331703530        2.49037214359657       -0.07554469441756
N           -2.03639607698950        1.26170772996672        0.00088412234634
C           -3.00626061543293        2.32375911933798       -0.00254551943711
C           -2.36620340361596       -0.07684686555178        0.04373898585853
O           -3.46247672058058       -0.56184570927170        0.09541901593644
N           -1.16244375094648       -0.79480268695486        0.02474905542910
C           -1.18852463139937       -2.23378894355282        0.05512648970872
H            4.37243656150343        0.92180801046902        0.96395643875495
H            5.19745139356368        0.89347797518883       -0.70342109851418
H            1.53011405750406        0.25176304672014       -0.07397724307691
H            3.47470500734685       -2.63949525833256       -0.03641906549504
H           -2.50891258348959        3.24516227636250        0.29916705926633
H           -3.42878005011073        2.45280688027539       -1.00227725334446
H           -3.81425788955871        2.07718641811742        0.68713179268295
H           -0.69676546662466       -2.62048108211506        0.95066140103063
H           -0.74616065328189       -2.65680341921504       -0.84966434764935
H           -2.24027641775697       -2.52674379632571        0.09002505556976
H            1.21955129415753       -2.18082564583981        0.00518112069134

          :  Hamiltonian                  GFN2-xTB          :
         :: total energy             -73.389658475813 Eh    ::
         :: gradient norm              0.003021746977 Eh/a0 ::
         :: HOMO-LUMO gap              2.022916185643 eV    ::
         :: SCC energy               -42.746689602524 Eh    ::
         :: -> dispersion             -0.020638927822 Eh    ::
         :: repulsion energy           2.831104027850 Eh    ::

    * Orbital Energies and Occupations

         #    Occupation            Energy/Eh            Energy/eV
      -------------------------------------------------------------
         1        2.0000           -0.8788165             -23.9138
       ...           ...                  ...                  ...
        25        1.9987           -0.6688796             -18.2011
        26        1.9985           -0.6650388             -18.0966
        27        1.9979           -0.6571898             -17.8830
        28        1.9957           -0.6405385             -17.4299
        29        1.9949           -0.6366174             -17.3232
        30        1.9922           -0.6262241             -17.0404
        31        1.9897           -0.6195880             -16.8598
        32        1.9857           -0.6117914             -16.6477
        33        1.9649           -0.5902678             -16.0620
        34        1.9551           -0.5842823             -15.8991
        35        1.8933           -0.5629679             -15.3191
        36        1.8873           -0.5616070             -15.2821
        37        1.7282           -0.5386052             -14.6562 (HOMO)
        38        0.4351           -0.4642644             -12.6333 (LUMO)
        39        0.1608           -0.4367958             -11.8858
        40        0.0229           -0.3888033             -10.5799
        41        0.0027           -0.3374026              -9.1812
        42        0.0011           -0.3157357              -8.5916
        43        0.0000           -0.1961280              -5.3369
        44        0.0000           -0.1624187              -4.4196
        45        0.0000           -0.1305926              -3.5536
        46                         -0.0746632              -2.0317
        47                         -0.0730341              -1.9874
        48                         -0.0392561              -1.0682
       ...                                ...                  ...
        67                         14.0064714             381.1355
      -------------------------------------------------------------
                  HL-Gap            0.0743408 Eh            2.0229 eV

     #   Z          covCN         q      C6AA      α(0)
     1   6 C        2.769     0.013    27.704     8.620
     2   7 N        1.827    -0.029    22.508     7.030
     3   6 C        2.766     0.095    25.865     8.329
     4   7 N        2.704    -0.087    22.937     7.113
     5   6 C        2.838    -0.066    29.633     8.921
     6   6 C        3.034     0.011    27.746     8.640
     7   6 C        2.852     0.258    22.663     7.802
     8   8 O        0.857    -0.327    20.268     6.036
     9   7 N        2.790    -0.068    22.551     7.053
    10   6 C        3.690    -0.056    21.781     6.679
    11   6 C        2.830     0.316    21.635     7.622
    12   8 O        0.857    -0.336    20.450     6.063
    13   7 N        2.784    -0.053    22.261     7.007
    14   6 C        3.690    -0.068    21.992     6.711
    15   1 H        0.925     0.119     1.625     1.993
    16   1 H        0.926     0.134     1.503     1.917
    17   1 H        0.995     0.188     1.156     1.680
    18   1 H        0.925     0.115     1.652     2.010
    19   1 H        0.925     0.115     1.656     2.012
    20   1 H        0.924     0.108     1.718     2.050
    21   1 H        0.924     0.112     1.684     2.029
    22   1 H        0.924     0.084     1.938     2.177
    23   1 H        0.924     0.084     1.938     2.177
    24   1 H        0.924     0.125     1.576     1.963
    25   1 H        0.860     0.213     1.044     1.601

Wiberg/Mayer (AO) data.
largest (>0.10) Wiberg bond orders for each atom

     #   Z sym  total        # sym  WBO       # sym  WBO       # sym  WBO
 ---------------------------------------------------------------------------
     1   6 C    3.664 --     2 N    1.717    16 H    0.936    15 H    0.922
     2   7 N    3.329 --     1 C    1.717     3 C    1.488
     3   6 C    3.803 --     2 N    1.488     4 N    1.258    18 H    0.929
     4   7 N    3.488 --     3 C    1.258     5 C    1.119    25 H    0.914
     5   6 C    3.690 --     6 C    1.442     4 N    1.119    17 H    0.939
     6   6 C    3.802 --     5 C    1.442    13 N    1.171     7 C    1.006
     7   6 C    3.885 --     8 O    1.680     9 N    1.111     6 C    1.006
     8   8 O    1.926 --     7 C    1.680     9 N    0.119
     9   7 N    3.484 --     7 C    1.111    11 C    1.100    10 C    0.988
                             8 O    0.119    12 O    0.106
    10   6 C    3.879 --     9 N    0.988    19 H    0.959    21 H    0.953
                            20 H    0.942
    11   6 C    3.919 --    12 O    1.683     9 N    1.100    13 N    1.054
    12   8 O    1.968 --    11 C    1.683     9 N    0.106    13 N    0.104
    13   7 N    3.453 --     6 C    1.171    11 C    1.054    14 C    0.993
                            12 O    0.104
    14   6 C    3.919 --    13 N    0.993    23 H    0.958    22 H    0.958
                            24 H    0.957
    15   1 H    0.959 --     1 C    0.922
    16   1 H    0.966 --     1 C    0.936
    17   1 H    0.964 --     5 C    0.939
    18   1 H    0.977 --     3 C    0.929
    19   1 H    0.973 --    10 C    0.959
    20   1 H    0.960 --    10 C    0.942
    21   1 H    0.968 --    10 C    0.953
    22   1 H    0.979 --    14 C    0.958
    23   1 H    0.978 --    14 C    0.958
    24   1 H    0.979 --    14 C    0.957
    25   1 H    0.953 --     4 N    0.914
 ---------------------------------------------------------------------------

molecular dipole:
                 x           y           z       tot (Debye)
 q only:        2.641      -1.297       0.044
   full:        2.591      -1.538       0.106       7.664

           -------------------------------------------------
          | TOTAL ENERGY              -73.389658475813 Eh   |
          | GRADIENT NORM               0.003021746977 Eh/α |
          | HOMO-LUMO GAP               2.022916185643 eV   |
           -------------------------------------------------

 * finished run on 2024/06/05 at 19:58:58.864
