   * xtb version 6.6.1 (8d0f1dd) compiled by 'conda@1efc2f54142f' on 2023-08-01
          program call               : xtb xtbopt.xyz --opt crude --input .xc2 --gfn2

   ID    Z sym.   atoms
    1    6 C      1, 3, 5-7, 10, 11, 14
    2    7 N      2, 4, 9, 13
    3    8 O      8, 12
    4    1 H      15-25
########################################################################
[WARNING] Please study the warnings concerning your input carefully
-1- readin_getIntValue: could not parse ''
########################################################################

          :  Hamiltonian                  GFN2-xTB          :
 * total energy  :   -39.9156029 Eh     change        0.4973799E-13 Eh
 * total energy  :   -42.1671076 Eh     change       -0.2251505E+01 Eh
 * total energy  :   -42.1891279 Eh     change       -0.2202031E-01 Eh
 * total energy  :   -42.1932692 Eh     change       -0.4141334E-02 Eh
 * total energy  :   -42.1912620 Eh     change        0.2007220E-02 Eh
 * total energy  :   -42.1950588 Eh     change       -0.3796801E-02 Eh
 * total energy  :   -42.1954877 Eh     change       -0.4288877E-03 Eh
 * total energy  :   -42.1960750 Eh     change       -0.5872911E-03 Eh
 * total energy  :   -42.1966262 Eh     change       -0.5512409E-03 Eh
 * total energy  :   -42.1969708 Eh     change       -0.3445286E-03 Eh
 * total energy  :   -42.1971319 Eh     change       -0.1611735E-03 Eh
   *** GEOMETRY OPTIMIZATION CONVERGED AFTER 11 ITERATIONS ***

 final structure:
================
25
 xtb: 6.6.1 (8d0f1dd)
C            4.48453222449117        0.47078419361710        0.00812048562020
N            4.06705499070290       -0.69425816216734       -0.26812240319308
C            3.18703245590102       -1.61123304650550       -0.06799551192152
N            1.84685242439221       -1.42218960529346       -0.01024559315741
C            1.21543154096927       -0.21432614737354       -0.03882071594579
C           -0.13073519519188        0.00883918192778       -0.01512732572135
C           -0.66107479266109        1.39048837648076       -0.03487438827742
O           -0.03786924417678        2.42550645713176       -0.06505355457379
N           -2.03199275260873        1.24791831445171        0.00096399204642
C           -2.97346080516444        2.33538980707263       -0.00854245109987
C           -2.39586634438776       -0.08472455170892        0.04518326704663
O           -3.50519856913753       -0.54064006101592        0.09080572396860
N           -1.21266579963873       -0.83020634146655        0.03479717640403
C           -1.25891821879842       -2.26769350089545        0.06635464548391
H            4.28854565294966        0.96075664892682        0.95725809525356
H            5.15499062362598        0.95384455810223       -0.68812827905904
H            1.85485956686189        0.65471823632090       -0.09362283045753
H            3.53164879956590       -2.63689803117353       -0.07342055425111
H           -2.45183295956400        3.24255156006646        0.29485457648793
H           -3.38671550221515        2.47505185862054       -1.01058370521635
H           -3.79122118807121        2.11238224540619        0.67727201660712
H           -0.77163880793763       -2.65935483400203        0.96212302948272
H           -0.81446164132239       -2.69710085437858       -0.83441146453372
H           -2.31375971429671       -2.54785812364678        0.09734117758306
H            1.26689476980853       -2.25350963689428        0.00504620932263

          :  Hamiltonian                  GFN2-xTB          :
         :: total energy             -42.197131928437 Eh    ::
         :: gradient norm              0.005536563667 Eh/a0 ::
         :: HOMO-LUMO gap              1.913101199937 eV    ::
         :: SCC energy               -42.745838600032 Eh    ::
         :: -> dispersion             -0.020573374923 Eh    ::
         :: repulsion energy           0.548716255677 Eh    ::

    * Orbital Energies and Occupations

         #    Occupation            Energy/Eh            Energy/eV
      -------------------------------------------------------------
         1        2.0000           -0.8771562             -23.8686
       ...           ...                  ...                  ...
        25        1.9987           -0.6681131             -18.1803
        26        1.9983           -0.6612314             -17.9930
        27        1.9981           -0.6588632             -17.9286
        28        1.9958           -0.6393635             -17.3980
        29        1.9951           -0.6359317             -17.3046
        30        1.9923           -0.6250969             -17.0098
        31        1.9895           -0.6175650             -16.8048
        32        1.9862           -0.6109440             -16.6246
        33        1.9655           -0.5890522             -16.0289
        34        1.9549           -0.5825298             -15.8514
        35        1.8959           -0.5619389             -15.2911
        36        1.8927           -0.5611620             -15.2700
        37        1.7133           -0.5354651             -14.5707 (HOMO)
        38        0.4729           -0.4651600             -12.6576 (LUMO)
        39        0.1316           -0.4299826             -11.7004
        40        0.0204           -0.3842922             -10.4571
        41        0.0025           -0.3341132              -9.0917
        42        0.0007           -0.3050624              -8.3012
        43        0.0000           -0.1797897              -4.8923
        44        0.0000           -0.1547955              -4.2122
        45        0.0000           -0.1234840              -3.3602
        46                         -0.0779108              -2.1201
        47                         -0.0690942              -1.8801
        48                         -0.0452609              -1.2316
       ...                                ...                  ...
        67                          0.5751957              15.6519
      -------------------------------------------------------------
                  HL-Gap            0.0703052 Eh            1.9131 eV

     #   Z          covCN         q      C6AA      α(0)
     1   6 C        2.769     0.009    27.798     8.635
     2   7 N        1.826    -0.034    22.619     7.047
     3   6 C        2.767     0.088    26.025     8.355
     4   7 N        2.688    -0.053    22.260     7.007
     5   6 C        2.837     0.004    27.928     8.660
     6   6 C        2.986     0.014    27.682     8.631
     7   6 C        2.850     0.260    22.633     7.797
     8   8 O        0.857    -0.333    20.383     6.053
     9   7 N        2.792    -0.067    22.540     7.051
    10   6 C        3.690    -0.056    21.780     6.679
    11   6 C        2.831     0.316    21.636     7.622
    12   8 O        0.857    -0.338    20.479     6.067
    13   7 N        2.785    -0.051    22.216     7.000
    14   6 C        3.690    -0.066    21.957     6.706
    15   1 H        0.925     0.113     1.667     2.019
    16   1 H        0.926     0.132     1.522     1.929
    17   1 H        0.926     0.107     1.720     2.051
    18   1 H        0.925     0.116     1.643     2.004
    19   1 H        0.925     0.114     1.664     2.017
    20   1 H        0.924     0.107     1.725     2.054
    21   1 H        0.924     0.111     1.688     2.032
    22   1 H        0.924     0.082     1.954     2.186
    23   1 H        0.924     0.082     1.958     2.188
    24   1 H        0.924     0.123     1.588     1.971
    25   1 H        0.860     0.218     1.019     1.581

Wiberg/Mayer (AO) data.
largest (>0.10) Wiberg bond orders for each atom

     #   Z sym  total        # sym  WBO       # sym  WBO       # sym  WBO
 ---------------------------------------------------------------------------
     1   6 C    3.649 --     2 N    1.696    16 H    0.937    15 H    0.923
     2   7 N    3.306 --     1 C    1.696     3 C    1.487
     3   6 C    3.781 --     2 N    1.487     4 N    1.228    18 H    0.932
     4   7 N    3.513 --     3 C    1.228     5 C    1.189    25 H    0.912
     5   6 C    3.780 --     6 C    1.469     4 N    1.189    17 H    0.944
     6   6 C    3.811 --     5 C    1.469    13 N    1.154     7 C    1.004
     7   6 C    3.892 --     8 O    1.677     9 N    1.119     6 C    1.004
     8   8 O    1.930 --     7 C    1.677     9 N    0.121
     9   7 N    3.487 --     7 C    1.119    11 C    1.093    10 C    0.988
                             8 O    0.121    12 O    0.105
    10   6 C    3.882 --     9 N    0.988    19 H    0.959    21 H    0.954
                            20 H    0.943
    11   6 C    3.921 --    12 O    1.681     9 N    1.093    13 N    1.064
    12   8 O    1.965 --    11 C    1.681    13 N    0.106     9 N    0.105
    13   7 N    3.444 --     6 C    1.154    11 C    1.064    14 C    0.994
                            12 O    0.106
    14   6 C    3.920 --    13 N    0.994    23 H    0.960    22 H    0.960
                            24 H    0.959
    15   1 H    0.959 --     1 C    0.923
    16   1 H    0.966 --     1 C    0.937
    17   1 H    0.986 --     5 C    0.944
    18   1 H    0.976 --     3 C    0.932
    19   1 H    0.974 --    10 C    0.959
    20   1 H    0.961 --    10 C    0.943
    21   1 H    0.969 --    10 C    0.954
    22   1 H    0.978 --    14 C    0.960
    23   1 H    0.978 --    14 C    0.960
    24   1 H    0.980 --    14 C    0.959
    25   1 H    0.950 --     4 N    0.912
 ---------------------------------------------------------------------------

molecular dipole:
                 x           y           z       tot (Debye)
 q only:        2.603      -1.387       0.034
   full:        2.586      -1.553       0.095       7.671

           -------------------------------------------------
          | TOTAL ENERGY              -42.197131928437 Eh   |
          | GRADIENT NORM               0.005536563667 Eh/α |
          | HOMO-LUMO GAP               1.913101199937 eV   |
           -------------------------------------------------

 * finished run on 2024/06/05 at 19:58:59.269
