   * xtb version 6.6.1 (8d0f1dd) compiled by 'conda@1efc2f54142f' on 2023-08-01
          program call               : xtb struc.xyz --opt loose --input .xc1 --gfn2

   ID    Z sym.   atoms
    1    7 N      1, 17
    2    6 C      2-6, 8, 9, 11-16, 18-23, 25, 26, 28-33
    3    8 O      7, 10, 24, 27
    4    1 H      34-72
constraining bond 16 46 to    4.1400000 Å, actual value:    2.0805159 Å

          :  Hamiltonian                  GFN2-xTB          :
 * total energy  :   -98.6468020 Eh     change       -0.4035485E-08 Eh
 * total energy  :   -98.9062742 Eh     change       -0.2594722E+00 Eh
 * total energy  :   -99.0605981 Eh     change       -0.1543240E+00 Eh
 * total energy  :   -99.1352921 Eh     change       -0.7469396E-01 Eh
 * total energy  :   -99.1703035 Eh     change       -0.3501146E-01 Eh
 * total energy  :   -99.1884844 Eh     change       -0.1818087E-01 Eh
 * total energy  :   -99.2042973 Eh     change       -0.1581289E-01 Eh
 * total energy  :   -99.2282330 Eh     change       -0.2393571E-01 Eh
 * total energy  :   -99.2572453 Eh     change       -0.2901227E-01 Eh
 * total energy  :   -99.2675028 Eh     change       -0.1025757E-01 Eh
 * total energy  :   -99.3574622 Eh     change       -0.1675469E-03 Eh
 * total energy  :   -99.3576167 Eh     change       -0.1545038E-03 Eh
 * total energy  :   -99.3577560 Eh     change       -0.1392840E-03 Eh
 * total energy  :   -99.3578942 Eh     change       -0.1382604E-03 Eh
 * total energy  :   -99.3580192 Eh     change       -0.1249920E-03 Eh
 * total energy  :   -99.3581346 Eh     change       -0.1153806E-03 Eh
 * total energy  :   -99.3582410 Eh     change       -0.1063648E-03 Eh
 * total energy  :   -99.3582958 Eh     change       -0.5485335E-04 Eh
 * total energy  :   -99.3583396 Eh     change       -0.4377916E-04 Eh
   *** GEOMETRY OPTIMIZATION CONVERGED AFTER 95 ITERATIONS ***

 final structure:
================
72
 xtb: 6.6.1 (8d0f1dd)
N           -3.37808521702161        3.21673375390670        2.98995947203054
C           -3.24473520022220        2.06639116179269        2.51208788049275
C           -3.44838868057600        1.75776956139957        1.04044374919818
C           -4.08138545732970        0.39447311411130        0.85248987919029
C           -3.95938388176893       -0.24730602639327       -0.38011210190942
C           -4.56734034696924       -1.46860200309863       -0.61894804695109
O           -4.50863714222451       -2.15615057182793       -1.77918318245803
C           -3.86749459586764       -1.57741938723100       -2.88894478218830
C           -5.32923348907300       -2.08497237368659        0.41235307404186
O           -5.87807978785531       -3.27319962590712        0.09632585328885
C           -6.68956710525429       -3.92848184609272        1.04486531374405
C           -5.45655677832575       -1.43092788268719        1.62936492964047
C           -4.84592788371237       -0.20397959406670        1.84296727725602
C           -1.99781302102364        1.78885357063024        0.66315061222508
C           -1.16055881728599        0.70683842442960        0.71249351814053
C            0.21748064218054        0.83251484635793        0.54508379715522
N            1.10566273835933       -0.16242770155153        0.58861517753058
C            2.51507594728942        0.09418007304714        0.42569463727598
C            3.00093372560376       -0.16471368382082       -1.01444824046342
C            4.49135066526536        0.01299648494316       -1.07998558808403
C            5.05150768791615        1.24773873785589       -1.36833117426145
C            6.42704628854125        1.41947307043179       -1.37782844718392
C            7.27429655714155        0.35752517343930       -1.09299481656165
O            8.61749563080614        0.40792767381469       -1.06429287303813
C            9.27009806884397        1.62462211448546       -1.34534490658647
C            6.70925515804969       -0.91612566494117       -0.80196975452567
O            7.60068438227875       -1.89323339737502       -0.54825619603885
C            7.14066736096809       -3.19725019715033       -0.28473077128620
C            5.33078256722238       -1.06165933606491       -0.79574301992453
C            0.68323493550109       -1.53543795196497        0.72173002276680
C           -4.31574607429030        2.80264662176684        0.27813374433317
C           -5.69832033416596        2.91198023826282        0.91672074488834
C           -3.68769604865151        4.19015379110854        0.17762199861235
H           -3.38483636776628        0.22699065996329       -1.15973664412663
H           -4.33180859179926       -0.62709931371545       -3.16772271239945
H           -3.98884404924187       -2.29210300031581       -3.70027839618859
H           -2.80144190072629       -1.41881967096844       -2.70142351526145
H           -7.55848183405212       -3.32119677934558        1.31772962283421
H           -7.02705309944970       -4.84227447584491        0.55921756113994
H           -6.12373733396255       -4.18450130285164        1.94726956193325
H           -6.04442191116231       -1.86465274031269        2.42153272158347
H           -4.99084495885144        0.28765774125387        2.79229086688695
H           -1.86828222279366        1.95570741885912       -2.01601407269031
H           -1.57448759847582        2.76658871809583        0.49338163182718
H           -1.58477950103418       -0.26962997520903        0.89485309541528
H           -1.91389804180204        2.02591822287114       -2.79477296999577
H           -2.88719600572262        1.19556609347445        3.08010165220310
H            0.62740386311221        1.82116989580004        0.39269042697435
H            3.07151244627015       -0.55009710429376        1.11250733124205
H            2.72651544896909        1.13178614228968        0.69061547151535
H            2.50560663755369        0.53612299722730       -1.68805605730416
H            2.73163717875356       -1.17912452473244       -1.31168735224692
H            4.41510754229228        2.08892373852667       -1.59647131824780
H            6.83283955622814        2.39006563729115       -1.61122719272438
H            8.98849109329926        2.40525045025343       -0.63235658262909
H            9.05871329118376        1.96497634640905       -2.36271053863617
H           10.33306150647659        1.41432831227276       -1.24823539546182
H            8.03556039409515       -3.80002509576001       -0.14237440336949
H            6.53374817644914       -3.23198434148697        0.62583599780522
H            6.56468516746052       -3.59668878648269       -1.12515657110253
H            4.89322369909672       -2.02373129902677       -0.57892331295791
H            0.05117389818012       -1.83326474720428       -0.11807090212328
H            0.12049665920183       -1.67716348292331        1.64654358199630
H            1.55696036707496       -2.18245707640254        0.74517745236431
H           -4.43947359296701        2.40733871749867       -0.73749088349639
H           -5.61663974066026        3.34285728164909        1.91084378131961
H           -6.17778713652082        1.93842635145230        0.98918998829448
H           -6.33060478317011        3.55810380888986        0.31380502267377
H           -3.40200194564562        4.54395138891788        1.16310430032607
H           -2.82368199013950        4.19913460177623       -0.48158436325232
H           -4.41944041459258        4.87899338523146       -0.23557740930793
H           -3.17110080215743        3.34816416135107        3.97545758774492

          :  Hamiltonian                  GFN2-xTB          :
         :: total energy             -99.358339612696 Eh    ::
         :: gradient norm              0.003086032547 Eh/a0 ::
         :: HOMO-LUMO gap              1.368751920170 eV    ::
         :: SCC energy              -100.780048339492 Eh    ::
         :: -> dispersion             -0.072219212907 Eh    ::
         :: repulsion energy           1.420808225603 Eh    ::

    * Orbital Energies and Occupations

         #    Occupation            Energy/Eh            Energy/eV
      -------------------------------------------------------------
         1        2.0000           -0.8095104             -22.0279
       ...           ...                  ...                  ...
        78        1.9979           -0.5293479             -14.4043
        79        1.9978           -0.5290530             -14.3963
        80        1.9963           -0.5205192             -14.1640
        81        1.9962           -0.5202756             -14.1574
        82        1.9945           -0.5143569             -13.9964
        83        1.9938           -0.5124554             -13.9446
        84        1.9924           -0.5091783             -13.8554
        85        1.9906           -0.5057059             -13.7610
        86        1.9728           -0.4887936             -13.3007
        87        1.9713           -0.4879283             -13.2772
        88        1.9019           -0.4678994             -12.7322
        89        1.8207           -0.4576609             -12.4536
        90        1.8081           -0.4564743             -12.4213 (HOMO)
        91        0.5642           -0.4061735             -11.0525 (LUMO)
        92        0.0061           -0.3292610              -8.9596
        93        0.0023           -0.3136053              -8.5336
        94        0.0022           -0.3129625              -8.5161
        95        0.0019           -0.3107689              -8.4565
        96        0.0019           -0.3105226              -8.4497
        97        0.0001           -0.2680442              -7.2939
        98        0.0000           -0.1881943              -5.1210
        99        0.0000           -0.1880018              -5.1158
       100                         -0.1222887              -3.3276
       101                         -0.0639381              -1.7398
       ...                                ...                  ...
       171                          0.5760636              15.6755
      -------------------------------------------------------------
                  HL-Gap            0.0503007 Eh            1.3688 eV

     #   Z          covCN         q      C6AA      α(0)
     1   7 N        1.774    -0.274    27.931     7.826
     2   6 C        2.907     0.105    25.686     8.310
     3   6 C        3.914     0.016    20.244     6.395
     4   6 C        2.974     0.003    27.942     8.671
     5   6 C        2.920    -0.076    29.905     8.968
     6   6 C        2.863     0.130    25.142     8.219
     7   8 O        1.706    -0.228    17.785     5.694
     8   6 C        3.645     0.029    20.428     6.496
     9   6 C        2.864     0.133    25.096     8.212
    10   8 O        1.706    -0.223    17.701     5.680
    11   6 C        3.645     0.025    20.487     6.505
    12   6 C        2.914    -0.068    29.696     8.936
    13   6 C        2.921    -0.045    29.117     8.849
    14   6 C        2.994    -0.027    28.659     8.782
    15   6 C        2.892    -0.058    29.452     8.898
    16   6 C        2.855     0.012    27.735     8.632
    17   7 N        2.731     0.000    21.260     6.848
    18   6 C        3.754    -0.016    20.916     6.521
    19   6 C        3.807    -0.071    21.845     6.653
    20   6 C        2.969     0.003    27.950     8.672
    21   6 C        2.922    -0.046    29.154     8.854
    22   6 C        2.913    -0.066    29.649     8.929
    23   6 C        2.864     0.135    25.056     8.205
    24   8 O        1.706    -0.218    17.624     5.668
    25   6 C        3.645     0.024    20.506     6.508
    26   6 C        2.862     0.134    25.065     8.206
    27   8 O        1.706    -0.221    17.676     5.676
    28   6 C        3.645     0.026    20.467     6.502
    29   6 C        2.920    -0.079    29.965     8.977
    30   6 C        3.700    -0.065    21.912     6.694
    31   6 C        3.852    -0.005    20.624     6.459
    32   6 C        3.756    -0.115    22.758     6.802
    33   6 C        3.755    -0.120    22.863     6.818
    34   1 H        0.926     0.050     2.319     2.381
    35   1 H        0.924     0.054     2.271     2.356
    36   1 H        0.925     0.081     1.968     2.194
    37   1 H        0.924     0.044     2.398     2.421
    38   1 H        0.924     0.057     2.232     2.336
    39   1 H        0.925     0.082     1.958     2.188
    40   1 H        0.924     0.054     2.271     2.357
    41   1 H        0.926     0.059     2.215     2.327
    42   1 H        0.926     0.050     2.317     2.380
    43   1 H        0.793    -0.010     3.307     2.859
    44   1 H        0.926     0.062     2.173     2.305
    45   1 H        0.926     0.051     2.313     2.378
    46   1 H        0.793     0.010     2.954     2.702
    47   1 H        0.923     0.016     2.796     2.615
    48   1 H        0.926     0.064     2.155     2.296
    49   1 H        0.924     0.066     2.128     2.281
    50   1 H        0.924     0.067     2.116     2.275
    51   1 H        0.924     0.056     2.251     2.346
    52   1 H        0.924     0.055     2.256     2.349
    53   1 H        0.926     0.049     2.330     2.387
    54   1 H        0.926     0.060     2.196     2.317
    55   1 H        0.924     0.056     2.246     2.344
    56   1 H        0.924     0.058     2.227     2.333
    57   1 H        0.925     0.084     1.943     2.180
    58   1 H        0.925     0.083     1.949     2.183
    59   1 H        0.924     0.051     2.314     2.379
    60   1 H        0.924     0.054     2.273     2.358
    61   1 H        0.926     0.049     2.338     2.391
    62   1 H        0.924     0.071     2.072     2.251
    63   1 H        0.924     0.074     2.040     2.234
    64   1 H        0.925     0.076     2.021     2.223
    65   1 H        0.924     0.040     2.451     2.449
    66   1 H        0.925     0.060     2.200     2.319
    67   1 H        0.925     0.037     2.494     2.470
    68   1 H        0.925     0.052     2.300     2.371
    69   1 H        0.925     0.074     2.044     2.236
    70   1 H        0.925     0.036     2.506     2.475
    71   1 H        0.925     0.055     2.254     2.348
    72   1 H        0.860     0.162     1.320     1.800

Wiberg/Mayer (AO) data.
largest (>0.10) Wiberg bond orders for each atom

     #   Z sym  total        # sym  WBO       # sym  WBO       # sym  WBO
 ---------------------------------------------------------------------------
     1   7 N    2.973 --     2 C    1.915    72 H    0.936
     2   6 C    3.913 --     1 N    1.915     3 C    0.940    47 H    0.932
     3   6 C    3.965 --    14 C    0.990     4 C    0.979     2 C    0.940
                            31 C    0.936
     4   6 C    3.933 --    13 C    1.405     5 C    1.373     3 C    0.979
     5   6 C    3.957 --     6 C    1.399     4 C    1.373    34 H    0.958
     6   6 C    3.892 --     5 C    1.399     9 C    1.218     7 O    1.097
     7   8 O    2.245 --     6 C    1.097     8 C    0.980
     8   6 C    3.933 --     7 O    0.980    36 H    0.977    37 H    0.973
                            35 H    0.973
     9   6 C    3.888 --    12 C    1.383     6 C    1.218    10 O    1.109
    10   8 O    2.249 --     9 C    1.109    11 C    0.976
    11   6 C    3.928 --    39 H    0.977    10 O    0.976    40 H    0.972
                            38 H    0.972
    12   6 C    3.955 --    13 C    1.414     9 C    1.383    41 H    0.963
    13   6 C    3.943 --    12 C    1.414     4 C    1.405    42 H    0.963
    14   6 C    3.690 --    15 C    1.538     3 C    0.990    44 H    0.958
    15   6 C    3.957 --    14 C    1.538    16 C    1.335    45 H    0.956
    16   6 C    3.732 --    17 N    1.343    15 C    1.335    48 H    0.956
    17   7 N    3.461 --    16 C    1.343    30 C    1.001    18 C    0.994
    18   6 C    3.957 --    17 N    0.994    50 H    0.968    19 C    0.966
                            49 H    0.964
    19   6 C    3.975 --    20 C    1.010    51 H    0.972    52 H    0.971
                            18 C    0.966
    20   6 C    3.936 --    21 C    1.404    29 C    1.381    19 C    1.010
    21   6 C    3.941 --    22 C    1.419    20 C    1.404    53 H    0.968
    22   6 C    3.955 --    21 C    1.419    23 C    1.380    54 H    0.963
    23   6 C    3.886 --    22 C    1.380    26 C    1.214    24 O    1.114
    24   8 O    2.253 --    23 C    1.114    25 C    0.975
    25   6 C    3.926 --    57 H    0.976    24 O    0.975    55 H    0.972
                            56 H    0.972
    26   6 C    3.891 --    29 C    1.393    23 C    1.214    27 O    1.107
    27   8 O    2.252 --    26 C    1.107    28 C    0.978
    28   6 C    3.930 --    27 O    0.978    58 H    0.976    59 H    0.973
                            60 H    0.973
    29   6 C    3.955 --    26 C    1.393    20 C    1.381    61 H    0.962
    30   6 C    3.962 --    17 N    1.001    64 H    0.979    62 H    0.969
                            63 H    0.968
    31   6 C    3.965 --    32 C    1.008    33 C    1.008    65 H    0.959
                             3 C    0.936
    32   6 C    3.980 --    31 C    1.008    68 H    0.981    67 H    0.981
                            66 H    0.978
    33   6 C    3.974 --    31 C    1.008    70 H    0.980    71 H    0.978
                            69 H    0.970
    34   1 H    0.996 --     5 C    0.958
    35   1 H    0.992 --     8 C    0.973
    36   1 H    0.993 --     8 C    0.977
    37   1 H    0.993 --     8 C    0.973
    38   1 H    0.991 --    11 C    0.972
    39   1 H    0.992 --    11 C    0.977
    40   1 H    0.991 --    11 C    0.972
    41   1 H    0.995 --    12 C    0.963
    42   1 H    0.996 --    13 C    0.963
    43   1 H    0.999 --    46 H    0.989
    44   1 H    0.995 --    14 C    0.958
    45   1 H    0.997 --    15 C    0.956
    46   1 H    0.997 --    43 H    0.989
    47   1 H    0.979 --     2 C    0.932
    48   1 H    0.996 --    16 C    0.956
    49   1 H    0.990 --    18 C    0.964
    50   1 H    0.994 --    18 C    0.968
    51   1 H    0.995 --    19 C    0.972
    52   1 H    0.995 --    19 C    0.971
    53   1 H    0.997 --    21 C    0.968
    54   1 H    0.995 --    22 C    0.963
    55   1 H    0.991 --    25 C    0.972
    56   1 H    0.990 --    25 C    0.972
    57   1 H    0.992 --    25 C    0.976
    58   1 H    0.992 --    28 C    0.976
    59   1 H    0.992 --    28 C    0.973
    60   1 H    0.992 --    28 C    0.973
    61   1 H    0.996 --    29 C    0.962
    62   1 H    0.987 --    30 C    0.969
    63   1 H    0.987 --    30 C    0.968
    64   1 H    0.994 --    30 C    0.979
    65   1 H    0.990 --    31 C    0.959
    66   1 H    0.992 --    32 C    0.978
    67   1 H    0.996 --    32 C    0.981
    68   1 H    0.994 --    32 C    0.981
    69   1 H    0.989 --    33 C    0.970
    70   1 H    0.996 --    33 C    0.980
    71   1 H    0.993 --    33 C    0.978
    72   1 H    0.964 --     1 N    0.936
 ---------------------------------------------------------------------------

molecular dipole:
                 x           y           z       tot (Debye)
 q only:        1.006      -0.356       0.297
   full:        1.044      -0.531       0.603       3.347

           -------------------------------------------------
          | TOTAL ENERGY              -99.358339612696 Eh   |
          | GRADIENT NORM               0.003086032547 Eh/α |
          | HOMO-LUMO GAP               1.368751920170 eV   |
           -------------------------------------------------

 * finished run on 2024/04/06 at 11:13:33.208
