   * xtb version 6.6.1 (8d0f1dd) compiled by 'conda@1efc2f54142f' on 2023-08-01
          program call               : xtb struc.xyz --opt loose --input .xc1 --gfn2

   ID    Z sym.   atoms
    1    6 C      1, 3, 5-7, 10, 11, 14
    2    7 N      2, 4, 9, 13
    3    8 O      8, 12
    4    1 H      15-25
constraining bond 11 22 to    3.7133300 Å, actual value:    3.1884051 Å

          :  Hamiltonian                  GFN2-xTB          :
 * total energy  :   -42.7398550 Eh     change       -0.6650680E-10 Eh
 * total energy  :   -44.9102990 Eh     change       -0.2170444E+01 Eh
 * total energy  :   -48.7370177 Eh     change       -0.3826719E+01 Eh
 * total energy  :   -54.3970776 Eh     change       -0.5660060E+01 Eh
 * total energy  :   -58.1906118 Eh     change       -0.3793534E+01 Eh
 * total energy  :   -57.9414213 Eh     change        0.2491906E+00 Eh
 * total energy  :   -58.9307636 Eh     change       -0.9893423E+00 Eh
 * total energy  :   -58.1181286 Eh     change        0.8126350E+00 Eh
 * total energy  :   -59.2946967 Eh     change       -0.1176568E+01 Eh
 * total energy  :   -59.3727019 Eh     change       -0.7800519E-01 Eh
 * total energy  :   -59.7389930 Eh     change       -0.7387353E-04 Eh
 * total energy  :   -59.7390688 Eh     change       -0.7583072E-04 Eh
 * total energy  :   -59.7391330 Eh     change       -0.6417988E-04 Eh
 * total energy  :   -59.7391722 Eh     change       -0.3920021E-04 Eh
 * total energy  :   -59.7392046 Eh     change       -0.3246514E-04 Eh
 * total energy  :   -59.7391884 Eh     change        0.1621282E-04 Eh
 * total energy  :   -59.7392175 Eh     change       -0.2907698E-04 Eh
 * total energy  :   -59.7392403 Eh     change       -0.2282569E-04 Eh
 * total energy  :   -59.7392513 Eh     change       -0.1098861E-04 Eh
   *** GEOMETRY OPTIMIZATION CONVERGED AFTER 66 ITERATIONS ***

 final structure:
================
25
 xtb: 6.6.1 (8d0f1dd)
C            2.97966305347125        1.09291539379846        0.25490255956333
N            2.15355439595592       -0.06415815318898        0.03954283995968
C            2.59114202486538       -1.30460674623529       -0.10499944609331
N            1.55092847210842       -2.12725838645164       -0.28480051453382
C            0.38419533154627       -1.38894876443406       -0.22549974703895
C            0.77829415740423       -0.06975120798605        0.00320360582869
C           -0.02511124541321        1.17929215169607       -0.09721614659789
O            0.45191981905357        2.17780158953068       -0.59106226040445
N           -1.32195239763863        1.08711805738713        0.33260354456939
C           -2.26416423399776        2.12616522609819       -0.02174798386410
C           -1.74401969442266        0.02710083540269        1.24536321854749
O           -2.94460329937081        0.04795178274731        1.50325398506566
N           -0.87175227307025       -1.86113528828736       -0.27261295280302
C           -1.30963389675742       -2.86918395924079       -0.90742539507129
H            2.86043444907609        1.45465773288397        1.27768302769087
H            4.02199839161945        0.83652177509473        0.08228324305813
H            2.67155436032128        1.89194641114387       -0.42144378226531
H            3.62079521181098       -1.60726512009230       -0.07782634683456
H           -1.76165805608669        2.87071996756509       -0.63355749197632
H           -3.09651679552078        1.68026253027873       -0.56703872725099
H           -2.66118088483833        2.58709108635182        0.88303826690551
H           -1.43149124081070       -0.22455057181128        1.38358274634571
H           -0.73294378396978       -3.46176289325515       -1.61494367100446
H           -2.34470644761793       -3.13271740710834       -0.75463290640154
H            1.60568609638148       -3.12996750028682       -0.39947804749240

          :  Hamiltonian                  GFN2-xTB          :
         :: total energy             -59.739251316873 Eh    ::
         :: gradient norm              0.003212543718 Eh/a0 ::
         :: HOMO-LUMO gap              2.425072055604 eV    ::
         :: SCC energy               -42.701096186763 Eh    ::
         :: -> dispersion             -0.022405398295 Eh    ::
         :: repulsion energy           2.275977029289 Eh    ::

    * Orbital Energies and Occupations

         #    Occupation            Energy/Eh            Energy/eV
      -------------------------------------------------------------
         1        2.0000           -0.9126427             -24.8343
       ...           ...                  ...                  ...
        25        2.0000           -0.6648919             -18.0926
        26        1.9999           -0.6611644             -17.9912
        27        1.9999           -0.6546737             -17.8146
        28        1.9999           -0.6484703             -17.6458
        29        1.9998           -0.6391553             -17.3923
        30        1.9994           -0.6255865             -17.0231
        31        1.9990           -0.6169568             -16.7882
        32        1.9963           -0.5963123             -16.2265
        33        1.9959           -0.5948769             -16.1874
        34        1.9811           -0.5704610             -15.5230
        35        1.9614           -0.5589566             -15.2100
        36        1.9467           -0.5537477             -15.0682
        37        1.9206           -0.5472239             -14.8907 (HOMO)
        38        0.1600           -0.4581041             -12.4656 (LUMO)
        39        0.0334           -0.4322559             -11.7623
        40        0.0061           -0.4051732             -11.0253
        41        0.0006           -0.3686915             -10.0326
        42        0.0000           -0.3222958              -8.7701
        43                         -0.1912134              -5.2032
        44                         -0.1738116              -4.7297
        45                         -0.1363531              -3.7104
        46                         -0.0803320              -2.1859
        47                         -0.0551799              -1.5015
        48                         -0.0461256              -1.2551
       ...                                ...                  ...
        67                         10.6240519             289.0952
      -------------------------------------------------------------
                  HL-Gap            0.0891198 Eh            2.4251 eV

     #   Z          covCN         q      C6AA      α(0)
     1   6 C        3.693    -0.094    22.478     6.784
     2   7 N        2.844     0.089    19.698     6.592
     3   6 C        3.029     0.061    26.596     8.459
     4   7 N        2.802    -0.061    22.411     7.031
     5   6 C        3.018     0.122    25.295     8.250
     6   6 C        3.091    -0.017    28.320     8.723
     7   6 C        2.762     0.273    22.382     7.748
     8   8 O        0.859    -0.358    20.851     6.122
     9   7 N        2.740    -0.088    22.963     7.117
    10   6 C        3.696    -0.061    21.858     6.688
    11   6 C        2.703     0.191    23.921     8.005
    12   8 O        0.867    -0.302    19.807     5.967
    13   7 N        1.825    -0.159    25.225     7.442
    14   6 C        2.792     0.038    27.133     8.533
    15   1 H        0.924     0.111     1.688     2.032
    16   1 H        0.925     0.102     1.771     2.081
    17   1 H        0.924     0.141     1.456     1.887
    18   1 H        0.926     0.124     1.577     1.964
    19   1 H        0.925     0.105     1.740     2.063
    20   1 H        0.924     0.102     1.768     2.079
    21   1 H        0.924     0.102     1.771     2.081
    22   1 H        0.946     0.164     1.300     1.782
    23   1 H        0.925     0.069     2.094     2.263
    24   1 H        0.926     0.118     1.631     1.997
    25   1 H        0.860     0.227     0.978     1.549

Wiberg/Mayer (AO) data.
largest (>0.10) Wiberg bond orders for each atom

     #   Z sym  total        # sym  WBO       # sym  WBO       # sym  WBO
 ---------------------------------------------------------------------------
     1   6 C    3.916 --     2 N    0.987    16 H    0.974    15 H    0.955
                            17 H    0.947
     2   7 N    3.713 --     3 C    1.394     6 C    1.184     1 C    0.987
     3   6 C    3.906 --     2 N    1.394     4 N    1.320    18 H    0.950
     4   7 N    3.595 --     3 C    1.320     5 C    1.147    25 H    0.920
     5   6 C    3.917 --     6 C    1.376    13 N    1.213     4 N    1.147
     6   6 C    3.880 --     5 C    1.376     2 N    1.184     7 C    0.996
     7   6 C    3.941 --     8 O    1.690     9 N    1.169     6 C    0.996
     8   8 O    2.019 --     7 C    1.690     9 N    0.142
     9   7 N    3.530 --     7 C    1.169    11 C    1.044    10 C    0.986
                            12 O    0.150     8 O    0.142
    10   6 C    3.911 --     9 N    0.986    19 H    0.968    21 H    0.957
                            20 H    0.954
    11   6 C    3.905 --    12 O    1.823     9 N    1.044    22 H    0.956
    12   8 O    2.060 --    11 C    1.823     9 N    0.150
    13   7 N    3.160 --    14 C    1.780     5 C    1.213
    14   6 C    3.805 --    13 N    1.780    24 H    0.956    23 H    0.949
    15   1 H    0.986 --     1 C    0.955
    16   1 H    0.989 --     1 C    0.974
    17   1 H    0.979 --     1 C    0.947
    18   1 H    0.984 --     3 C    0.950
    19   1 H    0.985 --    10 C    0.968
    20   1 H    0.976 --    10 C    0.954
    21   1 H    0.977 --    10 C    0.957
    22   1 H    0.969 --    11 C    0.956
    23   1 H    0.984 --    14 C    0.949
    24   1 H    0.981 --    14 C    0.956
    25   1 H    0.948 --     4 N    0.920
 ---------------------------------------------------------------------------

molecular dipole:
                 x           y           z       tot (Debye)
 q only:        2.510      -1.970      -0.200
   full:        2.940      -2.594      -0.375      10.012

           -------------------------------------------------
          | TOTAL ENERGY              -59.739251316873 Eh   |
          | GRADIENT NORM               0.003212543718 Eh/α |
          | HOMO-LUMO GAP               2.425072055604 eV   |
           -------------------------------------------------

 * finished run on 2024/06/05 at 19:59:28.125
