   * xtb version 6.6.1 (8d0f1dd) compiled by 'conda@1efc2f54142f' on 2023-08-01
          program call               : xtb struc.xyz --opt loose --input .xc1 --gfn2

   ID    Z sym.   atoms
    1    6 C      1, 3, 5-7, 10, 11, 14
    2    7 N      2, 4, 9, 13
    3    8 O      8, 12
    4    1 H      15-25
constraining bond 2 7 to    4.9200000 Å, actual value:    2.5746944 Å

          :  Hamiltonian                  GFN2-xTB          :
 * total energy  :   -22.6053696 Eh     change       -0.6650680E-10 Eh
 * total energy  :   -31.3741611 Eh     change       -0.8768792E+01 Eh
 * total energy  :   -37.0584618 Eh     change       -0.5684301E+01 Eh
 * total energy  :   -40.2917495 Eh     change       -0.3233288E+01 Eh
 * total energy  :   -41.5139583 Eh     change       -0.1222209E+01 Eh
 * total energy  :   -41.6563630 Eh     change       -0.1424046E+00 Eh
 * total energy  :   -41.6807259 Eh     change       -0.2436292E-01 Eh
 * total energy  :   -41.7214778 Eh     change       -0.4075193E-01 Eh
 * total energy  :   -41.7406475 Eh     change       -0.1916965E-01 Eh
 * total energy  :   -41.7729008 Eh     change       -0.3225330E-01 Eh
 * total energy  :   -42.1550469 Eh     change       -0.1848554E-02 Eh
 * total energy  :   -42.1564337 Eh     change       -0.1386775E-02 Eh
 * total energy  :   -42.1574119 Eh     change       -0.9782123E-03 Eh
 * total energy  :   -42.1583641 Eh     change       -0.9522319E-03 Eh
 * total energy  :   -42.1589272 Eh     change       -0.5630939E-03 Eh
 * total energy  :   -42.1590995 Eh     change       -0.1722713E-03 Eh
 * total energy  :   -42.1591033 Eh     change       -0.3857100E-05 Eh
 * total energy  :   -42.1592214 Eh     change       -0.1180723E-03 Eh
 * total energy  :   -42.1592563 Eh     change       -0.3494079E-04 Eh
   *** GEOMETRY OPTIMIZATION CONVERGED AFTER 49 ITERATIONS ***

 final structure:
================
25
 xtb: 6.6.1 (8d0f1dd)
C            4.41686669084301        0.28468110395990       -0.02798805515523
N            3.72557761732264       -0.73363447384933        0.23311764323072
C            2.78178898585625       -1.57237571378169        0.05909941442467
N            1.43680714049223       -1.45659006254474        0.04103530676615
C            0.46047010531282       -0.44965550733365        0.04477121776114
C            0.65928790027424        0.89504998609003        0.08254068309885
C           -0.45683936258917        1.84554942208146        0.06405540157379
O           -0.31064525840662        3.04415886773347        0.09883377118342
N           -1.70941990105745        1.25396378286777        0.00152802583819
C           -2.88331067534039        2.10909006898450       -0.02779398015945
C           -1.94552910660994       -0.09483019969459       -0.03276426412264
O           -3.05973455002699       -0.54800260235364       -0.08370422505440
N           -0.82308825328738       -0.94315790397608       -0.00855887724530
C           -1.12842514149463       -2.36416653004556       -0.04745907619370
H            5.07481372499165        0.68198142315790        0.73385630269427
H            4.44468210458396        0.72177811267197       -1.01994160369409
H            1.64430756282269        1.32472784159187        0.13324071350911
H            3.11067344492972       -2.61047600717149        0.03685721025344
H           -2.54739223689353        3.14342832513649       -0.01441633366100
H           -3.46362941304861        1.90717112733842       -0.92826351646214
H           -3.51324405709295        1.90317570370940        0.83794669953709
H           -0.79419237828143       -2.87350081693336        0.85900463484790
H           -0.72958093066942       -2.83878158512907       -0.94650946629179
H           -2.21682074704726       -2.44385722611407       -0.08824857358312
H            0.98700824851672       -2.36748859479570        0.03093256480400

          :  Hamiltonian                  GFN2-xTB          :
         :: total energy             -42.159256350680 Eh    ::
         :: gradient norm              0.001958834476 Eh/a0 ::
         :: HOMO-LUMO gap              2.107991070601 eV    ::
         :: SCC energy               -42.708226885053 Eh    ::
         :: -> dispersion             -0.021207764210 Eh    ::
         :: repulsion energy           0.548883143816 Eh    ::

    * Orbital Energies and Occupations

         #    Occupation            Energy/Eh            Energy/eV
      -------------------------------------------------------------
         1        2.0000           -0.8773573             -23.8741
       ...           ...                  ...                  ...
        25        1.9999           -0.6621941             -18.0192
        26        1.9999           -0.6549334             -17.8216
        27        1.9998           -0.6472221             -17.6118
        28        1.9998           -0.6424818             -17.4828
        29        1.9996           -0.6341651             -17.2565
        30        1.9991           -0.6213515             -16.9078
        31        1.9990           -0.6197229             -16.8635
        32        1.9943           -0.5926116             -16.1258
        33        1.9932           -0.5898552             -16.0508
        34        1.9776           -0.5707084             -15.5298
        35        1.9347           -0.5534399             -15.0599
        36        1.9132           -0.5487690             -14.9328
        37        1.9013           -0.5466307             -14.8746 (HOMO)
        38        0.2525           -0.4691635             -12.7666 (LUMO)
        39        0.0345           -0.4357918             -11.8585
        40        0.0013           -0.3830403             -10.4231
        41        0.0005           -0.3678175             -10.0088
        42        0.0000           -0.2789658              -7.5910
        43                         -0.2014023              -5.4804
        44                         -0.1731114              -4.7106
        45                         -0.1271105              -3.4589
        46                         -0.1132586              -3.0819
        47                         -0.0849021              -2.3103
        48                         -0.0453581              -1.2343
       ...                                ...                  ...
        67                          0.6385358              17.3754
      -------------------------------------------------------------
                  HL-Gap            0.0774672 Eh            2.1080 eV

     #   Z          covCN         q      C6AA      α(0)
     1   6 C        2.767     0.019    27.560     8.598
     2   7 N        1.823    -0.007    22.096     6.965
     3   6 C        2.752     0.108    25.594     8.284
     4   7 N        2.691    -0.099    23.186     7.152
     5   6 C        2.822     0.126    25.222     8.229
     6   6 C        2.905    -0.105    30.644     9.077
     7   6 C        2.768     0.278    22.304     7.734
     8   8 O        0.858    -0.338    20.471     6.066
     9   7 N        2.741    -0.068    22.559     7.054
    10   6 C        3.708    -0.060    21.810     6.675
    11   6 C        2.725     0.320    21.562     7.602
    12   8 O        0.860    -0.370    21.091     6.157
    13   7 N        2.751    -0.069    22.582     7.058
    14   6 C        3.699    -0.079    22.185     6.736
    15   1 H        0.925     0.144     1.436     1.874
    16   1 H        0.925     0.130     1.536     1.938
    17   1 H        0.926     0.091     1.867     2.136
    18   1 H        0.925     0.126     1.563     1.955
    19   1 H        0.925     0.115     1.655     2.011
    20   1 H        0.925     0.102     1.767     2.079
    21   1 H        0.924     0.102     1.767     2.079
    22   1 H        0.924     0.080     1.983     2.202
    23   1 H        0.924     0.079     1.985     2.203
    24   1 H        0.924     0.138     1.476     1.900
    25   1 H        0.860     0.238     0.933     1.513

Wiberg/Mayer (AO) data.
largest (>0.10) Wiberg bond orders for each atom

     #   Z sym  total        # sym  WBO       # sym  WBO       # sym  WBO
 ---------------------------------------------------------------------------
     1   6 C    3.721 --     2 N    1.757    15 H    0.936    16 H    0.925
     2   7 N    3.476 --     1 C    1.757     3 C    1.548     4 N    0.123
     3   6 C    3.872 --     2 N    1.548     4 N    1.269    18 H    0.916
     4   7 N    3.519 --     3 C    1.269     5 C    1.081    25 H    0.889
                             2 N    0.123
     5   6 C    3.926 --     6 C    1.543    13 N    1.165     4 N    1.081
     6   6 C    3.863 --     5 C    1.543     7 C    1.075    17 H    0.960
     7   6 C    3.947 --     8 O    1.691     9 N    1.098     6 C    1.075
     8   8 O    1.982 --     7 C    1.691     9 N    0.127
     9   7 N    3.531 --    11 C    1.141     7 C    1.098    10 C    0.974
                            12 O    0.128     8 O    0.127
    10   6 C    3.898 --     9 N    0.974    19 H    0.965    20 H    0.957
                            21 H    0.956
    11   6 C    3.959 --    12 O    1.673     9 N    1.141    13 N    1.057
    12   8 O    2.014 --    11 C    1.673     9 N    0.128    13 N    0.120
    13   7 N    3.511 --     5 C    1.165    11 C    1.057    14 C    0.983
                            12 O    0.120
    14   6 C    3.928 --    13 N    0.983    23 H    0.963    22 H    0.963
                            24 H    0.949
    15   1 H    0.975 --     1 C    0.936
    16   1 H    0.974 --     1 C    0.925
    17   1 H    0.990 --     6 C    0.960
    18   1 H    0.974 --     3 C    0.916
    19   1 H    0.983 --    10 C    0.965
    20   1 H    0.976 --    10 C    0.957
    21   1 H    0.975 --    10 C    0.956
    22   1 H    0.988 --    14 C    0.963
    23   1 H    0.988 --    14 C    0.963
    24   1 H    0.980 --    14 C    0.949
    25   1 H    0.943 --     4 N    0.889
 ---------------------------------------------------------------------------

molecular dipole:
                 x           y           z       tot (Debye)
 q only:        3.366      -2.059      -0.047
   full:        3.599      -2.303      -0.100      10.863

           -------------------------------------------------
          | TOTAL ENERGY              -42.159256350680 Eh   |
          | GRADIENT NORM               0.001958834476 Eh/α |
          | HOMO-LUMO GAP               2.107991070601 eV   |
           -------------------------------------------------

 * finished run on 2024/06/05 at 19:59:06.795
