   * xtb version 6.6.1 (8d0f1dd) compiled by 'conda@1efc2f54142f' on 2023-08-01
          program call               : xtb xtbopt.xyz --opt crude --input .xc2 --gfn2

   ID    Z sym.   atoms
    1    6 C      1, 3, 5-7, 10, 11, 14
    2    7 N      2, 4, 9, 13
    3    8 O      8, 12
    4    1 H      15-25
########################################################################
[WARNING] Please study the warnings concerning your input carefully
-1- readin_getIntValue: could not parse ''
########################################################################

          :  Hamiltonian                  GFN2-xTB          :
 * total energy  :   -42.1592966 Eh     change        0.1350031E-12 Eh
 * total energy  :   -42.1617112 Eh     change       -0.2414599E-02 Eh
 * total energy  :   -42.1637248 Eh     change       -0.2013676E-02 Eh
 * total energy  :   -42.1617078 Eh     change        0.2017002E-02 Eh
 * total energy  :   -42.1653739 Eh     change       -0.3666101E-02 Eh
 * total energy  :   -42.1658533 Eh     change       -0.4793424E-03 Eh
 * total energy  :   -42.1664831 Eh     change       -0.6298173E-03 Eh
 * total energy  :   -42.1666444 Eh     change       -0.1612952E-03 Eh
   *** GEOMETRY OPTIMIZATION CONVERGED AFTER 8 ITERATIONS ***

 final structure:
================
25
 xtb: 6.6.1 (8d0f1dd)
C            4.23688125665063        0.49501781547357       -0.03172003249022
N            3.41810729743813       -0.42310176918399        0.23770666953422
C            2.73135542739983       -1.47622538876584        0.01744596445253
N            1.39801536621697       -1.60538212007865        0.04807250406916
C            0.42218532948709       -0.60326340949092        0.05810889502963
C            0.71617289408003        0.72160610297487        0.10271534765361
C           -0.32096749972352        1.72969281868594        0.07509607645875
O           -0.10843587113300        2.92019546846572        0.09842801958671
N           -1.61464052702136        1.21837798322500        0.00896854718529
C           -2.72324858515698        2.15585321371642       -0.03149500651037
C           -1.94370812385361       -0.11081729742848       -0.02253874338950
O           -3.08204603714087       -0.49572358158811       -0.07467001271611
N           -0.87382972887721       -1.02874323314465        0.00387355772412
C           -1.23812297658173       -2.43352383452156       -0.03634058274022
H            4.68799971273218        1.05747596153250        0.78307069923960
H            4.49710695854272        0.75572661956473       -1.05779664826376
H            1.71969133303537        1.09271192897051        0.16119341010413
H            3.28497703729092       -2.41224113869872       -0.05847394253987
H           -2.30950185643733        3.16233198133061       -0.01832492149843
H           -3.30987216473785        1.99688828000849       -0.93633376933770
H           -3.37257215812121        2.00096096902362        0.83040170887169
H           -0.90283897969304       -2.95678025249340        0.86071918068879
H           -0.86049726084588       -2.91731941474748       -0.93907386289092
H           -2.32866664011445       -2.47317600066223       -0.06376450988985
H            1.03688731066456       -2.55230316056847        0.01590306956885

          :  Hamiltonian                  GFN2-xTB          :
         :: total energy             -42.166644400755 Eh    ::
         :: gradient norm              0.009251035062 Eh/a0 ::
         :: HOMO-LUMO gap              2.253275296293 eV    ::
         :: SCC energy               -42.720287656390 Eh    ::
         :: -> dispersion             -0.021583989628 Eh    ::
         :: repulsion energy           0.553586088915 Eh    ::

    * Orbital Energies and Occupations

         #    Occupation            Energy/Eh            Energy/eV
      -------------------------------------------------------------
         1        2.0000           -0.8840012             -24.0549
       ...           ...                  ...                  ...
        25        1.9999           -0.6613904             -17.9974
        26        1.9999           -0.6576758             -17.8963
        27        1.9998           -0.6434616             -17.5095
        28        1.9998           -0.6396839             -17.4067
        29        1.9996           -0.6338810             -17.2488
        30        1.9991           -0.6195049             -16.8576
        31        1.9990           -0.6180206             -16.8172
        32        1.9948           -0.5912658             -16.0892
        33        1.9945           -0.5903561             -16.0644
        34        1.9788           -0.5690080             -15.4835
        35        1.9363           -0.5511996             -14.9989
        36        1.9173           -0.5469273             -14.8826
        37        1.9096           -0.5454480             -14.8424 (HOMO)
        38        0.2033           -0.4626417             -12.5891 (LUMO)
        39        0.0663           -0.4437370             -12.0747
        40        0.0016           -0.3844372             -10.4611
        41        0.0005           -0.3653744              -9.9423
        42        0.0000           -0.2755634              -7.4985
        43                         -0.1936771              -5.2702
        44                         -0.1710815              -4.6554
        45                         -0.1195629              -3.2535
        46                         -0.1086645              -2.9569
        47                         -0.0859870              -2.3398
        48                         -0.0402512              -1.0953
       ...                                ...                  ...
        67                          0.6095529              16.5868
      -------------------------------------------------------------
                  HL-Gap            0.0828063 Eh            2.2533 eV

     #   Z          covCN         q      C6AA      α(0)
     1   6 C        2.765     0.017    27.602     8.604
     2   7 N        1.826    -0.007    22.088     6.964
     3   6 C        2.757     0.110    25.545     8.277
     4   7 N        2.694    -0.084    22.880     7.104
     5   6 C        2.833     0.127    25.209     8.228
     6   6 C        2.910    -0.113    30.855     9.108
     7   6 C        2.770     0.276    22.325     7.738
     8   8 O        0.859    -0.346    20.623     6.089
     9   7 N        2.742    -0.072    22.633     7.066
    10   6 C        3.708    -0.060    21.810     6.675
    11   6 C        2.724     0.320    21.565     7.602
    12   8 O        0.860    -0.368    21.058     6.153
    13   7 N        2.748    -0.064    22.472     7.041
    14   6 C        3.698    -0.076    22.133     6.729
    15   1 H        0.925     0.145     1.423     1.865
    16   1 H        0.925     0.134     1.507     1.920
    17   1 H        0.926     0.092     1.859     2.132
    18   1 H        0.925     0.128     1.551     1.947
    19   1 H        0.925     0.115     1.654     2.011
    20   1 H        0.925     0.101     1.780     2.086
    21   1 H        0.925     0.101     1.776     2.084
    22   1 H        0.924     0.079     1.992     2.207
    23   1 H        0.924     0.078     2.003     2.213
    24   1 H        0.924     0.134     1.506     1.919
    25   1 H        0.860     0.233     0.953     1.530

Wiberg/Mayer (AO) data.
largest (>0.10) Wiberg bond orders for each atom

     #   Z sym  total        # sym  WBO       # sym  WBO       # sym  WBO
 ---------------------------------------------------------------------------
     1   6 C    3.728 --     2 N    1.757    15 H    0.935    16 H    0.923
     2   7 N    3.483 --     1 C    1.757     3 C    1.541     4 N    0.125
     3   6 C    3.882 --     2 N    1.541     4 N    1.289    18 H    0.910
     4   7 N    3.540 --     3 C    1.289     5 C    1.079    25 H    0.902
                             2 N    0.125
     5   6 C    3.928 --     6 C    1.530    13 N    1.183     4 N    1.079
     6   6 C    3.871 --     5 C    1.530     7 C    1.095    17 H    0.953
     7   6 C    3.948 --     8 O    1.681     6 C    1.095     9 N    1.088
     8   8 O    1.982 --     7 C    1.681     9 N    0.127
     9   7 N    3.530 --    11 C    1.145     7 C    1.088    10 C    0.975
                            12 O    0.131     8 O    0.127
    10   6 C    3.899 --     9 N    0.975    19 H    0.965    20 H    0.957
                            21 H    0.956
    11   6 C    3.959 --    12 O    1.679     9 N    1.145    13 N    1.047
    12   8 O    2.020 --    11 C    1.679     9 N    0.131    13 N    0.118
    13   7 N    3.521 --     5 C    1.183    11 C    1.047    14 C    0.983
                            12 O    0.118
    14   6 C    3.928 --    13 N    0.983    22 H    0.966    23 H    0.966
                            24 H    0.955
    15   1 H    0.975 --     1 C    0.935
    16   1 H    0.974 --     1 C    0.923
    17   1 H    0.990 --     6 C    0.953
    18   1 H    0.971 --     3 C    0.910
    19   1 H    0.983 --    10 C    0.965
    20   1 H    0.977 --    10 C    0.957
    21   1 H    0.976 --    10 C    0.956
    22   1 H    0.988 --    14 C    0.966
    23   1 H    0.988 --    14 C    0.966
    24   1 H    0.981 --    14 C    0.955
    25   1 H    0.945 --     4 N    0.902
 ---------------------------------------------------------------------------

molecular dipole:
                 x           y           z       tot (Debye)
 q only:        3.429      -2.072      -0.076
   full:        3.713      -2.425      -0.156      11.280

           -------------------------------------------------
          | TOTAL ENERGY              -42.166644400755 Eh   |
          | GRADIENT NORM               0.009251035062 Eh/α |
          | HOMO-LUMO GAP               2.253275296293 eV   |
           -------------------------------------------------

 * finished run on 2024/06/05 at 19:59:07.143
