   * xtb version 6.6.1 (8d0f1dd) compiled by 'conda@1efc2f54142f' on 2023-08-01
          program call               : xtb struc.xyz --opt loose --input .xc1 --gfn2

   ID    Z sym.   atoms
    1    7 N      1, 17
    2    6 C      2-6, 8, 9, 11-16, 18-23, 25, 26, 28-33
    3    8 O      7, 10, 24, 27
    4    1 H      34-72
constraining bond 4 6 to    5.0000000 Å, actual value:    2.4244446 Å

          :  Hamiltonian                  GFN2-xTB          :
 * total energy  :   -98.2197008 Eh     change       -0.4035485E-08 Eh
 * total energy  :   -98.4693409 Eh     change       -0.2496401E+00 Eh
 * total energy  :   -98.6182753 Eh     change       -0.1489344E+00 Eh
 * total energy  :   -98.7054213 Eh     change       -0.8714605E-01 Eh
 * total energy  :   -98.7713990 Eh     change       -0.6597766E-01 Eh
 * total energy  :   -98.8252998 Eh     change       -0.5390081E-01 Eh
 * total energy  :   -98.8701365 Eh     change       -0.4483671E-01 Eh
 * total energy  :   -98.8971714 Eh     change       -0.2703490E-01 Eh
 * total energy  :   -98.9203080 Eh     change       -0.2313661E-01 Eh
 * total energy  :   -98.9424702 Eh     change       -0.2216212E-01 Eh
 * total energy  :   -99.1977194 Eh     change       -0.1763627E-03 Eh
 * total energy  :   -99.1978783 Eh     change       -0.1589111E-03 Eh
 * total energy  :   -99.1980279 Eh     change       -0.1496228E-03 Eh
 * total energy  :   -99.1981592 Eh     change       -0.1313650E-03 Eh
 * total energy  :   -99.1982660 Eh     change       -0.1067783E-03 Eh
 * total energy  :   -99.1983329 Eh     change       -0.6683357E-04 Eh
 * total energy  :   -99.1983870 Eh     change       -0.5411206E-04 Eh
 * total energy  :   -99.1984502 Eh     change       -0.6327127E-04 Eh
 * total energy  :   -99.1984834 Eh     change       -0.3311372E-04 Eh
   *** GEOMETRY OPTIMIZATION CONVERGED AFTER 126 ITERATIONS ***

 final structure:
================
72
 xtb: 6.6.1 (8d0f1dd)
N           -1.43652661344125        1.78736523658116        3.33255333105374
C           -1.41485274444659        1.77230856127869        1.99145260985245
C           -2.64001313853375        2.40663053623018        1.15068633704727
C           -2.42057295969921        0.98085447675736        1.23092691289502
C           -2.68425469861949       -3.40455446676494       -0.72482209068880
C           -3.98163786249642       -3.16235154076066       -0.73581960375565
O           -5.01535166134942       -4.01665888414625       -0.97787971609992
C           -4.68871843266092       -5.34874852374291       -1.28090915123222
C           -4.48129141599428       -1.75398265989105       -0.47701868658118
O           -5.73124806661305       -1.70360493849862       -0.98684339716852
C           -6.60043685396083       -0.61865694701544       -0.77777018948204
C           -3.92363996477849       -0.61344077484583        0.07067881254677
C           -2.75623089581815       -0.27539830136482        0.85914544092606
C           -2.21534682822275        3.16013564110084       -0.10569382667075
C           -1.60756511692080        2.27618492728987       -1.21155993244648
C           -0.23309942083083        1.83640604027843       -0.89290434949723
N            0.25734765962022        0.62141017619120       -1.06197708248887
C            1.61949158428918        0.32539624567383       -0.68366970729041
C            2.54685471097828        0.13118460388086       -1.89839013945236
C            3.97886158958035        0.10801544108439       -1.43777584759492
C            4.80435087988615        1.20223806363631       -1.63650680894455
C            6.11418502429022        1.19757569446037       -1.18143793874433
C            6.62183795112249        0.09886686930044       -0.50344733233883
O            7.86798973485944       -0.01461636664479       -0.01128000562479
C            8.77760045877430        1.04751874496073       -0.18666752709418
C            5.77940551261241       -1.02848631323375       -0.28838611749288
O            6.35161380644636       -2.04643148238939        0.38284484852115
C            5.60118425836909       -3.20559104086256        0.65574923115957
C            4.47697412043034       -1.00417071496045       -0.76121538389516
C           -0.50059215778160       -0.44604832314042       -1.67075212979171
C           -3.76006133569050        3.06968407346038        1.94636412959765
C           -4.40491496413737        2.10925196555418        2.93998613615850
C           -3.24273318688947        4.30980615867777        2.67412508116309
H           -2.08677186177860       -4.27212768988272       -0.90029716292284
H           -4.09397940102810       -5.41589505547446       -2.19893161329222
H           -5.63809436153690       -5.86187658548304       -1.42303945596834
H           -4.13549845059765       -5.82045273493890       -0.46062376014934
H           -6.29702947333074        0.26494413221051       -1.34999197778107
H           -7.57004503862872       -0.95760790132464       -1.13971889268030
H           -6.67736991062425       -0.36152560054762        0.28339702835404
H           -4.54908520918939        0.26291149269698       -0.06757449122073
H           -2.14646272559925       -1.09835724089393        1.21505934474131
H           -3.10220108827929        3.64723341762414       -0.51658780885592
H           -1.50759065543630        3.95037976387607        0.15779764707083
H           -2.26500459092542        1.43133780239018       -1.41114031921555
H           -1.56613293428520        2.89024255617198       -2.12041817517116
H           -0.46019609134422        1.92334645993955        1.46682128861337
H            0.45389117446306        2.58853203215587       -0.53269324307633
H            1.62317709966217       -0.58017463194949       -0.07060828754191
H            2.00872089805687        1.14615388803971       -0.07792666625096
H            2.39933902170793        0.95892872461596       -2.59354437298762
H            2.30126592202858       -0.79851544661003       -2.41341402478784
H            4.43466611127259        2.07005088927535       -2.16108448960687
H            6.73420159705342        2.06039828477553       -1.36097936159225
H            8.42234174266395        1.96299803797740        0.29592573106930
H            8.96588739029753        1.24191328045201       -1.24670187091028
H            9.70024442180453        0.72289429817040        0.29040489380519
H            6.27401615444368       -3.86705010173500        1.19815253205792
H            4.73178995245247       -2.98180523983958        1.28243367780788
H            5.27369123932712       -3.69870333716464       -0.26464636977723
H            3.83708579127601       -1.86022668209097       -0.61505276791334
H           -0.74121751052628       -0.20671896530256       -2.70813418216497
H           -1.43048939663059       -0.62746562848112       -1.12767036335910
H            0.08491217691780       -1.36049488439556       -1.65069392229781
H           -4.52184244232733        3.38541815006168        1.22056250106016
H           -3.65641956628113        1.76116080103248        3.64781081832894
H           -4.83446478197105        1.24867956788798        2.43298785925630
H           -5.19392125660640        2.61979126714024        3.48581116860541
H           -2.49510593783975        4.00856822169027        3.40518646827408
H           -2.80117782940360        5.02477011529333        1.98395493034879
H           -4.05738056229437        4.80049331284382        3.19927580584679
H           -0.56984299241560        2.06389857411763        3.77537082036736

          :  Hamiltonian                  GFN2-xTB          :
         :: total energy             -99.198483359044 Eh    ::
         :: gradient norm              0.002007921709 Eh/a0 ::
         :: HOMO-LUMO gap              0.117874337926 eV    ::
         :: SCC energy              -100.551080590221 Eh    ::
         :: -> dispersion             -0.070934090722 Eh    ::
         :: repulsion energy           1.347333699271 Eh    ::

    * Orbital Energies and Occupations

         #    Occupation            Energy/Eh            Energy/eV
      -------------------------------------------------------------
         1        2.0000           -0.8102481             -22.0480
       ...           ...                  ...                  ...
        78        1.9980           -0.5302677             -14.4293
        79        1.9980           -0.5296944             -14.4137
        80        1.9973           -0.5252022             -14.2915
        81        1.9967           -0.5219828             -14.2039
        82        1.9961           -0.5196103             -14.1393
        83        1.9950           -0.5155407             -14.0286
        84        1.9914           -0.5069257             -13.7942
        85        1.9760           -0.4905480             -13.3485
        86        1.9322           -0.4737664             -12.8918
        87        1.8813           -0.4644717             -12.6389
        88        1.8297           -0.4583155             -12.4714
        89        1.7582           -0.4521312             -12.3031
        90        1.1929           -0.4269023             -11.6166 (HOMO)
        91        1.0585           -0.4225705             -11.4987 (LUMO)
        92        0.3751           -0.3975005             -10.8165
        93        0.0308           -0.3549030              -9.6574
        94        0.0025           -0.3150690              -8.5735
        95        0.0021           -0.3120705              -8.4919
        96        0.0003           -0.2810013              -7.6464
        97        0.0000           -0.2246623              -6.1134
        98        0.0000           -0.1898576              -5.1663
        99        0.0000           -0.1713223              -4.6619
       100                         -0.1379482              -3.7538
       101                         -0.0809669              -2.2032
       ...                                ...                  ...
       171                          0.6300781              17.1453
      -------------------------------------------------------------
                  HL-Gap            0.0043318 Eh            0.1179 eV

     #   Z          covCN         q      C6AA      α(0)
     1   7 N        1.773    -0.331    29.389     8.028
     2   6 C        3.772     0.090    19.115     6.230
     3   6 C        3.897     0.015    20.263     6.399
     4   6 C        2.948     0.001    28.006     8.680
     5   6 C        1.916    -0.173    36.074     9.700
     6   6 C        2.841     0.145    24.839     8.168
     7   8 O        1.705    -0.233    17.867     5.707
     8   6 C        3.650     0.032    20.342     6.479
     9   6 C        2.831     0.138    24.981     8.190
    10   8 O        1.709    -0.214    17.553     5.657
    11   6 C        3.635     0.025    20.540     6.522
    12   6 C        2.891    -0.084    30.100     8.995
    13   6 C        2.885    -0.036    28.892     8.812
    14   6 C        3.803    -0.064    21.722     6.635
    15   6 C        3.802    -0.070    21.845     6.654
    16   6 C        2.846     0.008    27.841     8.648
    17   7 N        2.728     0.026    20.794     6.773
    18   6 C        3.758    -0.019    20.960     6.527
    19   6 C        3.807    -0.071    21.856     6.655
    20   6 C        2.969     0.001    28.010     8.681
    21   6 C        2.922    -0.048    29.185     8.859
    22   6 C        2.914    -0.067    29.670     8.932
    23   6 C        2.865     0.134    25.064     8.206
    24   8 O        1.706    -0.219    17.643     5.671
    25   6 C        3.645     0.024    20.502     6.508
    26   6 C        2.862     0.134    25.073     8.208
    27   8 O        1.706    -0.223    17.694     5.679
    28   6 C        3.644     0.026    20.468     6.503
    29   6 C        2.919    -0.080    30.000     8.982
    30   6 C        3.700    -0.080    22.205     6.739
    31   6 C        3.851    -0.003    20.603     6.456
    32   6 C        3.756    -0.120    22.862     6.817
    33   6 C        3.756    -0.113    22.721     6.796
    34   1 H        0.927     0.062     2.171     2.304
    35   1 H        0.924     0.048     2.344     2.394
    36   1 H        0.925     0.076     2.020     2.223
    37   1 H        0.924     0.049     2.328     2.386
    38   1 H        0.924     0.050     2.316     2.380
    39   1 H        0.925     0.085     1.925     2.170
    40   1 H        0.924     0.056     2.241     2.341
    41   1 H        0.925     0.054     2.267     2.355
    42   1 H        0.925     0.053     2.285     2.364
    43   1 H        0.924     0.066     2.133     2.284
    44   1 H        0.924     0.057     2.232     2.336
    45   1 H        0.925     0.071     2.072     2.251
    46   1 H        0.924     0.084     1.935     2.175
    47   1 H        0.923     0.003     3.005     2.711
    48   1 H        0.926     0.072     2.065     2.247
    49   1 H        0.924     0.074     2.045     2.236
    50   1 H        0.924     0.068     2.111     2.272
    51   1 H        0.924     0.056     2.241     2.341
    52   1 H        0.924     0.059     2.210     2.325
    53   1 H        0.926     0.048     2.344     2.394
    54   1 H        0.926     0.060     2.199     2.319
    55   1 H        0.924     0.055     2.256     2.349
    56   1 H        0.924     0.057     2.232     2.336
    57   1 H        0.925     0.083     1.944     2.181
    58   1 H        0.925     0.083     1.949     2.183
    59   1 H        0.924     0.050     2.324     2.384
    60   1 H        0.924     0.053     2.279     2.361
    61   1 H        0.926     0.047     2.352     2.398
    62   1 H        0.924     0.081     1.970     2.195
    63   1 H        0.924     0.091     1.867     2.137
    64   1 H        0.925     0.087     1.907     2.159
    65   1 H        0.923     0.044     2.403     2.424
    66   1 H        0.925     0.080     1.980     2.201
    67   1 H        0.925     0.037     2.483     2.464
    68   1 H        0.925     0.052     2.295     2.369
    69   1 H        0.925     0.060     2.197     2.318
    70   1 H        0.925     0.036     2.497     2.471
    71   1 H        0.925     0.054     2.266     2.354
    72   1 H        0.860     0.143     1.447     1.885

Wiberg/Mayer (AO) data.
largest (>0.10) Wiberg bond orders for each atom

     #   Z sym  total        # sym  WBO       # sym  WBO       # sym  WBO
 ---------------------------------------------------------------------------
     1   7 N    2.358 --     2 C    1.310    72 H    0.950
     2   6 C    3.859 --     1 N    1.310    47 H    0.916     4 C    0.867
                             3 C    0.704
     3   6 C    3.761 --     4 C    1.016    14 C    0.979    31 C    0.967
                             2 C    0.704
     4   6 C    3.776 --    13 C    1.699     3 C    1.016     2 C    0.867
     5   6 C    2.904 --     6 C    1.751    34 H    0.950     7 O    0.102
     6   6 C    3.880 --     5 C    1.751     7 O    1.044     9 C    1.006
     7   8 O    2.174 --     6 C    1.044     8 C    0.983     5 C    0.102
     8   6 C    3.932 --     7 O    0.983    36 H    0.976    35 H    0.973
                            37 H    0.973
     9   6 C    3.834 --    12 C    1.533    10 O    1.125     6 C    1.006
    10   8 O    2.285 --     9 C    1.125    11 C    0.977
    11   6 C    3.931 --    10 O    0.977    39 H    0.973    40 H    0.971
                            38 H    0.968
    12   6 C    3.855 --     9 C    1.533    13 C    1.180    41 H    0.949
    13   6 C    3.947 --     4 C    1.699    12 C    1.180    42 H    0.952
    14   6 C    3.960 --    15 C    0.980     3 C    0.979    44 H    0.965
                            43 H    0.962
    15   6 C    3.987 --    16 C    1.062    14 C    0.980    45 H    0.963
                            46 H    0.927
    16   6 C    3.603 --    17 N    1.438    15 C    1.062    48 H    0.955
    17   7 N    3.501 --    16 C    1.438    30 C    0.996    18 C    0.987
    18   6 C    3.954 --    17 N    0.987    19 C    0.970    50 H    0.968
                            49 H    0.959
    19   6 C    3.978 --    20 C    1.007    51 H    0.974    18 C    0.970
                            52 H    0.968
    20   6 C    3.941 --    21 C    1.411    29 C    1.377    19 C    1.007
    21   6 C    3.947 --    22 C    1.414    20 C    1.411    53 H    0.967
    22   6 C    3.957 --    21 C    1.414    23 C    1.384    54 H    0.963
    23   6 C    3.892 --    22 C    1.384    26 C    1.215    24 O    1.113
    24   8 O    2.255 --    23 C    1.113    25 C    0.975
    25   6 C    3.927 --    57 H    0.977    24 O    0.975    55 H    0.972
                            56 H    0.972
    26   6 C    3.896 --    29 C    1.397    23 C    1.215    27 O    1.106
    27   8 O    2.255 --    26 C    1.106    28 C    0.978
    28   6 C    3.931 --    27 O    0.978    58 H    0.977    59 H    0.973
                            60 H    0.973
    29   6 C    3.957 --    26 C    1.397    20 C    1.377    61 H    0.962
    30   6 C    3.949 --    17 N    0.996    64 H    0.977    62 H    0.966
                            63 H    0.950
    31   6 C    3.965 --    32 C    1.008    33 C    0.998     3 C    0.967
                            65 H    0.946
    32   6 C    3.974 --    31 C    1.008    67 H    0.983    68 H    0.981
                            66 H    0.966
    33   6 C    3.973 --    31 C    0.998    70 H    0.984    71 H    0.981
                            69 H    0.974
    34   1 H    0.969 --     5 C    0.950
    35   1 H    0.991 --     8 C    0.973
    36   1 H    0.992 --     8 C    0.976
    37   1 H    0.991 --     8 C    0.973
    38   1 H    0.992 --    11 C    0.968
    39   1 H    0.991 --    11 C    0.973
    40   1 H    0.993 --    11 C    0.971
    41   1 H    0.994 --    12 C    0.949
    42   1 H    0.993 --    13 C    0.952
    43   1 H    0.986 --    14 C    0.962
    44   1 H    0.991 --    14 C    0.965
    45   1 H    0.994 --    15 C    0.963
    46   1 H    0.969 --    15 C    0.927
    47   1 H    0.972 --     2 C    0.916
    48   1 H    0.994 --    16 C    0.955
    49   1 H    0.988 --    18 C    0.959
    50   1 H    0.995 --    18 C    0.968
    51   1 H    0.996 --    19 C    0.974
    52   1 H    0.994 --    19 C    0.968
    53   1 H    0.997 --    21 C    0.967
    54   1 H    0.995 --    22 C    0.963
    55   1 H    0.991 --    25 C    0.972
    56   1 H    0.991 --    25 C    0.972
    57   1 H    0.992 --    25 C    0.977
    58   1 H    0.992 --    28 C    0.977
    59   1 H    0.993 --    28 C    0.973
    60   1 H    0.992 --    28 C    0.973
    61   1 H    0.996 --    29 C    0.962
    62   1 H    0.985 --    30 C    0.966
    63   1 H    0.984 --    30 C    0.950
    64   1 H    0.992 --    30 C    0.977
    65   1 H    0.979 --    31 C    0.946
    66   1 H    0.988 --    32 C    0.966
    67   1 H    0.996 --    32 C    0.983
    68   1 H    0.994 --    32 C    0.981
    69   1 H    0.993 --    33 C    0.974
    70   1 H    0.997 --    33 C    0.984
    71   1 H    0.994 --    33 C    0.981
    72   1 H    0.970 --     1 N    0.950
 ---------------------------------------------------------------------------

molecular dipole:
                 x           y           z       tot (Debye)
 q only:        0.429       0.840      -1.631
   full:        0.639       0.957      -1.906       5.659

           -------------------------------------------------
          | TOTAL ENERGY              -99.198483359044 Eh   |
          | GRADIENT NORM               0.002007921709 Eh/α |
          | HOMO-LUMO GAP               0.117874337926 eV   |
           -------------------------------------------------

 * finished run on 2024/04/06 at 11:12:25.288
