   * xtb version 6.6.1 (8d0f1dd) compiled by 'conda@1efc2f54142f' on 2023-08-01
          program call               : xtb xtbopt.xyz --opt crude --input .xc2 --gfn2

   ID    Z sym.   atoms
    1    7 N      1, 17
    2    6 C      2-6, 8, 9, 11-16, 18-23, 25, 26, 28-33
    3    8 O      7, 10, 24, 27
    4    1 H      34-72
########################################################################
[WARNING] Please study the warnings concerning your input carefully
-1- readin_getIntValue: could not parse ''
########################################################################

          :  Hamiltonian                  GFN2-xTB          :
 * total energy  :   -99.2027894 Eh     change       -0.1029719E-09 Eh
 * total energy  :   -99.2079538 Eh     change       -0.5164406E-02 Eh
 * total energy  :   -99.2116210 Eh     change       -0.3667240E-02 Eh
 * total energy  :   -99.2137393 Eh     change       -0.2118286E-02 Eh
 * total energy  :   -99.2155083 Eh     change       -0.1768945E-02 Eh
 * total energy  :   -99.2168738 Eh     change       -0.1365485E-02 Eh
 * total energy  :   -99.2179362 Eh     change       -0.1062469E-02 Eh
 * total energy  :   -99.2186845 Eh     change       -0.7482351E-03 Eh
 * total energy  :   -99.2191802 Eh     change       -0.4957928E-03 Eh
   *** GEOMETRY OPTIMIZATION CONVERGED AFTER 9 ITERATIONS ***

 final structure:
================
72
 xtb: 6.6.1 (8d0f1dd)
N           -1.43687176150810        1.52133839122869        3.25466206185491
C           -1.42455041882927        1.57799948829247        1.91464344119031
C           -2.64271917602288        2.28211910411519        1.11742838067870
C           -2.46238560870434        0.84447101501398        1.13975517256427
C           -2.68387984163036       -2.83736799808370       -0.41027324179537
C           -3.99999850665419       -2.79246837135828       -0.56600277373945
O           -4.85420059683823       -3.82957873428895       -0.82730305129531
C           -4.30693377535443       -5.10025897354960       -1.08510417255145
C           -4.73708266593264       -1.51575785385398       -0.50390995755745
O           -5.95239337214407       -1.60301343543186       -1.05838654037075
C           -6.86283138517467       -0.53514400219590       -0.91997802349264
C           -4.22028630347796       -0.38328191870493        0.05042686017916
C           -2.99288473263522       -0.31860183930811        0.77804522906718
C           -2.21590968782381        3.06521767753342       -0.11861586284254
C           -1.59988217117797        2.20406346900196       -1.23851050004166
C           -0.22402423692926        1.77322936423194       -0.91687824377933
N            0.27295356045581        0.56037780250830       -1.07283038096358
C            1.63861492585493        0.28397556252560       -0.69265484728870
C            2.57044103193902        0.12719746395641       -1.90900413735415
C            4.00080772448745        0.10807193049255       -1.44531581944715
C            4.82298285983773        1.20702786898815       -1.62964374142799
C            6.13169808564678        1.19931776809120       -1.17171068236688
C            6.64100129346218        0.09407920880247       -0.50519092242379
O            7.88822688208657       -0.02074412013272       -0.01572053773964
C            8.79673106471988        1.04221978197132       -0.19221234070580
C            5.80025706001344       -1.03640955617601       -0.30163126912005
O            6.36809910569791       -2.06202243084599        0.36172943345145
C            5.61030697508525       -3.22012325093551        0.61928807258984
C            4.49942685859677       -1.00917482159455       -0.77823578054836
C           -0.47323971577937       -0.52096197800051       -1.66979353629443
C           -3.75187183041750        2.93747330984010        1.93459127882005
C           -4.37569072397926        1.97983294084787        2.94453749758755
C           -3.22927492177343        4.18422254251824        2.64645949570567
H           -2.00968638251286       -3.67046972354331       -0.39852705041066
H           -3.64104044349622       -5.07821570698064       -1.95482546161961
H           -5.15888971851975       -5.74876092901897       -1.29475360559300
H           -3.75557856815243       -5.48649196885426       -0.21855717501033
H           -6.55052899686023        0.33510108243262       -1.50557697822393
H           -7.81153763112155       -0.90495693812292       -1.30439447359670
H           -6.97934233450785       -0.24820961303695        0.12941817613866
H           -4.77609489577542        0.53968447426204       -0.01346326160152
H           -2.51419713607544       -1.26828184196987        1.00150877294813
H           -3.10610648905320        3.55189534509439       -0.52261783303665
H           -1.51371562117014        3.85554022716301        0.15830759441369
H           -2.24916656679430        1.35684365001549       -1.45382255990458
H           -1.55741865752679        2.83467941321520       -2.13562069179298
H           -0.47386473687139        1.74485906147991        1.38949899341451
H            0.45769381629756        2.53338021494040       -0.56267357692127
H            1.65761945559358       -0.62935693500161       -0.09198703974202
H            2.01144927014796        1.10336385323486       -0.07454061170578
H            2.41473549005606        0.96861019633124       -2.58578301005205
H            2.33578322582008       -0.79340840920983       -2.44529703712090
H            4.45208776821572        2.07980199872713       -2.14496518339840
H            6.74986964304130        2.06569293102922       -1.33979024539825
H            8.44730028340694        1.95394151411329        0.30175131357984
H            8.97319343134383        1.24517480824057       -1.25269234678833
H            9.72449448280199        0.71352728909885        0.27187857438592
H            6.27551636229647       -3.89074064173222        1.15948982334028
H            4.73807700329461       -2.99737455947050        1.24243272779679
H            5.28588885996149       -3.70242198734859       -0.30795629086201
H            3.85985485336194       -1.86714687526787       -0.64331586421873
H           -0.76866788290906       -0.26965737684708       -2.69014588716340
H           -1.37333214827300       -0.75858815514321       -1.09207660144833
H            0.14944887152903       -1.41096868989654       -1.69762357831822
H           -4.52902146730194        3.24494894399373        1.22101021231143
H           -3.61147402443492        1.62920971803876        3.63435687345865
H           -4.81967779172233        1.11868751442795        2.45214373923086
H           -5.15024200894808        2.49422269180024        3.50745378372829
H           -2.46740641724128        3.89403450163530        3.36653731149960
H           -2.80419834706731        4.89646482595378        1.94346816548216
H           -4.03789678773314        4.67455585178181        3.18082940544589
H           -0.56204816127822        1.74764436139742        3.70952517883974

          :  Hamiltonian                  GFN2-xTB          :
         :: total energy             -99.219180252824 Eh    ::
         :: gradient norm              0.007525349010 Eh/a0 ::
         :: HOMO-LUMO gap              0.132368052531 eV    ::
         :: SCC energy              -100.585058028487 Eh    ::
         :: -> dispersion             -0.071968844262 Eh    ::
         :: repulsion energy           1.364833200820 Eh    ::

    * Orbital Energies and Occupations

         #    Occupation            Energy/Eh            Energy/eV
      -------------------------------------------------------------
         1        2.0000           -0.8121963             -22.1010
       ...           ...                  ...                  ...
        78        1.9981           -0.5314179             -14.4606
        79        1.9979           -0.5298988             -14.4193
        80        1.9973           -0.5256922             -14.3048
        81        1.9967           -0.5223862             -14.2149
        82        1.9960           -0.5196320             -14.1399
        83        1.9948           -0.5153336             -14.0229
        84        1.9908           -0.5063629             -13.7788
        85        1.9759           -0.4909449             -13.3593
        86        1.9364           -0.4752172             -12.9313
        87        1.8750           -0.4640199             -12.6266
        88        1.8297           -0.4587336             -12.4828
        89        1.7635           -0.4529488             -12.3254
        90        1.2104           -0.4279015             -11.6438 (HOMO)
        91        1.0599           -0.4230371             -11.5114 (LUMO)
        92        0.3613           -0.3971993             -10.8083
        93        0.0233           -0.3508445              -9.5470
        94        0.0025           -0.3154380              -8.5835
        95        0.0021           -0.3123753              -8.5002
        96        0.0002           -0.2782119              -7.5705
        97        0.0000           -0.2165024              -5.8913
        98        0.0000           -0.1901058              -5.1730
        99        0.0000           -0.1704871              -4.6392
       100                         -0.1375533              -3.7430
       101                         -0.0705578              -1.9200
       ...                                ...                  ...
       171                          0.6797962              18.4982
      -------------------------------------------------------------
                  HL-Gap            0.0048644 Eh            0.1324 eV

     #   Z          covCN         q      C6AA      α(0)
     1   7 N        1.773    -0.330    29.389     8.028
     2   6 C        3.772     0.090    19.120     6.231
     3   6 C        3.897     0.012    20.315     6.407
     4   6 C        2.958     0.001    28.014     8.681
     5   6 C        1.917    -0.181    36.324     9.733
     6   6 C        2.838     0.139    24.968     8.189
     7   8 O        1.705    -0.242    18.009     5.730
     8   6 C        3.642     0.033    20.357     6.487
     9   6 C        2.852     0.144    24.854     8.171
    10   8 O        1.706    -0.210    17.496     5.647
    11   6 C        3.645     0.023    20.524     6.511
    12   6 C        2.906    -0.084    30.105     8.997
    13   6 C        2.892    -0.036    28.897     8.813
    14   6 C        3.804    -0.064    21.719     6.635
    15   6 C        3.802    -0.071    21.852     6.655
    16   6 C        2.847     0.009    27.811     8.643
    17   7 N        2.728     0.028    20.767     6.768
    18   6 C        3.759    -0.019    20.964     6.527
    19   6 C        3.807    -0.071    21.852     6.655
    20   6 C        2.970     0.001    28.011     8.681
    21   6 C        2.922    -0.048    29.183     8.859
    22   6 C        2.914    -0.067    29.668     8.932
    23   6 C        2.865     0.134    25.063     8.206
    24   8 O        1.706    -0.219    17.643     5.671
    25   6 C        3.646     0.024    20.502     6.507
    26   6 C        2.863     0.134    25.072     8.207
    27   8 O        1.706    -0.223    17.694     5.679
    28   6 C        3.645     0.026    20.465     6.502
    29   6 C        2.920    -0.080    30.006     8.983
    30   6 C        3.699    -0.081    22.227     6.743
    31   6 C        3.851    -0.003    20.606     6.456
    32   6 C        3.756    -0.122    22.895     6.822
    33   6 C        3.757    -0.113    22.717     6.796
    34   1 H        0.926     0.055     2.258     2.350
    35   1 H        0.924     0.046     2.365     2.405
    36   1 H        0.924     0.076     2.022     2.224
    37   1 H        0.924     0.049     2.338     2.391
    38   1 H        0.924     0.053     2.287     2.365
    39   1 H        0.925     0.085     1.932     2.174
    40   1 H        0.924     0.057     2.229     2.335
    41   1 H        0.926     0.056     2.244     2.343
    42   1 H        0.925     0.072     2.059     2.244
    43   1 H        0.924     0.066     2.130     2.282
    44   1 H        0.924     0.057     2.233     2.337
    45   1 H        0.925     0.071     2.074     2.252
    46   1 H        0.924     0.084     1.936     2.176
    47   1 H        0.923     0.006     2.963     2.692
    48   1 H        0.926     0.072     2.061     2.245
    49   1 H        0.924     0.074     2.041     2.234
    50   1 H        0.924     0.067     2.115     2.274
    51   1 H        0.924     0.056     2.243     2.342
    52   1 H        0.924     0.059     2.213     2.327
    53   1 H        0.926     0.048     2.342     2.393
    54   1 H        0.926     0.060     2.197     2.318
    55   1 H        0.924     0.055     2.253     2.348
    56   1 H        0.924     0.057     2.232     2.336
    57   1 H        0.925     0.083     1.944     2.180
    58   1 H        0.925     0.083     1.948     2.183
    59   1 H        0.924     0.049     2.327     2.385
    60   1 H        0.924     0.053     2.280     2.362
    61   1 H        0.926     0.047     2.355     2.400
    62   1 H        0.924     0.080     1.979     2.200
    63   1 H        0.924     0.095     1.835     2.118
    64   1 H        0.925     0.086     1.916     2.164
    65   1 H        0.923     0.043     2.412     2.429
    66   1 H        0.925     0.081     1.971     2.195
    67   1 H        0.925     0.039     2.458     2.452
    68   1 H        0.925     0.052     2.296     2.369
    69   1 H        0.925     0.057     2.230     2.335
    70   1 H        0.925     0.037     2.495     2.470
    71   1 H        0.925     0.054     2.267     2.354
    72   1 H        0.860     0.144     1.446     1.883

Wiberg/Mayer (AO) data.
largest (>0.10) Wiberg bond orders for each atom

     #   Z sym  total        # sym  WBO       # sym  WBO       # sym  WBO
 ---------------------------------------------------------------------------
     1   7 N    2.360 --     2 C    1.309    72 H    0.949
     2   6 C    3.861 --     1 N    1.309    47 H    0.915     4 C    0.870
                             3 C    0.703
     3   6 C    3.751 --     4 C    1.004    14 C    0.982    31 C    0.968
                             2 C    0.703
     4   6 C    3.777 --    13 C    1.711     3 C    1.004     2 C    0.870
     5   6 C    2.940 --     6 C    1.722    34 H    0.949
     6   6 C    3.877 --     5 C    1.722     9 C    1.037     7 O    1.036
     7   8 O    2.166 --     6 C    1.036     8 C    0.984
     8   6 C    3.933 --     7 O    0.984    36 H    0.976    35 H    0.974
                            37 H    0.973
     9   6 C    3.861 --    12 C    1.529    10 O    1.133     6 C    1.037
    10   8 O    2.287 --     9 C    1.133    11 C    0.973
    11   6 C    3.928 --    39 H    0.976    10 O    0.973    40 H    0.973
                            38 H    0.971
    12   6 C    3.862 --     9 C    1.529    13 C    1.178    41 H    0.954
    13   6 C    3.919 --     4 C    1.711    12 C    1.178    42 H    0.909
    14   6 C    3.961 --     3 C    0.982    15 C    0.978    44 H    0.965
                            43 H    0.962
    15   6 C    3.987 --    16 C    1.062    14 C    0.978    45 H    0.964
                            46 H    0.928
    16   6 C    3.613 --    17 N    1.440    15 C    1.062    48 H    0.955
    17   7 N    3.507 --    16 C    1.440    30 C    0.996    18 C    0.987
    18   6 C    3.954 --    17 N    0.987    19 C    0.970    50 H    0.968
                            49 H    0.960
    19   6 C    3.978 --    20 C    1.007    51 H    0.974    18 C    0.970
                            52 H    0.967
    20   6 C    3.941 --    21 C    1.411    29 C    1.377    19 C    1.007
    21   6 C    3.947 --    22 C    1.414    20 C    1.411    53 H    0.967
    22   6 C    3.957 --    21 C    1.414    23 C    1.383    54 H    0.963
    23   6 C    3.892 --    22 C    1.383    26 C    1.215    24 O    1.113
    24   8 O    2.255 --    23 C    1.113    25 C    0.975
    25   6 C    3.927 --    57 H    0.977    24 O    0.975    55 H    0.972
                            56 H    0.972
    26   6 C    3.896 --    29 C    1.397    23 C    1.215    27 O    1.106
    27   8 O    2.255 --    26 C    1.106    28 C    0.978
    28   6 C    3.931 --    27 O    0.978    58 H    0.977    59 H    0.973
                            60 H    0.973
    29   6 C    3.958 --    26 C    1.397    20 C    1.377    61 H    0.962
    30   6 C    3.945 --    17 N    0.996    64 H    0.976    62 H    0.967
                            63 H    0.945
    31   6 C    3.967 --    32 C    1.009    33 C    0.998     3 C    0.968
                            65 H    0.945
    32   6 C    3.971 --    31 C    1.009    67 H    0.982    68 H    0.981
                            66 H    0.963
    33   6 C    3.975 --    31 C    0.998    70 H    0.984    71 H    0.981
                            69 H    0.978
    34   1 H    0.968 --     5 C    0.949
    35   1 H    0.991 --     8 C    0.974
    36   1 H    0.992 --     8 C    0.976
    37   1 H    0.991 --     8 C    0.973
    38   1 H    0.993 --    11 C    0.971
    39   1 H    0.992 --    11 C    0.976
    40   1 H    0.993 --    11 C    0.973
    41   1 H    0.992 --    12 C    0.954
    42   1 H    0.989 --    13 C    0.909
    43   1 H    0.985 --    14 C    0.962
    44   1 H    0.991 --    14 C    0.965
    45   1 H    0.994 --    15 C    0.964
    46   1 H    0.970 --    15 C    0.928
    47   1 H    0.972 --     2 C    0.915
    48   1 H    0.994 --    16 C    0.955
    49   1 H    0.988 --    18 C    0.960
    50   1 H    0.995 --    18 C    0.968
    51   1 H    0.996 --    19 C    0.974
    52   1 H    0.994 --    19 C    0.967
    53   1 H    0.997 --    21 C    0.967
    54   1 H    0.995 --    22 C    0.963
    55   1 H    0.991 --    25 C    0.972
    56   1 H    0.991 --    25 C    0.972
    57   1 H    0.992 --    25 C    0.977
    58   1 H    0.992 --    28 C    0.977
    59   1 H    0.993 --    28 C    0.973
    60   1 H    0.992 --    28 C    0.973
    61   1 H    0.996 --    29 C    0.962
    62   1 H    0.985 --    30 C    0.967
    63   1 H    0.983 --    30 C    0.945
    64   1 H    0.992 --    30 C    0.976
    65   1 H    0.979 --    31 C    0.945
    66   1 H    0.987 --    32 C    0.963
    67   1 H    0.996 --    32 C    0.982
    68   1 H    0.994 --    32 C    0.981
    69   1 H    0.994 --    33 C    0.978
    70   1 H    0.997 --    33 C    0.984
    71   1 H    0.994 --    33 C    0.981
    72   1 H    0.969 --     1 N    0.949
 ---------------------------------------------------------------------------

molecular dipole:
                 x           y           z       tot (Debye)
 q only:        0.489       0.928      -1.631
   full:        0.707       1.004      -1.890       5.728

           -------------------------------------------------
          | TOTAL ENERGY              -99.219180252824 Eh   |
          | GRADIENT NORM               0.007525349010 Eh/α |
          | HOMO-LUMO GAP               0.132368052531 eV   |
           -------------------------------------------------

 * finished run on 2024/04/06 at 11:12:27.095
