   * xtb version 6.6.1 (8d0f1dd) compiled by 'conda@1efc2f54142f' on 2023-08-01
          program call               : xtb xtbopt.xyz --opt crude --input .xc2 --gfn2

   ID    Z sym.   atoms
    1    6 C      1, 3, 5-7, 10, 11, 14
    2    7 N      2, 4, 9, 13
    3    8 O      8, 12
    4    1 H      15-25
########################################################################
[WARNING] Please study the warnings concerning your input carefully
-1- readin_getIntValue: could not parse ''
########################################################################

          :  Hamiltonian                  GFN2-xTB          :
 * total energy  :   -40.4278216 Eh     change       -0.2700062E-12 Eh
 * total energy  :   -42.1325707 Eh     change       -0.1704749E+01 Eh
 * total energy  :   -42.1519233 Eh     change       -0.1935262E-01 Eh
 * total energy  :   -42.1551934 Eh     change       -0.3270100E-02 Eh
 * total energy  :   -42.1564643 Eh     change       -0.1270839E-02 Eh
 * total energy  :   -42.1569910 Eh     change       -0.5267036E-03 Eh
 * total energy  :   -42.1574619 Eh     change       -0.4708715E-03 Eh
 * total energy  :   -42.1577138 Eh     change       -0.2519506E-03 Eh
 * total energy  :   -42.1579154 Eh     change       -0.2015952E-03 Eh
 * total energy  :   -42.1580369 Eh     change       -0.1214957E-03 Eh
   *** GEOMETRY OPTIMIZATION CONVERGED AFTER 10 ITERATIONS ***

 final structure:
================
25
 xtb: 6.6.1 (8d0f1dd)
C            3.24126067164677        1.24265771979350        0.02471000965762
N            2.18524784798515        0.31294419303889       -0.00718326481935
C            3.47927472450629       -0.23166401351114       -0.02799887738997
N            1.18755535527762       -2.18707782971983       -0.10064608980568
C            0.35778987240449       -1.22501939588839       -0.05848093811080
C            0.90779640312602        0.12344767755373       -0.00893806366931
C            0.03396596818782        1.31456870706121        0.05037300195358
O            0.49328507062837        2.43434507021077        0.08472245609850
N           -1.30982533945687        1.03778223230383        0.06765901048669
C           -2.24503560326739        2.14752200174480        0.13547106352892
C           -1.88157270567576       -0.23008258082009        0.01209688297746
O           -3.07508712495889       -0.36801727138206        0.02094569744897
N           -1.01846188339142       -1.31894463182790       -0.05203497598933
C           -1.62463810998592       -2.63890480223432       -0.10542987160997
H            3.39776535247598        1.78113402208185        0.95410076332775
H            3.81584843362855       -0.70873254941000       -0.93616096004317
H            3.37295013040190        1.86147677065801       -0.85632694133508
H            3.79470023414721       -0.75162835213698        0.87046436678694
H           -1.67818202517114        3.06629961378178        0.26835868768735
H           -2.83102398074736        2.19787122399276       -0.78356716942129
H           -2.93329204974735        1.99639726606904        0.96746009984789
H           -1.32344521474151       -3.22988767303511        0.76128675485518
H           -1.33336545042994       -3.15274977899349       -1.02301849292103
H           -2.70626923509955       -2.51585375457537       -0.09351954056261
H            0.85319017235765       -3.13964532315556       -0.13317199107952

          :  Hamiltonian                  GFN2-xTB          :
         :: total energy             -42.158036900020 Eh    ::
         :: gradient norm              0.005622670200 Eh/a0 ::
         :: HOMO-LUMO gap              1.717721888952 eV    ::
         :: SCC energy               -42.687721241931 Eh    ::
         :: -> dispersion             -0.021769315567 Eh    ::
         :: repulsion energy           0.529576447884 Eh    ::

    * Orbital Energies and Occupations

         #    Occupation            Energy/Eh            Energy/eV
      -------------------------------------------------------------
         1        2.0000           -0.8942560             -24.3339
       ...           ...                  ...                  ...
        25        1.9994           -0.6563511             -17.8602
        26        1.9993           -0.6551053             -17.8263
        27        1.9988           -0.6460056             -17.5787
        28        1.9988           -0.6455518             -17.5664
        29        1.9978           -0.6362464             -17.3131
        30        1.9966           -0.6291483             -17.1200
        31        1.9962           -0.6276633             -17.0796
        32        1.9924           -0.6164395             -16.7742
        33        1.9712           -0.5952503             -16.1976
        34        1.9502           -0.5864261             -15.9575
        35        1.9412           -0.5837024             -15.8834
        36        1.8924           -0.5737453             -15.6124
        37        1.8628           -0.5696458             -15.5009 (HOMO)
        38        0.4025           -0.5065207             -13.7831 (LUMO)
        39        0.0006           -0.3995317             -10.8718
        40        0.0003           -0.3887998             -10.5798
        41        0.0000           -0.3011762              -8.1954
        42        0.0000           -0.2764558              -7.5227
        43                         -0.2118127              -5.7637
        44                         -0.1675488              -4.5592
        45                         -0.1358472              -3.6966
        46                         -0.0958400              -2.6079
        47                         -0.0642964              -1.7496
        48                         -0.0493511              -1.3429
       ...                                ...                  ...
        67                          0.5602318              15.2447
      -------------------------------------------------------------
                  HL-Gap            0.0631251 Eh            1.7177 eV

     #   Z          covCN         q      C6AA      α(0)
     1   6 C        3.737    -0.017    20.965     6.534
     2   7 N        2.745     0.103    19.472     6.554
     3   6 C        3.738    -0.021    21.035     6.545
     4   7 N        1.791    -0.288    28.298     7.879
     5   6 C        2.826     0.165    24.442     8.101
     6   6 C        2.899     0.038    27.157     8.544
     7   6 C        2.772     0.268    22.485     7.766
     8   8 O        0.858    -0.338    20.478     6.067
     9   7 N        2.740    -0.066    22.523     7.048
    10   6 C        3.707    -0.063    21.852     6.682
    11   6 C        2.716     0.323    21.513     7.593
    12   8 O        0.860    -0.336    20.441     6.062
    13   7 N        2.741    -0.070    22.597     7.060
    14   6 C        3.703    -0.064    21.890     6.690
    15   1 H        0.925     0.130     1.538     1.939
    16   1 H        0.926     0.129     1.543     1.943
    17   1 H        0.925     0.130     1.532     1.936
    18   1 H        0.925     0.128     1.553     1.949
    19   1 H        0.925     0.118     1.631     1.997
    20   1 H        0.924     0.111     1.686     2.031
    21   1 H        0.924     0.113     1.672     2.022
    22   1 H        0.924     0.092     1.856     2.130
    23   1 H        0.924     0.093     1.855     2.130
    24   1 H        0.925     0.123     1.587     1.970
    25   1 H        0.860     0.201     1.100     1.643

Wiberg/Mayer (AO) data.
largest (>0.10) Wiberg bond orders for each atom

     #   Z sym  total        # sym  WBO       # sym  WBO       # sym  WBO
 ---------------------------------------------------------------------------
     1   6 C    3.885 --     3 C    0.976     2 N    0.967    15 H    0.940
                            17 H    0.940
     2   7 N    3.529 --     6 C    1.504     1 C    0.967     3 C    0.967
     3   6 C    3.886 --     1 C    0.976     2 N    0.967    16 H    0.941
                            18 H    0.939
     4   7 N    2.845 --     5 C    1.677    25 H    0.921    13 N    0.122
     5   6 C    3.947 --     4 N    1.677    13 N    1.123     6 C    1.057
     6   6 C    3.784 --     2 N    1.504     5 C    1.057     7 C    1.002
     7   6 C    3.930 --     8 O    1.683     9 N    1.151     6 C    1.002
     8   8 O    1.972 --     7 C    1.683     9 N    0.148
     9   7 N    3.523 --     7 C    1.151    11 C    1.080    10 C    0.974
                             8 O    0.148    12 O    0.104
    10   6 C    3.882 --     9 N    0.974    19 H    0.964    21 H    0.952
                            20 H    0.948
    11   6 C    3.949 --    12 O    1.696    13 N    1.090     9 N    1.080
    12   8 O    2.014 --    11 C    1.696    13 N    0.113     9 N    0.104
    13   7 N    3.492 --     5 C    1.123    11 C    1.090    14 C    0.978
                             4 N    0.122    12 O    0.113
    14   6 C    3.905 --    13 N    0.978    24 H    0.961    23 H    0.960
                            22 H    0.959
    15   1 H    0.972 --     1 C    0.940
    16   1 H    0.972 --     3 C    0.941
    17   1 H    0.972 --     1 C    0.940
    18   1 H    0.972 --     3 C    0.939
    19   1 H    0.981 --    10 C    0.964
    20   1 H    0.966 --    10 C    0.948
    21   1 H    0.969 --    10 C    0.952
    22   1 H    0.978 --    14 C    0.959
    23   1 H    0.978 --    14 C    0.960
    24   1 H    0.981 --    14 C    0.961
    25   1 H    0.951 --     4 N    0.921
 ---------------------------------------------------------------------------

molecular dipole:
                 x           y           z       tot (Debye)
 q only:        2.120      -0.622      -0.017
   full:        1.855      -0.862      -0.031       5.200

           -------------------------------------------------
          | TOTAL ENERGY              -42.158036900020 Eh   |
          | GRADIENT NORM               0.005622670200 Eh/α |
          | HOMO-LUMO GAP               1.717721888952 eV   |
           -------------------------------------------------

 * finished run on 2024/06/05 at 20:00:24.264
