   * xtb version 6.6.1 (8d0f1dd) compiled by 'conda@1efc2f54142f' on 2023-08-01
          program call               : xtb xtbopt.xyz --opt crude --input .xc2 --gfn2

   ID    Z sym.   atoms
    1    7 N      1, 17
    2    6 C      2-6, 8, 9, 11-16, 18-23, 25, 26, 28-33
    3    8 O      7, 10, 24, 27
    4    1 H      34-72
########################################################################
[WARNING] Please study the warnings concerning your input carefully
-1- readin_getIntValue: could not parse ''
########################################################################

          :  Hamiltonian                  GFN2-xTB          :
 * total energy  :   -99.3066823 Eh     change       -0.4661160E-11 Eh
   *** GEOMETRY OPTIMIZATION CONVERGED AFTER 1 ITERATIONS ***

 final structure:
================
72
 xtb: 6.6.1 (8d0f1dd)
N           -1.89731856703154        3.05399653148288        2.16853629422794
C           -1.81230916927180        2.25698012108417        1.20930480493881
C           -2.93700307857932        1.93606235289010        0.26610414878235
C           -3.34206412153483        0.46639314760859        0.40174428434979
C           -4.14662843582824        0.00473036207479       -0.65427680362541
C           -4.73571771744908       -0.05958282740417       -1.71615834806175
O           -5.38191002953159       -0.27999544386202       -2.80834025598233
C           -6.13676483084747       -1.48039520739058       -2.90370857971477
C           -4.30106129837853       -2.34537643230002        1.50373318723988
O           -4.49469335348122       -3.57819247311285        1.99178782549637
C           -5.70904075449099       -4.21266047180574        1.65377136476890
C           -3.25337897526892       -1.59205337874824        1.89353882529538
C           -2.93469631102097       -0.26172946448793        1.47700664897993
C           -2.38675114911159        2.22181141114931       -1.15440100445693
C           -1.39308443504478        1.17272354041364       -1.68453801741979
C           -0.07629453075204        1.18399254519112       -1.01106060916801
N            0.58046629296380        0.10626805631040       -0.59483220596463
C            1.96865750019883        0.20031311204946       -0.21070367043846
C            2.90289445207122       -0.22451468141197       -1.36049571473257
C            4.33696764936677       -0.05891740037217       -0.94369379443619
C            4.97592230287865        1.16155353523756       -1.08746922883591
C            6.28998252811545        1.32725700064151       -0.67808293254248
C            6.99121449205909        0.27269344786028       -0.11181237087418
O            8.26670421355175        0.31778997829249        0.31747283499662
C            8.99576284038860        1.51531247236255        0.17814548429518
C            6.34269688263209       -0.98328147618567        0.04260071291058
O            7.09726161798421       -1.95396459252268        0.59668454014799
C            6.55279947539872       -3.24183710834659        0.75688406280888
C            5.02775501150407       -1.12417793038831       -0.37118565563361
C           -0.01195612949621       -1.20925149070285       -0.62167333783548
C           -4.21987745802695        2.78853265911849        0.50917391541388
C           -4.83220577921985        2.51014184985661        1.88032224810063
C           -3.98230494295824        4.28786125325694        0.35194273995889
H           -5.02285749483381       -1.97183101719634        0.78273889767360
H           -5.49573160949043       -2.35598510203525       -2.77190488173872
H           -6.56543061555043       -1.48428231771891       -3.90321148854944
H           -6.93570612783562       -1.49610664683964       -2.15815341206509
H           -6.55681766604904       -3.71056450107978        2.13046156577227
H           -5.86174773448874       -4.22739403033553        0.57006727496963
H           -5.63801720542618       -5.23284488145591        2.02599301899829
H           -2.61604598937481       -2.01195085735956        2.65948268800321
H           -2.26485103161426        0.24520318567547        2.15964393036141
H           -3.22804238821688        2.25908177778878       -1.84579325268897
H           -1.90518649614373        3.20018083904006       -1.15201286422876
H           -1.85435192074864        0.18844928135514       -1.65160791436490
H           -1.21892189019500        1.42103304567778       -2.73943194872868
H           -0.87445425679463        1.74823227062885        0.91224584404060
H            0.46578343853805        2.11785076828217       -0.98672888153782
H            2.14674052128164       -0.43783820741417        0.65842594258338
H            2.19852278669661        1.23042641606524        0.06872490390204
H            2.69257638689515        0.40067486912845       -2.23022019629666
H            2.70548307967919       -1.26378392893235       -1.62576622874025
H            4.45530223991311        1.99506610200247       -1.53417644686061
H            6.76266969799743        2.28661040279776       -0.80978261697260
H            8.54373565754983        2.32910080645935        0.75347825829127
H            9.08079195904635        1.81256207990405       -0.87139949128634
H            9.98662586989492        1.30124263715033        0.57395911322005
H            7.34721187973801       -3.84214032523269        1.19597228820349
H            5.69167375276967       -3.23301274426594        1.43291537537678
H            6.26019907914491       -3.67635155456007       -0.20413045243359
H            4.52851888056268       -2.07456161123600       -0.26472023072554
H           -0.14806610397727       -1.56299222640295       -1.64621195189864
H           -0.98273817625009       -1.19980925436473       -0.12085022337180
H            0.63853612509811       -1.90557773466650       -0.09869576581670
H           -4.93848386440180        2.47158722759270       -0.25644425726892
H           -4.14537994680361        2.81426394365665        2.66366203678891
H           -5.06534432720147        1.45544195582988        2.00401346699387
H           -5.75292444259152        3.07723894660882        1.98794765621120
H           -3.24116188310793        4.62923352257508        1.06808697058911
H           -3.65890376820715        4.54532405303546       -0.65258610174702
H           -4.91182253225669        4.81620101023859        0.54689164124894
H           -1.05889247777094        3.22767832409791        2.71406118375074

          :  Hamiltonian                  GFN2-xTB          :
         :: total energy             -99.306682348808 Eh    ::
         :: gradient norm              0.007710043658 Eh/a0 ::
         :: HOMO-LUMO gap              1.517348289345 eV    ::
         :: SCC energy              -100.735003744816 Eh    ::
         :: -> dispersion             -0.072839638152 Eh    ::
         :: repulsion energy           1.427199379086 Eh    ::

    * Orbital Energies and Occupations

         #    Occupation            Energy/Eh            Energy/eV
      -------------------------------------------------------------
         1        2.0000           -0.8230886             -22.3974
       ...           ...                  ...                  ...
        78        1.9988           -0.5284086             -14.3787
        79        1.9985           -0.5244892             -14.2721
        80        1.9985           -0.5243818             -14.2692
        81        1.9973           -0.5157941             -14.0355
        82        1.9971           -0.5145668             -14.0021
        83        1.9961           -0.5097212             -13.8702
        84        1.9958           -0.5086187             -13.8402
        85        1.9915           -0.4973347             -13.5332
        86        1.9889           -0.4930613             -13.4169
        87        1.9804           -0.4840250             -13.1710
        88        1.9455           -0.4675753             -12.7234
        89        1.8565           -0.4515104             -12.2862
        90        1.7940           -0.4452426             -12.1157 (HOMO)
        91        0.4094           -0.3894810             -10.5983 (LUMO)
        92        0.0349           -0.3471645              -9.4468
        93        0.0177           -0.3362487              -9.1498
        94        0.0030           -0.3077756              -8.3750
        95        0.0026           -0.3054967              -8.3130
        96        0.0003           -0.2725837              -7.4174
        97        0.0001           -0.2553399              -6.9482
        98        0.0000           -0.1859565              -5.0601
        99        0.0000           -0.1827987              -4.9742
       100                         -0.1301741              -3.5422
       101                         -0.0777314              -2.1152
       ...                                ...                  ...
       171                          1.2777255              34.7687
      -------------------------------------------------------------
                  HL-Gap            0.0557615 Eh            1.5173 eV

     #   Z          covCN         q      C6AA      α(0)
     1   7 N        1.774    -0.273    27.893     7.821
     2   6 C        2.826     0.101    25.762     8.317
     3   6 C        3.913     0.007    20.403     6.420
     4   6 C        2.950     0.026    27.419     8.588
     5   6 C        1.975    -0.089    33.495     9.346
     6   6 C        1.880     0.107    28.478     8.619
     7   8 O        1.704    -0.186    17.120     5.586
     8   6 C        3.665     0.026    20.398     6.477
     9   6 C        2.798     0.105    25.658     8.298
    10   8 O        1.705    -0.225    17.735     5.686
    11   6 C        3.656     0.026    20.433     6.489
    12   6 C        2.889    -0.069    29.728     8.939
    13   6 C        2.900    -0.046    29.133     8.850
    14   6 C        3.813    -0.067    21.767     6.641
    15   6 C        3.802    -0.070    21.845     6.654
    16   6 C        2.843     0.006    27.881     8.654
    17   7 N        2.729     0.009    21.095     6.821
    18   6 C        3.756    -0.016    20.921     6.522
    19   6 C        3.808    -0.070    21.836     6.652
    20   6 C        2.969    -0.001    28.046     8.687
    21   6 C        2.922    -0.049    29.227     8.866
    22   6 C        2.914    -0.068    29.690     8.935
    23   6 C        2.865     0.133    25.095     8.211
    24   8 O        1.706    -0.224    17.714     5.683
    25   6 C        3.645     0.026    20.477     6.503
    26   6 C        2.863     0.132    25.100     8.212
    27   8 O        1.706    -0.226    17.756     5.689
    28   6 C        3.645     0.028    20.443     6.498
    29   6 C        2.920    -0.080    29.993     8.981
    30   6 C        3.700    -0.070    22.006     6.709
    31   6 C        3.853    -0.008    20.677     6.467
    32   6 C        3.756    -0.118    22.812     6.810
    33   6 C        3.755    -0.119    22.832     6.813
    34   1 H        0.925     0.035     2.523     2.484
    35   1 H        0.924     0.051     2.306     2.375
    36   1 H        0.925     0.082     1.954     2.186
    37   1 H        0.924     0.057     2.235     2.338
    38   1 H        0.924     0.059     2.211     2.325
    39   1 H        0.924     0.049     2.334     2.389
    40   1 H        0.925     0.081     1.974     2.197
    41   1 H        0.925     0.058     2.220     2.330
    42   1 H        0.925     0.041     2.430     2.438
    43   1 H        0.925     0.064     2.158     2.297
    44   1 H        0.924     0.055     2.262     2.352
    45   1 H        0.925     0.067     2.122     2.278
    46   1 H        0.924     0.080     1.982     2.202
    47   1 H        0.922     0.005     2.967     2.694
    48   1 H        0.926     0.068     2.108     2.270
    49   1 H        0.924     0.067     2.116     2.275
    50   1 H        0.924     0.067     2.118     2.276
    51   1 H        0.924     0.054     2.270     2.356
    52   1 H        0.924     0.055     2.264     2.353
    53   1 H        0.926     0.044     2.399     2.422
    54   1 H        0.926     0.057     2.230     2.335
    55   1 H        0.924     0.053     2.279     2.361
    56   1 H        0.924     0.055     2.261     2.352
    57   1 H        0.925     0.081     1.966     2.192
    58   1 H        0.925     0.081     1.970     2.195
    59   1 H        0.924     0.048     2.344     2.394
    60   1 H        0.924     0.051     2.302     2.373
    61   1 H        0.926     0.047     2.362     2.404
    62   1 H        0.924     0.074     2.044     2.236
    63   1 H        0.924     0.081     1.973     2.197
    64   1 H        0.925     0.080     1.982     2.202
    65   1 H        0.924     0.038     2.481     2.463
    66   1 H        0.925     0.068     2.105     2.269
    67   1 H        0.925     0.034     2.529     2.487
    68   1 H        0.925     0.050     2.320     2.382
    69   1 H        0.925     0.062     2.179     2.308
    70   1 H        0.925     0.035     2.512     2.479
    71   1 H        0.925     0.054     2.269     2.356
    72   1 H        0.860     0.156     1.361     1.828

Wiberg/Mayer (AO) data.
largest (>0.10) Wiberg bond orders for each atom

     #   Z sym  total        # sym  WBO       # sym  WBO       # sym  WBO
 ---------------------------------------------------------------------------
     1   7 N    3.032 --     2 C    1.947    72 H    0.942
     2   6 C    3.928 --     1 N    1.947     3 C    0.995    47 H    0.902
     3   6 C    3.973 --     2 C    0.995    14 C    0.958     4 C    0.945
                            31 C    0.939
     4   6 C    3.905 --    13 C    1.590     5 C    1.174     3 C    0.945
     5   6 C    3.917 --     6 C    2.497     4 C    1.174     7 O    0.137
     6   6 C    3.863 --     5 C    2.497     7 O    1.192
     7   8 O    2.333 --     6 C    1.192     8 C    0.939     5 C    0.137
     8   6 C    3.923 --    35 H    0.979    36 H    0.978    37 H    0.978
                             7 O    0.939
     9   6 C    3.854 --    12 C    1.632    10 O    1.128    34 H    0.954
    10   8 O    2.267 --     9 C    1.128    11 C    0.974
    11   6 C    3.929 --    40 H    0.978    39 H    0.976    10 O    0.974
                            38 H    0.974
    12   6 C    3.925 --     9 C    1.632    13 C    1.195    41 H    0.960
    13   6 C    3.921 --     4 C    1.590    12 C    1.195    42 H    0.953
    14   6 C    3.969 --    15 C    0.980    44 H    0.972    43 H    0.968
                             3 C    0.958
    15   6 C    3.986 --    16 C    1.061    14 C    0.980    45 H    0.961
                            46 H    0.927
    16   6 C    3.584 --    17 N    1.395    15 C    1.061    48 H    0.958
    17   7 N    3.472 --    16 C    1.395    30 C    0.999    18 C    0.989
    18   6 C    3.956 --    17 N    0.989    50 H    0.968    19 C    0.966
                            49 H    0.965
    19   6 C    3.976 --    20 C    1.008    52 H    0.972    51 H    0.972
                            18 C    0.966
    20   6 C    3.947 --    21 C    1.411    29 C    1.379    19 C    1.008
    21   6 C    3.952 --    22 C    1.416    20 C    1.411    53 H    0.968
    22   6 C    3.961 --    21 C    1.416    23 C    1.385    54 H    0.963
    23   6 C    3.898 --    22 C    1.385    26 C    1.222    24 O    1.108
    24   8 O    2.255 --    23 C    1.108    25 C    0.977
    25   6 C    3.929 --    57 H    0.977    24 O    0.977    56 H    0.973
                            55 H    0.973
    26   6 C    3.901 --    29 C    1.396    23 C    1.222    27 O    1.101
    27   8 O    2.254 --    26 C    1.101    28 C    0.979
    28   6 C    3.933 --    27 O    0.979    58 H    0.977    59 H    0.974
                            60 H    0.973
    29   6 C    3.960 --    26 C    1.396    20 C    1.379    61 H    0.962
    30   6 C    3.958 --    17 N    0.999    64 H    0.977    62 H    0.966
                            63 H    0.963
    31   6 C    3.970 --    32 C    1.009    33 C    1.008    65 H    0.961
                             3 C    0.939
    32   6 C    3.981 --    31 C    1.009    67 H    0.982    68 H    0.982
                            66 H    0.975
    33   6 C    3.983 --    31 C    1.008    70 H    0.983    71 H    0.980
                            69 H    0.977
    34   1 H    0.998 --     9 C    0.954
    35   1 H    0.995 --     8 C    0.979
    36   1 H    0.993 --     8 C    0.978
    37   1 H    0.993 --     8 C    0.978
    38   1 H    0.990 --    11 C    0.974
    39   1 H    0.994 --    11 C    0.976
    40   1 H    0.993 --    11 C    0.978
    41   1 H    0.995 --    12 C    0.960
    42   1 H    0.996 --    13 C    0.953
    43   1 H    0.994 --    14 C    0.968
    44   1 H    0.996 --    14 C    0.972
    45   1 H    0.995 --    15 C    0.961
    46   1 H    0.970 --    15 C    0.927
    47   1 H    0.988 --     2 C    0.902
    48   1 H    0.995 --    16 C    0.958
    49   1 H    0.991 --    18 C    0.965
    50   1 H    0.994 --    18 C    0.968
    51   1 H    0.996 --    19 C    0.972
    52   1 H    0.996 --    19 C    0.972
    53   1 H    0.997 --    21 C    0.968
    54   1 H    0.995 --    22 C    0.963
    55   1 H    0.992 --    25 C    0.973
    56   1 H    0.992 --    25 C    0.973
    57   1 H    0.993 --    25 C    0.977
    58   1 H    0.993 --    28 C    0.977
    59   1 H    0.993 --    28 C    0.974
    60   1 H    0.993 --    28 C    0.973
    61   1 H    0.997 --    29 C    0.962
    62   1 H    0.985 --    30 C    0.966
    63   1 H    0.987 --    30 C    0.963
    64   1 H    0.993 --    30 C    0.977
    65   1 H    0.993 --    31 C    0.961
    66   1 H    0.992 --    32 C    0.975
    67   1 H    0.997 --    32 C    0.982
    68   1 H    0.995 --    32 C    0.982
    69   1 H    0.993 --    33 C    0.977
    70   1 H    0.997 --    33 C    0.983
    71   1 H    0.993 --    33 C    0.980
    72   1 H    0.971 --     1 N    0.942
 ---------------------------------------------------------------------------

molecular dipole:
                 x           y           z       tot (Debye)
 q only:       -0.393      -0.755      -1.033
   full:       -0.366      -0.965      -1.332       4.283

           -------------------------------------------------
          | TOTAL ENERGY              -99.306682348808 Eh   |
          | GRADIENT NORM               0.007710043658 Eh/α |
          | HOMO-LUMO GAP               1.517348289345 eV   |
           -------------------------------------------------

 * finished run on 2024/04/06 at 11:12:48.036
