   * xtb version 6.6.1 (8d0f1dd) compiled by 'conda@1efc2f54142f' on 2023-08-01
          program call               : xtb struc.xyz --opt loose --input .xc1 --gfn2

   ID    Z sym.   atoms
    1    7 N      1, 17
    2    6 C      2-6, 8, 9, 11-16, 18-23, 25, 26, 28-33
    3    8 O      7, 10, 24, 27
    4    1 H      34-72
constraining bond 12 42 to    4.1400000 Å, actual value:    2.1297062 Å

          :  Hamiltonian                  GFN2-xTB          :
 * total energy  :   -98.6825472 Eh     change       -0.4035485E-08 Eh
 * total energy  :   -98.8916143 Eh     change       -0.2090671E+00 Eh
 * total energy  :   -99.0293063 Eh     change       -0.1376920E+00 Eh
 * total energy  :   -99.1011296 Eh     change       -0.7182331E-01 Eh
 * total energy  :   -99.1445323 Eh     change       -0.4340269E-01 Eh
 * total energy  :   -99.1930437 Eh     change       -0.4851142E-01 Eh
 * total energy  :   -99.2115396 Eh     change       -0.1849589E-01 Eh
 * total energy  :   -99.2485956 Eh     change       -0.3705602E-01 Eh
 * total energy  :   -99.2602885 Eh     change       -0.1169290E-01 Eh
 * total energy  :   -99.2703148 Eh     change       -0.1002632E-01 Eh
 * total energy  :   -99.4468138 Eh     change       -0.1969407E-03 Eh
 * total energy  :   -99.4470377 Eh     change       -0.2239014E-03 Eh
 * total energy  :   -99.4472760 Eh     change       -0.2382395E-03 Eh
 * total energy  :   -99.4474912 Eh     change       -0.2151992E-03 Eh
 * total energy  :   -99.4476595 Eh     change       -0.1683435E-03 Eh
 * total energy  :   -99.4478020 Eh     change       -0.1424972E-03 Eh
 * total energy  :   -99.4479221 Eh     change       -0.1200578E-03 Eh
 * total energy  :   -99.4479785 Eh     change       -0.5647253E-04 Eh
 * total energy  :   -99.4480248 Eh     change       -0.4623462E-04 Eh
   *** GEOMETRY OPTIMIZATION CONVERGED AFTER 123 ITERATIONS ***

 final structure:
================
72
 xtb: 6.6.1 (8d0f1dd)
N           -0.69491924521684        1.70679278354047        0.59914347857749
C           -1.93756377943424        1.86077603952715        1.02460732652708
C           -3.11306974062287        1.77564895074339        0.12403013819602
C           -3.70301191450704        0.36858397066706        0.25316855800858
C           -4.72635891534138       -0.04883335220835       -0.59486375293878
C           -5.25859940246933       -1.32542723620987       -0.50407436050399
O           -6.23627878663631       -1.81906923126463       -1.28900715775546
C           -6.79379445335171       -1.00515665819378       -2.29360048213423
C           -4.76049144386632       -2.22462730339514        0.47715405551304
O           -5.32413800366800       -3.44780551788323        0.48429930433038
C           -4.86592344755789       -4.40658076354382        1.40887689527489
C           -3.75838699150966       -1.78933755680818        1.33046102676950
C           -3.23533418604187       -0.51354788929990        1.21456535419623
C           -2.62016999445567        2.00887465078543       -1.31625935067952
C           -1.49158420506786        1.03544034983658       -1.63215545265048
C           -0.26824629025952        1.34365607635799       -0.76934091158279
N            0.66850035182261        0.27146189375129       -0.74169455841435
C            2.04352390211684        0.55883747241249       -0.39426758494807
C            3.00732338918061       -0.13113187316681       -1.37830145688416
C            4.42659081802016        0.01544909556397       -0.91270147411005
C            5.09051637326170        1.22762323780038       -1.03299551109872
C            6.38200674402715        1.38212399193847       -0.55561245210409
C            7.04323450836637        0.32269509214629        0.05084737652158
O            8.29013343378756        0.36159570387323        0.55864889359864
C            9.02124331072863        1.56374778437705        0.49269237796375
C            6.37945280397351       -0.92989162945273        0.16215779359799
O            7.09818774084352       -1.91186157186251        0.74275843085977
C            6.54209503649141       -3.20059676007706        0.85028455850908
C            5.08260657876027       -1.05547849089316       -0.31254224885304
C            0.18244924932833       -1.03617072077762       -0.34231237726914
C           -4.19989446487316        2.81756488726191        0.53121425936037
C           -4.82622045375083        2.50164070687924        1.88901448791903
C           -3.65421479350781        4.24508075692584        0.53851937916349
H           -5.11703260842557        0.63276793900653       -1.33161118477942
H           -7.28556584544807       -0.12447500937559       -1.86959027790741
H           -7.53597698275203       -1.62570495834214       -2.79242640576316
H           -6.03864581494954       -0.69114481572071       -3.02089165769886
H           -5.05299712109935       -4.09176919983335        2.43965220294523
H           -5.43524773006601       -5.30958738291145        1.19976698177873
H           -3.79957016768000       -4.61207990336138        1.27697404914164
H           -3.37202973940243       -2.44455792624968        2.09423920848625
H           -2.10334767859076        1.95351317255121        2.08512782498188
H           -3.43540183320295        1.87189031879565       -2.02329933655755
H           -2.25566042959177        3.03062532227806       -1.41711320689050
H           -1.83619796488223        0.01950700058278       -1.44676005545409
H           -1.19776794941803        1.10760940953882       -2.67835345887667
H           -2.45955927097381       -0.22381444351247        1.90576421517728
H            0.24591921283678        2.22756470919424       -1.17484496910306
H            2.27995469062785        0.22005601503679        0.62555334340096
H            2.21238982989172        1.63680959891431       -0.43652455059466
H            2.87983472600355        0.31994407892246       -2.36309112799183
H            2.74471774906657       -1.18631865787460       -1.45217876217936
H            4.60236467910906        2.06312489729739       -1.51097642665677
H            6.87108240679275        2.33624869965323       -0.66469783160844
H            8.51625137080514        2.36963976786690        1.03426085245944
H            9.19383310944005        1.87149323882479       -0.54297070879280
H            9.97604058742096        1.35129303013001        0.96993319159818
H            7.31316148258745       -3.81407051119735        1.31231555536924
H            5.65068655221108       -3.20195323918548        1.48578450788101
H            6.29175564706398       -3.61267022892210       -0.13215486610304
H            4.56909471801382       -2.00047885669581       -0.22902781617695
H           -0.70750822008980       -0.96509762102012        0.28632475753887
H            0.95243781352825       -1.55921230794820        0.22096379009048
H           -0.06207628346687       -1.63744114628896       -1.22088215262542
H           -4.98929376867597        2.75389149772700       -0.22355727885253
H           -4.11759749016595        2.65172421578310        2.69942118685074
H           -5.18946751056561        1.47812613288931        1.92858903337584
H           -5.66825583861985        3.16705380195936        2.06084810056242
H           -2.77821831143024        4.32331912544028        1.17894779802463
H           -3.38877874686940        4.58348650638967       -0.45901620010202
H           -4.41484319847252        4.92034729979523        0.92106040412142
H            0.05836779783824        1.75240306288991        1.27299155055849

          :  Hamiltonian                  GFN2-xTB          :
         :: total energy             -99.448024781682 Eh    ::
         :: gradient norm              0.001574295571 Eh/a0 ::
         :: HOMO-LUMO gap              1.520364476706 eV    ::
         :: SCC energy              -100.803340415176 Eh    ::
         :: -> dispersion             -0.075165411435 Eh    ::
         :: repulsion energy           1.354267117328 Eh    ::

    * Orbital Energies and Occupations

         #    Occupation            Energy/Eh            Energy/eV
      -------------------------------------------------------------
         1        2.0000           -0.8070530             -21.9610
       ...           ...                  ...                  ...
        78        1.9990           -0.5346426             -14.5484
        79        1.9984           -0.5270142             -14.3408
        80        1.9983           -0.5265223             -14.3274
        81        1.9981           -0.5245707             -14.2743
        82        1.9979           -0.5231045             -14.2344
        83        1.9976           -0.5209325             -14.1753
        84        1.9969           -0.5168382             -14.0639
        85        1.9962           -0.5134791             -13.9725
        86        1.9842           -0.4907104             -13.3529
        87        1.9741           -0.4828108             -13.1380
        88        1.9394           -0.4690745             -12.7642
        89        1.8822           -0.4580727             -12.4648
        90        1.8053           -0.4494617             -12.2305 (HOMO)
        91        0.4279           -0.3935893             -10.7101 (LUMO)
        92        0.0039           -0.3155902              -8.5876
        93        0.0034           -0.3132245              -8.5233
        94        0.0021           -0.3056018              -8.3158
        95        0.0019           -0.3038410              -8.2679
        96        0.0000           -0.1895713              -5.1585
        97        0.0000           -0.1809694              -4.9244
        98                         -0.1367990              -3.7225
        99                         -0.1139260              -3.1001
       100                         -0.0641608              -1.7459
       101                         -0.0605900              -1.6487
       ...                                ...                  ...
       171                          0.5805670              15.7980
      -------------------------------------------------------------
                  HL-Gap            0.0558724 Eh            1.5204 eV

     #   Z          covCN         q      C6AA      α(0)
     1   7 N        2.683    -0.100    23.197     7.153
     2   6 C        2.841     0.035    27.200     8.547
     3   6 C        3.910     0.013    20.304     6.405
     4   6 C        2.978     0.001    28.007     8.681
     5   6 C        2.919    -0.077    29.927     8.971
     6   6 C        2.863     0.132    25.107     8.213
     7   8 O        1.706    -0.227    17.760     5.690
     8   6 C        3.645     0.027    20.463     6.502
     9   6 C        2.865     0.131    25.135     8.218
    10   8 O        1.706    -0.226    17.748     5.688
    11   6 C        3.646     0.026    20.461     6.501
    12   6 C        2.914    -0.072    29.800     8.952
    13   6 C        2.922    -0.055    29.361     8.886
    14   6 C        3.816    -0.068    21.790     6.644
    15   6 C        3.808    -0.076    21.950     6.669
    16   6 C        3.733     0.093    19.128     6.242
    17   7 N        2.731    -0.144    24.108     7.292
    18   6 C        3.747     0.001    20.627     6.478
    19   6 C        3.809    -0.075    21.921     6.665
    20   6 C        2.968     0.006    27.891     8.663
    21   6 C        2.922    -0.047    29.177     8.858
    22   6 C        2.913    -0.067    29.673     8.932
    23   6 C        2.865     0.133    25.099     8.212
    24   8 O        1.706    -0.222    17.689     5.678
    25   6 C        3.645     0.026    20.478     6.504
    26   6 C        2.863     0.133    25.089     8.210
    27   8 O        1.706    -0.225    17.725     5.684
    28   6 C        3.645     0.027    20.451     6.500
    29   6 C        2.920    -0.078    29.939     8.973
    30   6 C        3.696    -0.051    21.663     6.658
    31   6 C        3.853    -0.016    20.821     6.490
    32   6 C        3.755    -0.115    22.750     6.801
    33   6 C        3.755    -0.114    22.739     6.799
    34   1 H        0.926     0.053     2.280     2.361
    35   1 H        0.924     0.053     2.284     2.363
    36   1 H        0.925     0.082     1.959     2.189
    37   1 H        0.924     0.050     2.324     2.384
    38   1 H        0.924     0.054     2.269     2.356
    39   1 H        0.925     0.082     1.963     2.191
    40   1 H        0.924     0.050     2.321     2.382
    41   1 H        0.926     0.053     2.285     2.364
    42   1 H        0.926     0.073     2.053     2.241
    43   1 H        0.925     0.058     2.219     2.330
    44   1 H        0.925     0.054     2.265     2.354
    45   1 H        0.925     0.065     2.144     2.290
    46   1 H        0.925     0.066     2.127     2.281
    47   1 H        0.926     0.033     2.542     2.493
    48   1 H        0.923     0.064     2.155     2.296
    49   1 H        0.923     0.030     2.592     2.518
    50   1 H        0.924     0.042     2.420     2.433
    51   1 H        0.924     0.060     2.205     2.322
    52   1 H        0.925     0.057     2.238     2.339
    53   1 H        0.926     0.046     2.369     2.407
    54   1 H        0.926     0.057     2.233     2.337
    55   1 H        0.924     0.053     2.278     2.360
    56   1 H        0.924     0.056     2.245     2.343
    57   1 H        0.925     0.082     1.963     2.191
    58   1 H        0.925     0.081     1.969     2.194
    59   1 H        0.924     0.049     2.328     2.386
    60   1 H        0.924     0.054     2.275     2.359
    61   1 H        0.926     0.050     2.325     2.384
    62   1 H        0.924     0.042     2.419     2.432
    63   1 H        0.925     0.057     2.231     2.336
    64   1 H        0.924     0.055     2.261     2.351
    65   1 H        0.924     0.048     2.344     2.394
    66   1 H        0.925     0.040     2.450     2.448
    67   1 H        0.925     0.043     2.403     2.424
    68   1 H        0.925     0.055     2.258     2.350
    69   1 H        0.925     0.036     2.497     2.471
    70   1 H        0.925     0.042     2.420     2.433
    71   1 H        0.925     0.058     2.222     2.331
    72   1 H        0.860     0.188     1.171     1.695

Wiberg/Mayer (AO) data.
largest (>0.10) Wiberg bond orders for each atom

     #   Z sym  total        # sym  WBO       # sym  WBO       # sym  WBO
 ---------------------------------------------------------------------------
     1   7 N    3.400 --     2 C    1.431    72 H    0.934    16 C    0.922
     2   6 C    3.535 --     1 N    1.431     3 C    1.034    42 H    0.953
     3   6 C    3.983 --     2 C    1.034    14 C    0.972     4 C    0.941
                            31 C    0.934
     4   6 C    3.926 --    13 C    1.411     5 C    1.377     3 C    0.941
     5   6 C    3.963 --     6 C    1.395     4 C    1.377    34 H    0.957
     6   6 C    3.907 --     5 C    1.395     9 C    1.224     7 O    1.103
     7   8 O    2.260 --     6 C    1.103     8 C    0.977
     8   6 C    3.931 --     7 O    0.977    36 H    0.977    37 H    0.974
                            35 H    0.973
     9   6 C    3.906 --    12 C    1.388     6 C    1.224    10 O    1.105
    10   8 O    2.258 --     9 C    1.105    11 C    0.977
    11   6 C    3.931 --    10 O    0.977    39 H    0.977    40 H    0.974
                            38 H    0.973
    12   6 C    3.965 --    13 C    1.411     9 C    1.388    41 H    0.963
    13   6 C    3.954 --     4 C    1.411    12 C    1.411    47 H    0.958
    14   6 C    3.987 --    15 C    1.007     3 C    0.972    43 H    0.970
                            44 H    0.970
    15   6 C    3.985 --    14 C    1.007    16 C    0.986    46 H    0.971
                            45 H    0.966
    16   6 C    3.955 --    17 N    1.034    15 C    0.986    48 H    0.944
                             1 N    0.922
    17   7 N    3.175 --    16 C    1.034    30 C    1.004    18 C    1.000
    18   6 C    3.970 --    17 N    1.000    19 C    0.974    50 H    0.971
                            49 H    0.964
    19   6 C    3.983 --    20 C    1.013    18 C    0.974    52 H    0.972
                            51 H    0.967
    20   6 C    3.937 --    21 C    1.398    29 C    1.386    19 C    1.013
    21   6 C    3.940 --    22 C    1.423    20 C    1.398    53 H    0.968
    22   6 C    3.957 --    21 C    1.423    23 C    1.379    54 H    0.963
    23   6 C    3.885 --    22 C    1.379    26 C    1.220    24 O    1.108
    24   8 O    2.247 --    23 C    1.108    25 C    0.977
    25   6 C    3.929 --    57 H    0.977    24 O    0.977    55 H    0.973
                            56 H    0.972
    26   6 C    3.890 --    29 C    1.390    23 C    1.220    27 O    1.103
    27   8 O    2.248 --    26 C    1.103    28 C    0.979
    28   6 C    3.931 --    27 O    0.979    58 H    0.977    60 H    0.973
                            59 H    0.973
    29   6 C    3.957 --    26 C    1.390    20 C    1.386    61 H    0.962
    30   6 C    3.972 --    17 N    1.004    63 H    0.978    64 H    0.975
                            62 H    0.973
    31   6 C    3.974 --    32 C    1.010    33 C    1.009    65 H    0.964
                             3 C    0.934
    32   6 C    3.991 --    31 C    1.010    66 H    0.983    68 H    0.982
                            67 H    0.982
    33   6 C    3.989 --    31 C    1.009    69 H    0.983    70 H    0.982
                            71 H    0.981
    34   1 H    0.996 --     5 C    0.957
    35   1 H    0.993 --     8 C    0.973
    36   1 H    0.993 --     8 C    0.977
    37   1 H    0.994 --     8 C    0.974
    38   1 H    0.993 --    11 C    0.973
    39   1 H    0.993 --    11 C    0.977
    40   1 H    0.994 --    11 C    0.974
    41   1 H    0.996 --    12 C    0.963
    42   1 H    0.993 --     2 C    0.953
    43   1 H    0.996 --    14 C    0.970
    44   1 H    0.996 --    14 C    0.970
    45   1 H    0.995 --    15 C    0.966
    46   1 H    0.995 --    15 C    0.971
    47   1 H    0.998 --    13 C    0.958
    48   1 H    0.988 --    16 C    0.944
    49   1 H    0.993 --    18 C    0.964
    50   1 H    0.998 --    18 C    0.971
    51   1 H    0.993 --    19 C    0.967
    52   1 H    0.996 --    19 C    0.972
    53   1 H    0.997 --    21 C    0.968
    54   1 H    0.995 --    22 C    0.963
    55   1 H    0.991 --    25 C    0.973
    56   1 H    0.991 --    25 C    0.972
    57   1 H    0.993 --    25 C    0.977
    58   1 H    0.993 --    28 C    0.977
    59   1 H    0.992 --    28 C    0.973
    60   1 H    0.992 --    28 C    0.973
    61   1 H    0.996 --    29 C    0.962
    62   1 H    0.994 --    30 C    0.973
    63   1 H    0.996 --    30 C    0.978
    64   1 H    0.991 --    30 C    0.975
    65   1 H    0.996 --    31 C    0.964
    66   1 H    0.998 --    32 C    0.983
    67   1 H    0.998 --    32 C    0.982
    68   1 H    0.995 --    32 C    0.982
    69   1 H    0.998 --    33 C    0.983
    70   1 H    0.998 --    33 C    0.982
    71   1 H    0.995 --    33 C    0.981
    72   1 H    0.964 --     1 N    0.934
 ---------------------------------------------------------------------------

molecular dipole:
                 x           y           z       tot (Debye)
 q only:       -0.087       0.874       0.018
   full:        0.014       1.058       0.384       2.861

           -------------------------------------------------
          | TOTAL ENERGY              -99.448024781682 Eh   |
          | GRADIENT NORM               0.001574295571 Eh/α |
          | HOMO-LUMO GAP               1.520364476706 eV   |
           -------------------------------------------------

 * finished run on 2024/04/06 at 11:13:14.712
