   * xtb version 6.6.1 (8d0f1dd) compiled by 'conda@1efc2f54142f' on 2023-08-01
          program call               : xtb xtbopt.xyz --opt crude --input .xc2 --gfn2

   ID    Z sym.   atoms
    1    6 C      1, 3, 5-7, 10, 11, 14
    2    7 N      2, 4, 9, 13
    3    8 O      8, 12
    4    1 H      15-25
########################################################################
[WARNING] Please study the warnings concerning your input carefully
-1- readin_getIntValue: could not parse ''
########################################################################

          :  Hamiltonian                  GFN2-xTB          :
 * total energy  :   -40.4243804 Eh     change        0.5684342E-13 Eh
 * total energy  :   -42.1174392 Eh     change       -0.1693059E+01 Eh
 * total energy  :   -42.1467524 Eh     change       -0.2931311E-01 Eh
 * total energy  :   -42.1534745 Eh     change       -0.6722103E-02 Eh
 * total energy  :   -42.1567913 Eh     change       -0.3316816E-02 Eh
 * total energy  :   -42.1574792 Eh     change       -0.6879738E-03 Eh
 * total energy  :   -42.1582155 Eh     change       -0.7362273E-03 Eh
 * total energy  :   -42.1586992 Eh     change       -0.4837604E-03 Eh
 * total energy  :   -42.1592390 Eh     change       -0.5397324E-03 Eh
 * total energy  :   -42.1594347 Eh     change       -0.1956944E-03 Eh
   *** GEOMETRY OPTIMIZATION CONVERGED AFTER 10 ITERATIONS ***

 final structure:
================
25
 xtb: 6.6.1 (8d0f1dd)
C            2.93363319234519        1.08889302010533        0.28927083282080
N            2.12265779172361       -0.07483790917197        0.05330129067004
C            2.57144117659268       -1.31030918799297       -0.09935803683704
N            1.53901238069009       -2.13699808672253       -0.30484384680959
C            0.36493313404458       -1.40707373409404       -0.25569594099855
C            0.74773715274004       -0.08898643834238       -0.00230720927581
C           -0.05411367656034        1.15854606892592       -0.12142325653029
O            0.41324781436656        2.12514539588897       -0.68192082054804
N           -1.33961889646102        1.11247210829280        0.35625342309898
C           -2.27625685872985        2.13591316076794       -0.07362224248941
C           -1.79424250894239        0.22828908520791        1.31603587976810
O           -2.93192362473967        0.18382690851651        1.67313640999142
N           -0.88205297992083       -1.89422670054725       -0.32667011079198
C           -1.29661061356679       -2.88832020580893       -0.99697575568314
H            2.77892349368018        1.45517280465742        1.30546345000550
H            3.98258446296078        0.83944444219236        0.15170594490671
H            2.64342597934713        1.88089215481994       -0.40289146938568
H            3.60223357510258       -1.60615525928075       -0.05631591205765
H           -1.76092497608930        2.83661996623851       -0.72594301934318
H           -3.10612670136158        1.66650986125659       -0.60324399567661
H           -2.67865904419453        2.65905219936817        0.79342224563033
H           -0.99439302636227       -0.38012145975325        1.75644900251328
H           -0.70513457400929       -3.44292366614164       -1.72467229268099
H           -2.32396490539671       -3.18559050691615       -0.85304135406208
H            1.60462374684342       -3.13699547986929       -0.43494159833356

          :  Hamiltonian                  GFN2-xTB          :
         :: total energy             -42.159434662406 Eh    ::
         :: gradient norm              0.004488142084 Eh/a0 ::
         :: HOMO-LUMO gap              2.501370794050 eV    ::
         :: SCC energy               -42.701456357004 Eh    ::
         :: -> dispersion             -0.022353557227 Eh    ::
         :: repulsion energy           0.541815145629 Eh    ::

    * Orbital Energies and Occupations

         #    Occupation            Energy/Eh            Energy/eV
      -------------------------------------------------------------
         1        2.0000           -0.9124657             -24.8295
       ...           ...                  ...                  ...
        25        2.0000           -0.6647778             -18.0895
        26        1.9999           -0.6596261             -17.9493
        27        1.9999           -0.6540282             -17.7970
        28        1.9999           -0.6486207             -17.6499
        29        1.9998           -0.6393237             -17.3969
        30        1.9995           -0.6268588             -17.0577
        31        1.9991           -0.6173903             -16.8000
        32        1.9971           -0.5988127             -16.2945
        33        1.9964           -0.5954865             -16.2040
        34        1.9842           -0.5721102             -15.5679
        35        1.9631           -0.5584912             -15.1973
        36        1.9416           -0.5510712             -14.9954
        37        1.9293           -0.5479396             -14.9102 (HOMO)
        38        0.1519           -0.4560159             -12.4088 (LUMO)
        39        0.0346           -0.4316148             -11.7448
        40        0.0036           -0.3954659             -10.7612
        41        0.0003           -0.3578486              -9.7376
        42        0.0000           -0.3222830              -8.7698
        43                         -0.1906450              -5.1877
        44                         -0.1729763              -4.7069
        45                         -0.1236798              -3.3655
        46                         -0.0675963              -1.8394
        47                         -0.0549803              -1.4961
        48                         -0.0360993              -0.9823
       ...                                ...                  ...
        67                          0.5276870              14.3591
      -------------------------------------------------------------
                  HL-Gap            0.0919237 Eh            2.5014 eV

     #   Z          covCN         q      C6AA      α(0)
     1   6 C        3.693    -0.093    22.468     6.782
     2   7 N        2.844     0.087    19.727     6.597
     3   6 C        3.025     0.061    26.597     8.459
     4   7 N        2.803    -0.062    22.438     7.035
     5   6 C        3.016     0.126    25.221     8.238
     6   6 C        3.089    -0.015    28.290     8.718
     7   6 C        2.765     0.273    22.378     7.747
     8   8 O        0.859    -0.354    20.783     6.112
     9   7 N        2.734    -0.055    22.301     7.014
    10   6 C        3.707    -0.065    21.888     6.687
    11   6 C        2.713     0.249    22.818     7.819
    12   8 O        0.858    -0.279    19.406     5.906
    13   7 N        1.824    -0.154    25.128     7.428
    14   6 C        2.793     0.038    27.126     8.532
    15   1 H        0.924     0.110     1.700     2.039
    16   1 H        0.925     0.102     1.765     2.078
    17   1 H        0.924     0.139     1.469     1.895
    18   1 H        0.926     0.125     1.577     1.964
    19   1 H        0.925     0.107     1.721     2.052
    20   1 H        0.924     0.100     1.783     2.088
    21   1 H        0.925     0.101     1.776     2.084
    22   1 H        0.924     0.045     2.389     2.417
    23   1 H        0.925     0.069     2.097     2.265
    24   1 H        0.926     0.117     1.634     1.999
    25   1 H        0.860     0.227     0.977     1.549

Wiberg/Mayer (AO) data.
largest (>0.10) Wiberg bond orders for each atom

     #   Z sym  total        # sym  WBO       # sym  WBO       # sym  WBO
 ---------------------------------------------------------------------------
     1   6 C    3.917 --     2 N    0.987    16 H    0.974    15 H    0.956
                            17 H    0.948
     2   7 N    3.710 --     3 C    1.393     6 C    1.182     1 C    0.987
     3   6 C    3.904 --     2 N    1.393     4 N    1.319    18 H    0.950
     4   7 N    3.594 --     3 C    1.319     5 C    1.145    25 H    0.920
     5   6 C    3.918 --     6 C    1.371    13 N    1.220     4 N    1.145
     6   6 C    3.881 --     5 C    1.371     2 N    1.182     7 C    0.997
     7   6 C    3.940 --     8 O    1.700     9 N    1.153     6 C    0.997
     8   8 O    2.030 --     7 C    1.700     9 N    0.140
     9   7 N    3.560 --     7 C    1.153    11 C    1.126    10 C    0.970
                             8 O    0.140    12 O    0.133
    10   6 C    3.911 --    19 H    0.970     9 N    0.970    21 H    0.963
                            20 H    0.958
    11   6 C    3.932 --    12 O    1.837     9 N    1.126    22 H    0.911
    12   8 O    2.083 --    11 C    1.837     9 N    0.133
    13   7 N    3.156 --    14 C    1.786     5 C    1.220
    14   6 C    3.809 --    13 N    1.786    24 H    0.956    23 H    0.948
    15   1 H    0.986 --     1 C    0.956
    16   1 H    0.989 --     1 C    0.974
    17   1 H    0.979 --     1 C    0.948
    18   1 H    0.984 --     3 C    0.950
    19   1 H    0.986 --    10 C    0.970
    20   1 H    0.980 --    10 C    0.958
    21   1 H    0.981 --    10 C    0.963
    22   1 H    0.980 --    11 C    0.911
    23   1 H    0.983 --    14 C    0.948
    24   1 H    0.981 --    14 C    0.956
    25   1 H    0.948 --     4 N    0.920
 ---------------------------------------------------------------------------

molecular dipole:
                 x           y           z       tot (Debye)
 q only:        2.421      -1.840      -0.335
   full:        2.900      -2.489      -0.476       9.789

           -------------------------------------------------
          | TOTAL ENERGY              -42.159434662406 Eh   |
          | GRADIENT NORM               0.004488142084 Eh/α |
          | HOMO-LUMO GAP               2.501370794050 eV   |
           -------------------------------------------------

 * finished run on 2024/06/05 at 20:00:30.096
