   * xtb version 6.6.1 (8d0f1dd) compiled by 'conda@1efc2f54142f' on 2023-08-01
          program call               : xtb xtbopt.xyz --opt crude --input .xc2 --gfn2

   ID    Z sym.   atoms
    1    7 N      1, 17
    2    6 C      2-6, 8, 9, 11-16, 18-23, 25, 26, 28-33
    3    8 O      7, 10, 24, 27
    4    1 H      34-72

          :  Hamiltonian                  GFN2-xTB          :
 * total energy  :   -99.2524003 Eh     change       -0.8100187E-12 Eh
   *** GEOMETRY OPTIMIZATION CONVERGED AFTER 1 ITERATIONS ***

 final structure:
================
72
 xtb: 6.6.1 (8d0f1dd)
N           -1.86675247615798        2.80667908164467        2.21243124044301
C           -1.84210204497764        2.05366550409736        1.21830529845413
C           -2.99368382427207        1.84880102446900        0.27260419079729
C           -3.47425028482610        0.40793334644361        0.37016351955134
C           -4.40629565809467       -0.07671392706701       -0.54938343107600
C           -4.87786306083439       -1.37802091705825       -0.48444042875729
O           -5.78055930597200       -1.92262196118102       -1.32232728827678
C           -6.39033033107258       -1.11809178555411       -2.30441416221860
C           -4.39395185959356       -2.24908210605963        0.53195514666460
O           -4.89432713383304       -3.49663082311631        0.50931553896881
C           -4.50009166218791       -4.41676928136368        1.50157591235235
C           -3.47389203321208       -1.75742018868628        1.44593827087441
C           -3.02544597600606       -0.44653956643493        1.36727580261460
C           -2.43546870470040        2.12134564646085       -1.14896254150379
C           -1.48165106940576        1.03648346361658       -1.67146129086085
C           -0.13151937133001        1.09323302566530       -1.06691795405590
N            0.63300590647159        0.06131482894844       -0.79164493692737
C            2.01068602319590        0.25370544956840       -0.40899946466004
C            2.96187694209744        0.11198148100966       -1.60821393893019
C            4.37976058041517        0.17560589530603       -1.11625596561752
C            5.20479463715176        1.28131839797567       -1.33651624984954
C            6.48959617845667        1.32548310558632       -0.81903086830418
C            7.00385797573209        0.27739237007160       -0.06535007419820
O            8.22016075919727        0.22090410298621        0.49587659714308
C            9.09643257474509        1.31789128506725        0.36089341682326
C            6.17864986113690       -0.87609706536523        0.15244922995473
O            6.69206445168481       -1.88427917357679        0.86514621288311
C            5.86431873074831       -3.02054377065609        0.99595654268348
C            4.91906350397232       -0.84332015506504       -0.38001427006589
C            0.17132115927910       -1.30259653362466       -0.87646088727238
C           -4.20028228482541        2.79252160140061        0.55578709851249
C           -4.83294148746689        2.49775874178671        1.91341188617896
C           -3.84324463225549        4.27355994939639        0.46504427398100
H           -4.77892975930901        0.57660651126693       -1.32076107610891
H           -6.91796501032286       -0.27059443798854       -1.85677210616021
H           -7.10774067121456       -1.76443355768395       -2.80614229880920
H           -5.66178299513644       -0.75318065325396       -3.03555303998157
H           -4.78007208492021       -4.07156409313890        2.50100094385802
H           -5.03472822997166       -5.33685911076688        1.27432125763253
H           -3.42273394627620       -4.60541467999400        1.46806425473377
H           -3.10409170567773       -2.38723283235297        2.23831764216505
H           -2.33157797921425       -0.09523987005604        2.11473729851807
H           -3.27306395716526        2.20169691780255       -1.84088146198974
H           -1.91849033944201        3.08157437963143       -1.14661726894678
H           -1.93821058918683        0.05378807596642       -1.55663197719813
H           -1.35190850239120        1.21153876007432       -2.74784135174234
H           -0.94720071167020        1.48322364815242        0.90123037483036
H            0.32774917350489        2.06889976904831       -0.98096703182067
H            2.27602709505150       -0.52657010163634        0.33318669768905
H            2.13718008929900        1.23901946680987        0.04401578958200
H            2.77129806351803        0.90607673446383       -2.33251068324193
H            2.79318004973628       -0.85421406929759       -2.08755403130367
H            4.83763048139626        2.11027670430897       -1.92255297795889
H            7.09536112193752        2.19624894073926       -1.01242137970938
H            8.66750454302345        2.22578791858628        0.79492386457419
H            9.35246473435745        1.49758450664949       -0.68713434961832
H            9.99437825332795        1.04313407904189        0.91054135053451
H            6.37186133468152       -3.69526859502783        1.68181934423255
H            4.88026808914554       -2.74381262789545        1.38981111364246
H            5.72814217260798       -3.50907591732880        0.02561645672591
H            2.34042580031428       -2.10966711272392        1.05253879878358
H            0.17989239373364       -1.66157283745739       -1.90881097300077
H           -0.84216895383913       -1.38988682037178       -0.47924063955838
H            0.83800176021681       -1.93152894636127       -0.27592919658217
H           -4.94781020602472        2.57833913573757       -0.21670129825472
H           -4.12812997291145        2.71908589142842        2.70869666809619
H           -5.13588355454453        1.45624385050932        1.98914233408647
H           -5.71291206104382        3.12114947745773        2.04832682161053
H           -3.07979947934865        4.52343109153943        1.19541484801152
H           -3.49670172722059        4.54996973800643       -0.52721723532814
H           -4.72770811161755        4.86616880629443        0.68348820980107
H           -1.02617509363769        2.89156033562421        2.77457472449575

          :  Hamiltonian                  GFN2-xTB          :
         :: total energy             -99.252400346768 Eh    ::
         :: gradient norm              0.002942304928 Eh/a0 ::
         :: HOMO-LUMO gap              0.362240153746 eV    ::
         :: SCC energy              -100.620678423645 Eh    ::
         :: -> dispersion             -0.076925833115 Eh    ::
         :: repulsion energy           1.366940765897 Eh    ::

    * Orbital Energies and Occupations

         #    Occupation            Energy/Eh            Energy/eV
      -------------------------------------------------------------
         1        2.0000           -0.8162305             -22.2108
       ...           ...                  ...                  ...
        78        1.9975           -0.5348888             -14.5551
        79        1.9974           -0.5340023             -14.5309
        80        1.9971           -0.5324670             -14.4892
        81        1.9962           -0.5281468             -14.3716
        82        1.9941           -0.5212153             -14.1830
        83        1.9932           -0.5188467             -14.1185
        84        1.9919           -0.5161777             -14.0459
        85        1.9730           -0.4969673             -13.5232
        86        1.9581           -0.4898838             -13.3304
        87        1.9155           -0.4784206             -13.0185
        88        1.8168           -0.4653403             -12.6626
        89        1.7523           -0.4599913             -12.5170
        90        1.3785           -0.4416241             -12.0172 (HOMO)
        91        0.9780           -0.4283120             -11.6550 (LUMO)
        92        0.2571           -0.3987041             -10.8493
        93        0.0107           -0.3462461              -9.4218
        94        0.0024           -0.3227761              -8.7832
        95        0.0020           -0.3199283              -8.7057
        96        0.0018           -0.3178251              -8.6485
        97        0.0010           -0.3085603              -8.3964
        98        0.0000           -0.1973514              -5.3702
        99        0.0000           -0.1882076              -5.1214
       100                         -0.1329179              -3.6169
       101                         -0.0743205              -2.0224
       ...                                ...                  ...
       171                          0.5703792              15.5208
      -------------------------------------------------------------
                  HL-Gap            0.0133121 Eh            0.3622 eV

     #   Z          covCN         q      C6AA      α(0)
     1   7 N        1.774    -0.260    27.586     7.778
     2   6 C        2.827     0.102    25.723     8.311
     3   6 C        3.907     0.007    20.405     6.421
     4   6 C        2.974     0.003    27.947     8.671
     5   6 C        2.920    -0.079    29.978     8.979
     6   6 C        2.862     0.132    25.117     8.215
     7   8 O        1.706    -0.223    17.706     5.681
     8   6 C        3.644     0.026    20.478     6.505
     9   6 C        2.864     0.132    25.107     8.213
    10   8 O        1.706    -0.220    17.650     5.672
    11   6 C        3.645     0.024    20.506     6.508
    12   6 C        2.913    -0.071    29.761     8.946
    13   6 C        2.921    -0.049    29.224     8.865
    14   6 C        3.813    -0.066    21.758     6.639
    15   6 C        3.802    -0.070    21.833     6.652
    16   6 C        2.847     0.017    27.622     8.614
    17   7 N        2.729     0.039    20.567     6.735
    18   6 C        3.760    -0.027    21.111     6.550
    19   6 C        3.807    -0.062    21.687     6.629
    20   6 C        2.966     0.020    27.568     8.612
    21   6 C        2.933    -0.043    29.063     8.841
    22   6 C        2.911    -0.071    29.770     8.947
    23   6 C        2.869     0.137    25.004     8.197
    24   8 O        1.706    -0.211    17.500     5.648
    25   6 C        3.646     0.023    20.525     6.511
    26   6 C        2.878     0.149    24.773     8.159
    27   8 O        1.705    -0.205    17.408     5.633
    28   6 C        3.664     0.024    20.437     6.484
    29   6 C        2.017    -0.092    33.558     9.356
    30   6 C        3.700    -0.078    22.160     6.732
    31   6 C        3.853    -0.008    20.676     6.467
    32   6 C        3.756    -0.119    22.833     6.813
    33   6 C        3.755    -0.120    22.848     6.816
    34   1 H        0.926     0.054     2.275     2.358
    35   1 H        0.924     0.056     2.243     2.342
    36   1 H        0.925     0.084     1.937     2.177
    37   1 H        0.924     0.050     2.320     2.382
    38   1 H        0.924     0.059     2.211     2.325
    39   1 H        0.925     0.084     1.935     2.175
    40   1 H        0.924     0.054     2.265     2.353
    41   1 H        0.926     0.059     2.206     2.323
    42   1 H        0.926     0.045     2.383     2.414
    43   1 H        0.925     0.062     2.174     2.306
    44   1 H        0.924     0.056     2.249     2.345
    45   1 H        0.925     0.070     2.082     2.257
    46   1 H        0.923     0.086     1.917     2.165
    47   1 H        0.922     0.011     2.875     2.652
    48   1 H        0.925     0.076     2.018     2.221
    49   1 H        0.922     0.113     1.669     2.020
    50   1 H        0.924     0.063     2.170     2.304
    51   1 H        0.924     0.051     2.312     2.378
    52   1 H        0.924     0.069     2.101     2.267
    53   1 H        0.926     0.060     2.204     2.322
    54   1 H        0.926     0.066     2.125     2.279
    55   1 H        0.924     0.059     2.214     2.327
    56   1 H        0.924     0.060     2.194     2.317
    57   1 H        0.925     0.087     1.906     2.159
    58   1 H        0.925     0.082     1.959     2.189
    59   1 H        0.924     0.071     2.078     2.254
    60   1 H        0.924     0.062     2.176     2.307
    61   1 H        0.000    -0.297    55.128    13.576
    62   1 H        0.924     0.081     1.970     2.195
    63   1 H        0.924     0.076     2.017     2.221
    64   1 H        0.924     0.111     1.690     2.033
    65   1 H        0.924     0.040     2.454     2.450
    66   1 H        0.925     0.070     2.084     2.258
    67   1 H        0.925     0.037     2.490     2.467
    68   1 H        0.925     0.054     2.274     2.358
    69   1 H        0.925     0.063     2.163     2.300
    70   1 H        0.925     0.036     2.502     2.474
    71   1 H        0.925     0.057     2.235     2.338
    72   1 H        0.860     0.163     1.319     1.799

Wiberg/Mayer (AO) data.
largest (>0.10) Wiberg bond orders for each atom

     #   Z sym  total        # sym  WBO       # sym  WBO       # sym  WBO
 ---------------------------------------------------------------------------
     1   7 N    3.042 --     2 C    1.962    72 H    0.939
     2   6 C    3.933 --     1 N    1.962     3 C    0.993    47 H    0.899
     3   6 C    3.972 --     2 C    0.993     4 C    0.970    14 C    0.956
                            31 C    0.942
     4   6 C    3.936 --    13 C    1.406     5 C    1.371     3 C    0.970
     5   6 C    3.956 --     6 C    1.396     4 C    1.371    34 H    0.957
     6   6 C    3.894 --     5 C    1.396     9 C    1.213     7 O    1.107
     7   8 O    2.253 --     6 C    1.107     8 C    0.977
     8   6 C    3.929 --     7 O    0.977    36 H    0.976    35 H    0.973
                            37 H    0.972
     9   6 C    3.889 --    12 C    1.383     6 C    1.213    10 O    1.113
    10   8 O    2.254 --     9 C    1.113    11 C    0.975
    11   6 C    3.926 --    39 H    0.976    10 O    0.975    40 H    0.972
                            38 H    0.972
    12   6 C    3.955 --    13 C    1.412     9 C    1.383    41 H    0.963
    13   6 C    3.944 --    12 C    1.412     4 C    1.406    42 H    0.961
    14   6 C    3.978 --    15 C    0.989    44 H    0.971    43 H    0.968
                             3 C    0.956
    15   6 C    3.986 --    16 C    1.058    14 C    0.989    45 H    0.956
                            46 H    0.922
    16   6 C    3.692 --    17 N    1.477    15 C    1.058    48 H    0.955
    17   7 N    3.563 --    16 C    1.477    30 C    0.997    18 C    0.986
    18   6 C    3.893 --    17 N    0.986    50 H    0.967    19 C    0.965
                            49 H    0.896
    19   6 C    3.965 --    20 C    1.000    51 H    0.973    18 C    0.965
                            52 H    0.964
    20   6 C    3.900 --    29 C    1.425    21 C    1.334    19 C    1.000
    21   6 C    3.867 --    22 C    1.430    20 C    1.334    53 H    0.956
    22   6 C    3.946 --    21 C    1.430    23 C    1.375    54 H    0.956
    23   6 C    3.821 --    22 C    1.375    26 C    1.157    24 O    1.122
    24   8 O    2.248 --    23 C    1.122    25 C    0.969
    25   6 C    3.917 --    57 H    0.976    55 H    0.972    56 H    0.971
                            24 O    0.969
    26   6 C    3.851 --    29 C    1.397    23 C    1.157    27 O    1.126
    27   8 O    2.247 --    26 C    1.126    28 C    0.968
    28   6 C    3.907 --    58 H    0.978    60 H    0.969    27 O    0.968
                            59 H    0.964
    29   6 C    3.068 --    20 C    1.425    26 C    1.397
    30   6 C    3.928 --    17 N    0.997    63 H    0.965    62 H    0.961
                            64 H    0.947
    31   6 C    3.969 --    33 C    1.009    32 C    1.008    65 H    0.958
                             3 C    0.942
    32   6 C    3.974 --    31 C    1.008    67 H    0.981    68 H    0.980
                            66 H    0.972
    33   6 C    3.978 --    31 C    1.009    70 H    0.982    71 H    0.979
                            69 H    0.975
    34   1 H    0.996 --     5 C    0.957
    35   1 H    0.992 --     8 C    0.973
    36   1 H    0.992 --     8 C    0.976
    37   1 H    0.992 --     8 C    0.972
    38   1 H    0.990 --    11 C    0.972
    39   1 H    0.992 --    11 C    0.976
    40   1 H    0.991 --    11 C    0.972
    41   1 H    0.994 --    12 C    0.963
    42   1 H    0.997 --    13 C    0.961
    43   1 H    0.995 --    14 C    0.968
    44   1 H    0.996 --    14 C    0.971
    45   1 H    0.993 --    15 C    0.956
    46   1 H    0.973 --    15 C    0.922
    47   1 H    0.982 --     2 C    0.899
    48   1 H    0.994 --    16 C    0.955
    49   1 H    0.984 --    18 C    0.896
    50   1 H    0.993 --    18 C    0.967
    51   1 H    0.994 --    19 C    0.973
    52   1 H    0.991 --    19 C    0.964
    53   1 H    0.982 --    21 C    0.956
    54   1 H    0.987 --    22 C    0.956
    55   1 H    0.989 --    25 C    0.972
    56   1 H    0.989 --    25 C    0.971
    57   1 H    0.991 --    25 C    0.976
    58   1 H    0.992 --    28 C    0.978
    59   1 H    0.987 --    28 C    0.964
    60   1 H    0.986 --    28 C    0.969
    61   1 H    0.131
    62   1 H    0.985 --    30 C    0.961
    63   1 H    0.990 --    30 C    0.965
    64   1 H    0.987 --    30 C    0.947
    65   1 H    0.990 --    31 C    0.958
    66   1 H    0.989 --    32 C    0.972
    67   1 H    0.996 --    32 C    0.981
    68   1 H    0.993 --    32 C    0.980
    69   1 H    0.991 --    33 C    0.975
    70   1 H    0.996 --    33 C    0.982
    71   1 H    0.993 --    33 C    0.979
    72   1 H    0.967 --     1 N    0.939
 ---------------------------------------------------------------------------

molecular dipole:
                 x           y           z       tot (Debye)
 q only:        0.105       0.996      -1.459
   full:        0.489       1.110      -1.668       5.242

           -------------------------------------------------
          | TOTAL ENERGY              -99.252400346768 Eh   |
          | GRADIENT NORM               0.002942304928 Eh/α |
          | HOMO-LUMO GAP               0.362240153746 eV   |
           -------------------------------------------------

 * finished run on 2024/04/06 at 11:14:37.965
