   * xtb version 6.6.1 (8d0f1dd) compiled by 'conda@1efc2f54142f' on 2023-08-01
          program call               : xtb struc.xyz --opt loose --input .xc1 --gfn2

   ID    Z sym.   atoms
    1    7 N      1, 17
    2    6 C      2-6, 8, 9, 11-16, 18-23, 25, 26, 28-33
    3    8 O      7, 10, 24, 27
    4    1 H      34-72
constraining bond 16 63 to    5.1400000 Å, actual value:    2.6731055 Å

          :  Hamiltonian                  GFN2-xTB          :
 * total energy  :   -98.3175331 Eh     change       -0.4035485E-08 Eh
 * total energy  :   -98.6822276 Eh     change       -0.3646945E+00 Eh
 * total energy  :   -98.9243280 Eh     change       -0.2421003E+00 Eh
 * total energy  :   -99.0590221 Eh     change       -0.1346942E+00 Eh
 * total energy  :   -99.1281737 Eh     change       -0.6915153E-01 Eh
 * total energy  :   -99.1716804 Eh     change       -0.4350669E-01 Eh
 * total energy  :   -99.2106873 Eh     change       -0.3900690E-01 Eh
 * total energy  :   -99.2459259 Eh     change       -0.3523868E-01 Eh
 * total energy  :   -99.2622110 Eh     change       -0.1628510E-01 Eh
 * total energy  :   -99.2718352 Eh     change       -0.9624176E-02 Eh
 * total energy  :   -99.2912620 Eh     change       -0.6637230E-03 Eh
 * total energy  :   -99.2917090 Eh     change       -0.4470599E-03 Eh
 * total energy  :   -99.2922123 Eh     change       -0.5032795E-03 Eh
 * total energy  :   -99.2926943 Eh     change       -0.4819697E-03 Eh
 * total energy  :   -99.2929695 Eh     change       -0.2752541E-03 Eh
 * total energy  :   -99.2931338 Eh     change       -0.1642753E-03 Eh
 * total energy  :   -99.2932512 Eh     change       -0.1173597E-03 Eh
 * total energy  :   -99.2933069 Eh     change       -0.5574250E-04 Eh
 * total energy  :   -99.2933417 Eh     change       -0.3479966E-04 Eh
   *** GEOMETRY OPTIMIZATION CONVERGED AFTER 31 ITERATIONS ***

 final structure:
================
72
 xtb: 6.6.1 (8d0f1dd)
N           -1.83706882207032        2.92164569651731        2.17298207125404
C           -1.79347176490595        2.17752808999473        1.17094438156649
C           -2.94249902200087        1.96133215218408        0.22423867830319
C           -3.41426489621507        0.51964655104486        0.31950970181740
C           -4.35030325195814        0.03540171169167       -0.59656178556532
C           -4.83237986123081       -1.26137152327025       -0.52035779079103
O           -5.74318874163499       -1.80457348853582       -1.34860911421965
C           -6.36479470731229       -0.99846942329653       -2.32263566176973
C           -4.34554849750982       -2.13146897016323        0.49792861223938
O           -4.83118067007572       -3.38020769108767        0.47382301695635
C           -4.23869579557530       -4.34976946593021        1.29535190113285
C           -3.43166016776366       -1.63264127722078        1.42004854719846
C           -2.97822005110633       -0.32547535620794        1.33027479406934
C           -2.39284296509989        2.25767217821298       -1.19676780986583
C           -1.49909404551265        1.15609388314879       -1.79627454463318
C           -0.15088641993121        1.07526252209101       -1.17792757173056
N            0.44359934188005       -0.03653696768853       -0.75013903020279
C            1.82552114598409        0.08752070694333       -0.28820415055815
C            2.81065953922332       -0.27711033826684       -1.40960964199221
C            4.22643252887058       -0.08833496483968       -0.93925606734831
C            4.88145386243477        1.11814319051567       -1.13675039721166
C            6.17926457439467        1.30443930394259       -0.68843321668748
C            6.85171144700041        0.28625787887986       -0.02531690470910
O            8.10579521385699        0.35547719155196        0.45002775507028
C            8.85807382565213        1.53063520012448        0.24867394467707
C            6.18637982651871       -0.95581148896313        0.18589936267467
O            6.90903815728604       -1.88897816315943        0.83027006523663
C            6.35098727648860       -3.16059376686637        1.06580729380870
C            4.88680299777579       -1.11668218073998       -0.27254444407771
C           -0.06950812193582       -1.25594819800415       -0.73363083434881
C           -4.16234883776360        2.88502708426225        0.52381041938726
C           -4.79038814891738        2.56172086594217        1.87729189161363
C           -3.82482484583362        4.37117908946742        0.45366597725873
H           -4.71032826366265        0.68381109226997       -1.37827545023592
H           -6.87558704534420       -0.14476411846988       -1.86721131134719
H           -7.09763416707153       -1.64035859736543       -2.80762365904442
H           -5.64782803115534       -0.64252927650635       -3.06922826600411
H           -4.41636159169688       -4.15805313072048        2.35725459900992
H           -4.67372294575704       -5.30393838995958        1.00709418676138
H           -3.13930500890450       -4.35211753288326        1.10735447828034
H           -3.08998638118720       -2.24775425282745        2.23488525433409
H           -2.29024301071715        0.03405770531945        2.07905748353445
H           -3.23730432606962        2.40571679712963       -1.86948682787370
H           -1.83079162290072        3.19193632648251       -1.16609187009449
H           -2.01650818344591        0.20079584666786       -1.74243324424998
H           -1.36867441446051        1.40350793287394       -2.85743204067952
H           -0.88903014133759        1.63192937122446        0.85193516149716
H            0.44486215204674        1.97406620579160       -1.17437440412596
H            1.97649031536550       -0.57821224020705        0.56392282434616
H            2.01195288550175        1.11281267327502        0.03799589944727
H            2.62009971460639        0.36262861920041       -2.27330055928913
H            2.64636305506812       -1.31379654262771       -1.70738601217743
H            4.38606341238440        1.92394536836293       -1.65651424010402
H            6.66412611637339        2.25062890122082       -0.86495780832837
H            8.40417119671798        2.38782560358100        0.75525983111450
H            8.97389119089231        1.75360334764463       -0.81587853309334
H            9.83503056864493        1.33032028282088        0.68439787756566
H            7.12386772852724       -3.72735902311101        1.58136496601251
H            5.46351777589742       -3.09732243216611        1.70320152122593
H            6.09549116927215       -3.66584572569776        0.12948021372844
H            4.37867794786644       -2.05686913683743       -0.12605807024156
H           -1.06610396429594       -1.45336721881114       -1.07080061010475
H           -1.78497453036807       -3.47432525103536        0.56219690135960
H            0.50622064204673       -2.06243933884142       -0.32746763125561
H           -4.90772929079319        2.67192490358531       -0.25108270199191
H           -4.08484938823164        2.77260337810180        2.67493937509205
H           -5.08692305541686        1.51713923595093        1.93540836196827
H           -5.67366155943596        3.17732280327414        2.02585977726082
H           -3.07655767953487        4.62320477028278        1.19888774468554
H           -3.46348715053867        4.65985961780889       -0.52961440996181
H           -4.72073276432650        4.94998944587942        0.66291762400932
H           -0.99853586057145        3.02255146954293        2.73553896301377

          :  Hamiltonian                  GFN2-xTB          :
         :: total energy             -99.293341729221 Eh    ::
         :: gradient norm              0.001552396267 Eh/a0 ::
         :: HOMO-LUMO gap              0.426189986591 eV    ::
         :: SCC energy              -100.673757144749 Eh    ::
         :: -> dispersion             -0.077424713238 Eh    ::
         :: repulsion energy           1.379059797742 Eh    ::

    * Orbital Energies and Occupations

         #    Occupation            Energy/Eh            Energy/eV
      -------------------------------------------------------------
         1        2.0000           -0.8171253             -22.2351
       ...           ...                  ...                  ...
        78        1.9970           -0.5331409             -14.5075
        79        1.9969           -0.5323707             -14.4865
        80        1.9956           -0.5269252             -14.3384
        81        1.9955           -0.5265954             -14.3294
        82        1.9927           -0.5186883             -14.1142
        83        1.9921           -0.5174879             -14.0816
        84        1.9899           -0.5136369             -13.9768
        85        1.9711           -0.4968273             -13.5194
        86        1.9692           -0.4958151             -13.4918
        87        1.9089           -0.4781335             -13.0107
        88        1.8353           -0.4681323             -12.7385
        89        1.7821           -0.4632366             -12.6053
        90        1.5039           -0.4475225             -12.1777 (HOMO)
        91        1.0599           -0.4318603             -11.7515 (LUMO)
        92        0.0114           -0.3482282              -9.4758
        93        0.0079           -0.3424701              -9.3191
        94        0.0021           -0.3215360              -8.7494
        95        0.0019           -0.3194985              -8.6940
        96        0.0016           -0.3173917              -8.6367
        97        0.0016           -0.3170429              -8.6272
        98        0.0000           -0.1964515              -5.3457
        99        0.0000           -0.1952381              -5.3127
       100                         -0.1249553              -3.4002
       101                         -0.0685223              -1.8646
       ...                                ...                  ...
       171                          0.5672864              15.4366
      -------------------------------------------------------------
                  HL-Gap            0.0156622 Eh            0.4262 eV

     #   Z          covCN         q      C6AA      α(0)
     1   7 N        1.774    -0.260    27.584     7.777
     2   6 C        2.827     0.103    25.717     8.310
     3   6 C        3.907     0.008    20.392     6.419
     4   6 C        2.974     0.011    27.767     8.643
     5   6 C        2.919    -0.076    29.909     8.968
     6   6 C        2.861     0.134    25.064     8.206
     7   8 O        1.706    -0.220    17.651     5.672
     8   6 C        3.644     0.025    20.492     6.507
     9   6 C        2.869     0.140    24.956     8.189
    10   8 O        1.707    -0.201    17.351     5.624
    11   6 C        3.648     0.022    20.525     6.509
    12   6 C        2.912    -0.054    29.339     8.882
    13   6 C        2.921    -0.045    29.115     8.848
    14   6 C        3.811    -0.064    21.721     6.634
    15   6 C        3.801    -0.065    21.748     6.640
    16   6 C        2.860    -0.034    28.852     8.804
    17   7 N        2.730     0.092    19.645     6.583
    18   6 C        3.781    -0.021    20.965     6.523
    19   6 C        3.808    -0.070    21.825     6.650
    20   6 C        2.968     0.005    27.920     8.667
    21   6 C        2.922    -0.046    29.140     8.852
    22   6 C        2.913    -0.066    29.637     8.927
    23   6 C        2.864     0.136    25.027     8.200
    24   8 O        1.706    -0.214    17.556     5.657
    25   6 C        3.645     0.023    20.529     6.512
    26   6 C        2.862     0.136    25.028     8.200
    27   8 O        1.706    -0.217    17.599     5.664
    28   6 C        3.644     0.024    20.502     6.508
    29   6 C        2.919    -0.077    29.935     8.972
    30   6 C        2.812    -0.087    30.169     8.999
    31   6 C        3.853    -0.008    20.677     6.467
    32   6 C        3.756    -0.119    22.832     6.813
    33   6 C        3.755    -0.119    22.844     6.815
    34   1 H        0.926     0.057     2.235     2.338
    35   1 H        0.924     0.057     2.234     2.337
    36   1 H        0.925     0.085     1.927     2.171
    37   1 H        0.924     0.053     2.283     2.363
    38   1 H        0.924     0.062     2.174     2.306
    39   1 H        0.925     0.087     1.912     2.163
    40   1 H        0.921     0.091     1.868     2.138
    41   1 H        0.926     0.069     2.092     2.262
    42   1 H        0.926     0.045     2.378     2.411
    43   1 H        0.925     0.059     2.216     2.328
    44   1 H        0.924     0.053     2.281     2.362
    45   1 H        0.925     0.060     2.204     2.322
    46   1 H        0.924     0.070     2.080     2.256
    47   1 H        0.923     0.016     2.792     2.613
    48   1 H        0.926     0.056     2.247     2.344
    49   1 H        0.924     0.075     2.030     2.228
    50   1 H        0.924     0.069     2.099     2.265
    51   1 H        0.924     0.059     2.209     2.324
    52   1 H        0.924     0.063     2.170     2.303
    53   1 H        0.926     0.051     2.311     2.377
    54   1 H        0.926     0.062     2.172     2.305
    55   1 H        0.924     0.058     2.221     2.331
    56   1 H        0.924     0.059     2.205     2.322
    57   1 H        0.925     0.086     1.921     2.168
    58   1 H        0.925     0.085     1.926     2.170
    59   1 H        0.924     0.053     2.277     2.360
    60   1 H        0.924     0.057     2.234     2.337
    61   1 H        0.926     0.054     2.276     2.359
    62   1 H        0.926     0.071     2.079     2.255
    63   1 H        0.000    -0.211    29.188     9.879
    64   1 H        0.926     0.073     2.058     2.243
    65   1 H        0.924     0.040     2.444     2.445
    66   1 H        0.925     0.070     2.083     2.257
    67   1 H        0.925     0.036     2.500     2.473
    68   1 H        0.925     0.054     2.267     2.355
    69   1 H        0.925     0.064     2.147     2.292
    70   1 H        0.925     0.038     2.471     2.458
    71   1 H        0.925     0.057     2.240     2.341
    72   1 H        0.860     0.161     1.330     1.806

Wiberg/Mayer (AO) data.
largest (>0.10) Wiberg bond orders for each atom

     #   Z sym  total        # sym  WBO       # sym  WBO       # sym  WBO
 ---------------------------------------------------------------------------
     1   7 N    3.020 --     2 C    1.957    72 H    0.939
     2   6 C    3.930 --     1 N    1.957     3 C    0.992    47 H    0.907
     3   6 C    3.967 --     2 C    0.992     4 C    0.972    14 C    0.954
                            31 C    0.940
     4   6 C    3.924 --    13 C    1.402     5 C    1.368     3 C    0.972
     5   6 C    3.950 --     6 C    1.395     4 C    1.368    34 H    0.957
     6   6 C    3.882 --     5 C    1.395     9 C    1.205     7 O    1.111
     7   8 O    2.253 --     6 C    1.111     8 C    0.975
     8   6 C    3.927 --    36 H    0.976     7 O    0.975    35 H    0.972
                            37 H    0.972
     9   6 C    3.880 --    12 C    1.360     6 C    1.205    10 O    1.126
    10   8 O    2.269 --     9 C    1.126    11 C    0.983
    11   6 C    3.845 --    10 O    0.983    39 H    0.973    38 H    0.964
                            40 H    0.883
    12   6 C    3.939 --    13 C    1.413     9 C    1.360    41 H    0.959
    13   6 C    3.937 --    12 C    1.413     4 C    1.402    42 H    0.961
    14   6 C    3.970 --    15 C    0.982    44 H    0.972    43 H    0.968
                             3 C    0.954
    15   6 C    3.983 --    16 C    1.050    14 C    0.982    45 H    0.960
                            46 H    0.937
    16   6 C    3.646 --    17 N    1.336    15 C    1.050    48 H    0.962
                            30 C    0.195
    17   7 N    3.742 --    30 C    1.380    16 C    1.336    18 C    0.964
    18   6 C    3.951 --    19 C    0.976    50 H    0.969    49 H    0.967
                            17 N    0.964
    19   6 C    3.986 --    20 C    1.008    18 C    0.976    51 H    0.971
                            52 H    0.969
    20   6 C    3.932 --    21 C    1.400    29 C    1.386    19 C    1.008
    21   6 C    3.937 --    22 C    1.421    20 C    1.400    53 H    0.967
    22   6 C    3.951 --    21 C    1.421    23 C    1.376    54 H    0.962
    23   6 C    3.882 --    22 C    1.376    26 C    1.210    24 O    1.120
    24   8 O    2.254 --    23 C    1.120    25 C    0.974
    25   6 C    3.923 --    57 H    0.976    24 O    0.974    56 H    0.971
                            55 H    0.971
    26   6 C    3.886 --    29 C    1.387    23 C    1.210    27 O    1.114
    27   8 O    2.254 --    26 C    1.114    28 C    0.976
    28   6 C    3.927 --    58 H    0.976    27 O    0.976    59 H    0.972
                            60 H    0.972
    29   6 C    3.953 --    26 C    1.387    20 C    1.386    61 H    0.962
    30   6 C    3.585 --    17 N    1.380    64 H    0.973    62 H    0.966
                            16 C    0.195
    31   6 C    3.964 --    33 C    1.009    32 C    1.008    65 H    0.956
                             3 C    0.940
    32   6 C    3.971 --    31 C    1.008    67 H    0.980    68 H    0.980
                            66 H    0.971
    33   6 C    3.975 --    31 C    1.009    70 H    0.981    71 H    0.978
                            69 H    0.973
    34   1 H    0.995 --     5 C    0.957
    35   1 H    0.991 --     8 C    0.972
    36   1 H    0.992 --     8 C    0.976
    37   1 H    0.991 --     8 C    0.972
    38   1 H    0.984 --    11 C    0.964
    39   1 H    0.989 --    11 C    0.973
    40   1 H    0.984 --    11 C    0.883
    41   1 H    0.992 --    12 C    0.959
    42   1 H    0.997 --    13 C    0.961
    43   1 H    0.994 --    14 C    0.968
    44   1 H    0.996 --    14 C    0.972
    45   1 H    0.996 --    15 C    0.960
    46   1 H    0.973 --    15 C    0.937
    47   1 H    0.976 --     2 C    0.907
    48   1 H    0.996 --    16 C    0.962
    49   1 H    0.993 --    18 C    0.967
    50   1 H    0.995 --    18 C    0.969
    51   1 H    0.995 --    19 C    0.971
    52   1 H    0.994 --    19 C    0.969
    53   1 H    0.996 --    21 C    0.967
    54   1 H    0.994 --    22 C    0.962
    55   1 H    0.989 --    25 C    0.971
    56   1 H    0.989 --    25 C    0.971
    57   1 H    0.992 --    25 C    0.976
    58   1 H    0.992 --    28 C    0.976
    59   1 H    0.991 --    28 C    0.972
    60   1 H    0.990 --    28 C    0.972
    61   1 H    0.996 --    29 C    0.962
    62   1 H    0.995 --    30 C    0.966
    63   1 H    0.173
    64   1 H    0.995 --    30 C    0.973
    65   1 H    0.988 --    31 C    0.956
    66   1 H    0.988 --    32 C    0.971
    67   1 H    0.995 --    32 C    0.980
    68   1 H    0.992 --    32 C    0.980
    69   1 H    0.990 --    33 C    0.973
    70   1 H    0.995 --    33 C    0.981
    71   1 H    0.992 --    33 C    0.978
    72   1 H    0.966 --     1 N    0.939
 ---------------------------------------------------------------------------

molecular dipole:
                 x           y           z       tot (Debye)
 q only:        0.945       0.766      -0.617
   full:        1.207       0.647      -0.756       3.974

           -------------------------------------------------
          | TOTAL ENERGY              -99.293341729221 Eh   |
          | GRADIENT NORM               0.001552396267 Eh/α |
          | HOMO-LUMO GAP               0.426189986591 eV   |
           -------------------------------------------------

 * finished run on 2024/04/06 at 11:13:26.050
