   * xtb version 6.6.1 (8d0f1dd) compiled by 'conda@1efc2f54142f' on 2023-08-01
          program call               : xtb xtbopt.xyz --opt crude --input .xc2 --gfn2

   ID    Z sym.   atoms
    1    6 C      1, 3, 5-7, 10, 11, 14
    2    7 N      2, 4, 9, 13
    3    8 O      8, 12
    4    1 H      15-25
########################################################################
[WARNING] Please study the warnings concerning your input carefully
-1- readin_getIntValue: could not parse ''
########################################################################

          :  Hamiltonian                  GFN2-xTB          :
 * total energy  :   -42.0895137 Eh     change       -0.1595879E-10 Eh
   *** GEOMETRY OPTIMIZATION CONVERGED AFTER 1 ITERATIONS ***

 final structure:
================
25
 xtb: 6.6.1 (8d0f1dd)
C            3.16007121796081        1.60146436444592        0.24505356149970
N            2.37405451016208        0.45656698759700        0.13480701567619
C            1.74979145817979       -3.18145222451736       -0.12510437173240
N            1.61862185669774       -1.92487914721994       -0.06877699631700
C            0.58471132743097       -0.98521811676810       -0.05464565664212
C            1.08668812134703        0.33749389511847        0.06538228225070
C            0.11203267388838        1.46385211087619        0.12743758626998
O            0.45280062222160        2.61594679558091        0.24726874688433
N           -1.20503459430013        1.07623660323532        0.04564391780379
C           -2.22912548122842        2.11344421463687        0.09661098466133
C           -1.68754963792894       -0.21020323605354       -0.09143919167616
O           -2.86012722835258       -0.44952727011885       -0.17039191479729
N           -0.73284080333769       -1.25104968203400       -0.13689886225697
C           -1.25750527050770       -2.59417601285677       -0.27616239213708
H            2.58178512007901        2.50246346908881        0.48689767302724
H            3.92624411057730        1.42653101750957        1.00546642806589
H            3.68544393400143        1.76277203276156       -0.70301179540458
H            0.99145953931278       -3.94070473341749       -0.19347569489023
H           -1.73681299589433        3.08227136847718        0.13296169636178
H           -2.86516704502673        2.04245491355189       -0.78537347303986
H           -2.85168568558923        1.97504392392616        0.98112360648380
H           -1.01942308654174       -3.19107279464323        0.60485471289364
H           -0.86461837218756       -3.06239247171904       -1.17799318330295
H           -2.34141091095003       -2.51848412027232       -0.36214571040697
H            2.48802813408602       -1.32914334558183        0.00308264862616

          :  Hamiltonian                  GFN2-xTB          :
         :: total energy             -42.089513701082 Eh    ::
         :: gradient norm              0.005631253425 Eh/a0 ::
         :: HOMO-LUMO gap              0.187774581230 eV    ::
         :: SCC energy               -42.606669966060 Eh    ::
         :: -> dispersion             -0.022198680968 Eh    ::
         :: repulsion energy           0.517041997587 Eh    ::

    * Orbital Energies and Occupations

         #    Occupation            Energy/Eh            Energy/eV
      -------------------------------------------------------------
         1        2.0000           -0.8970577             -24.4102
       ...           ...                  ...                  ...
        25        1.9999           -0.6769684             -18.4212
        26        1.9999           -0.6751299             -18.3712
        27        1.9994           -0.6468583             -17.6019
        28        1.9993           -0.6437977             -17.5186
        29        1.9990           -0.6387456             -17.3812
        30        1.9986           -0.6338125             -17.2469
        31        1.9962           -0.6180435             -16.8178
        32        1.9932           -0.6087650             -16.5653
        33        1.9902           -0.6030640             -16.4102
        34        1.9837           -0.5949107             -16.1883
        35        1.9619           -0.5813007             -15.8180
        36        1.7962           -0.5533496             -15.0574
        37        1.2258           -0.5261628             -14.3176 (HOMO)
        38        1.0119           -0.5192622             -14.1298 (LUMO)
        39        0.0434           -0.4585716             -12.4784
        40        0.0013           -0.4024390             -10.9509
        41        0.0005           -0.3877516             -10.5513
        42        0.0000           -0.3011108              -8.1936
        43                         -0.2104988              -5.7280
        44                         -0.1645919              -4.4788
        45                         -0.1475241              -4.0143
        46                         -0.1109038              -3.0178
        47                         -0.0800164              -2.1774
        48                         -0.0360993              -0.9823
       ...                                ...                  ...
        67                          0.5446208              14.8199
      -------------------------------------------------------------
                  HL-Gap            0.0069006 Eh            0.1878 eV

     #   Z          covCN         q      C6AA      α(0)
     1   6 C        3.691    -0.050    21.664     6.660
     2   7 N        1.845    -0.155    25.141     7.431
     3   6 C        1.841    -0.049    32.481     9.207
     4   7 N        2.694     0.017    20.964     6.800
     5   6 C        2.855     0.085    26.105     8.374
     6   6 C        2.906     0.042    27.069     8.531
     7   6 C        2.766     0.270    22.436     7.757
     8   8 O        0.858    -0.322    20.186     6.024
     9   7 N        2.739    -0.068    22.563     7.055
    10   6 C        3.710    -0.063    21.852     6.681
    11   6 C        2.726     0.317    21.606     7.610
    12   8 O        0.860    -0.340    20.509     6.072
    13   7 N        2.736    -0.026    21.752     6.927
    14   6 C        3.700    -0.074    22.086     6.721
    15   1 H        0.924     0.124     1.585     1.969
    16   1 H        0.924     0.117     1.639     2.002
    17   1 H        0.924     0.123     1.588     1.971
    18   1 H        0.926     0.128     1.551     1.947
    19   1 H        0.925     0.116     1.644     2.005
    20   1 H        0.925     0.108     1.715     2.048
    21   1 H        0.924     0.106     1.730     2.057
    22   1 H        0.924     0.097     1.809     2.103
    23   1 H        0.925     0.097     1.816     2.107
    24   1 H        0.925     0.133     1.511     1.923
    25   1 H        0.857     0.268     0.819     1.418

Wiberg/Mayer (AO) data.
largest (>0.10) Wiberg bond orders for each atom

     #   Z sym  total        # sym  WBO       # sym  WBO       # sym  WBO
 ---------------------------------------------------------------------------
     1   6 C    3.879 --     2 N    1.099    16 H    0.921    15 H    0.904
                            17 H    0.902
     2   7 N    2.870 --     6 C    1.538     1 C    1.099
     3   6 C    2.751 --     4 N    1.686    18 H    0.917
     4   7 N    3.654 --     3 C    1.686     5 C    1.076    25 H    0.800
     5   6 C    3.683 --    13 N    1.250     6 C    1.197     4 N    1.076
     6   6 C    3.919 --     2 N    1.538     5 C    1.197     7 C    0.961
     7   6 C    3.906 --     8 O    1.706     9 N    1.144     6 C    0.961
     8   8 O    2.014 --     7 C    1.706     9 N    0.139
     9   7 N    3.547 --     7 C    1.144    11 C    1.114    10 C    0.963
                             8 O    0.139    12 O    0.124
    10   6 C    3.891 --    19 H    0.966     9 N    0.963    20 H    0.959
                            21 H    0.957
    11   6 C    3.935 --    12 O    1.706     9 N    1.114    13 N    1.030
    12   8 O    2.019 --    11 C    1.706     9 N    0.124    13 N    0.104
    13   7 N    3.492 --     5 C    1.250    11 C    1.030    14 C    0.978
                            12 O    0.104
    14   6 C    3.905 --    13 N    0.978    23 H    0.958    24 H    0.957
                            22 H    0.957
    15   1 H    0.929 --     1 C    0.904
    16   1 H    0.951 --     1 C    0.921
    17   1 H    0.942 --     1 C    0.902
    18   1 H    0.943 --     3 C    0.917
    19   1 H    0.983 --    10 C    0.966
    20   1 H    0.978 --    10 C    0.959
    21   1 H    0.978 --    10 C    0.957
    22   1 H    0.978 --    14 C    0.957
    23   1 H    0.979 --    14 C    0.958
    24   1 H    0.979 --    14 C    0.957
    25   1 H    0.907 --     4 N    0.800
 ---------------------------------------------------------------------------

molecular dipole:
                 x           y           z       tot (Debye)
 q only:        1.664      -1.436      -0.062
   full:        1.528      -1.329      -0.067       5.151

           -------------------------------------------------
          | TOTAL ENERGY              -42.089513701082 Eh   |
          | GRADIENT NORM               0.005631253425 Eh/α |
          | HOMO-LUMO GAP               0.187774581230 eV   |
           -------------------------------------------------

 * finished run on 2024/06/05 at 20:00:08.386
