   * xtb version 6.6.1 (8d0f1dd) compiled by 'conda@1efc2f54142f' on 2023-08-01
          program call               : xtb struc.xyz --opt loose --input .xc1 --gfn2

   ID    Z sym.   atoms
    1    7 N      1, 17
    2    6 C      2-6, 8, 9, 11-16, 18-23, 25, 26, 28-33
    3    8 O      7, 10, 24, 27
    4    1 H      34-72
constraining bond 12 42 to    2.7133300 Å, actual value:    2.1297062 Å

          :  Hamiltonian                  GFN2-xTB          :
 * total energy  :   -99.4649491 Eh     change       -0.4035485E-08 Eh
 * total energy  :   -99.5418032 Eh     change       -0.7685403E-01 Eh
 * total energy  :   -99.6275386 Eh     change       -0.8573538E-01 Eh
 * total energy  :   -99.6533247 Eh     change       -0.2578616E-01 Eh
 * total energy  :   -99.6939491 Eh     change       -0.4062443E-01 Eh
 * total energy  :   -99.7189010 Eh     change       -0.2495189E-01 Eh
 * total energy  :   -99.7326778 Eh     change       -0.1377672E-01 Eh
 * total energy  :   -99.7597854 Eh     change       -0.2710766E-01 Eh
 * total energy  :   -99.7806860 Eh     change       -0.2090055E-01 Eh
 * total energy  :   -99.8053257 Eh     change       -0.2463977E-01 Eh
 * total energy  :   -99.8642996 Eh     change       -0.1370207E-03 Eh
 * total energy  :   -99.8645765 Eh     change       -0.2769110E-03 Eh
 * total energy  :   -99.8647428 Eh     change       -0.1662857E-03 Eh
 * total energy  :   -99.8648845 Eh     change       -0.1417264E-03 Eh
 * total energy  :   -99.8649579 Eh     change       -0.7342869E-04 Eh
 * total energy  :   -99.8650431 Eh     change       -0.8515545E-04 Eh
 * total energy  :   -99.8651060 Eh     change       -0.6296120E-04 Eh
 * total energy  :   -99.8651562 Eh     change       -0.5018786E-04 Eh
 * total energy  :   -99.8651980 Eh     change       -0.4175737E-04 Eh
   *** GEOMETRY OPTIMIZATION CONVERGED AFTER 28 ITERATIONS ***

 final structure:
================
72
 xtb: 6.6.1 (8d0f1dd)
N           -1.92565273546951        2.67715920783151        2.25247105481327
C           -1.84980276620125        2.05424014803154        1.17259144257234
C           -2.97000167546880        1.93960713104046        0.17166522592062
C           -3.44240941740217        0.49605039066083        0.26741885990279
C           -4.47287100452068        0.02043954126579       -0.58615623306349
C           -4.95073818704117       -1.28272046090259       -0.47384951472081
O           -5.90864615385621       -1.82536333337020       -1.27109562676758
C           -6.54688427191422       -1.00831432130685       -2.22288352886490
C           -4.45043912712295       -2.14068434203035        0.51110658655490
O           -4.98588343786938       -3.36399550350501        0.58157217293523
C           -4.56425180335468       -4.26352233302848        1.57971289535121
C           -3.36562392000792       -1.69879036153872        1.46307335102634
C           -2.85987952071964       -0.33357333552475        1.16211639677813
C           -2.39545139845201        2.23637885960409       -1.23290331583309
C           -1.45004786680548        1.14964303967561       -1.77421904856016
C           -0.11467052038317        1.16357154508919       -1.13694416844078
N            0.54936395922300        0.09576166988293       -0.71416658837758
C            1.92825674571406        0.19867150857844       -0.30284146704908
C            2.88768204775298       -0.31807085560665       -1.39216785758499
C            4.30893229927631       -0.12499118045504       -0.94361166715226
C            4.95254104207395        1.08382644238258       -1.15032910395460
C            6.24907010571089        1.28320984703827       -0.70233428726963
C            6.92765543748883        0.27485897532019       -0.03350326758858
O            8.18357367575886        0.35738823485235        0.44521800932321
C            8.91031071540743        1.55031736003454        0.26114165917255
C            6.27540522983089       -0.96985031992751        0.18281266288053
O            7.00800802732326       -1.89577032147575        0.83483113977155
C            6.45760067395375       -3.16998841994122        1.06649524749059
C            4.97777169103629       -1.14465638551212       -0.27101658964562
C           -0.07451673748353       -1.20249505687807       -0.64769730662031
C           -4.16206495535931        2.89355322440219        0.46581889593956
C           -4.86382910908625        2.53786242139851        1.77458649084472
C           -3.74836569787549        4.36299841482598        0.48980392061862
H           -4.88215099094229        0.67849699803207       -1.33373444257417
H           -7.03489270848618       -0.14908837525765       -1.75337403200204
H           -7.30095838916319       -1.64077384526648       -2.68711308590068
H           -5.84789293256782       -0.66098009927642       -2.99061393047440
H           -4.72265772233337       -3.85822904602062        2.58314560138735
H           -5.17620006907425       -5.15391952713328        1.44952840848827
H           -3.50936116263484       -4.53129645923667        1.46067620651825
H           -2.52458519344028       -2.41640717581692        1.35327117306441
H           -3.63225242356624       -1.72373905716899        2.26561103481795
H           -3.22498933899780        2.34028867871022       -1.93255838708275
H           -1.86413545005151        3.18805556748488       -1.20487681284050
H           -1.92851951953235        0.17566575144952       -1.69080668058734
H           -1.30368044951369        1.36109078587934       -2.84126605511265
H           -0.93723851442040        1.54166172451889        0.82200153903504
H            0.42351689690286        2.09982256970997       -1.13443975052401
H            2.07516231239603       -0.37816939489187        0.61426993010224
H            2.16599021155711        1.24285877100762       -0.09052123875431
H            2.70692853350319        0.24065346379202       -2.31209879443345
H            2.69128004506915       -1.37348664674681       -1.58445589538484
H            4.44888824109233        1.88125600427926       -1.67540716524776
H            6.72554675691481        2.23251910221563       -0.88345189728682
H            8.42469164324650        2.39594729608655        0.75784520517554
H            9.04465725522545        1.77770843430902       -0.80065396236924
H            9.88207667261811        1.37356222384068        0.71797468650793
H            7.23330793707456       -3.73441687834722        1.58026188539237
H            5.56961307920555       -3.11423882827524        1.70462915411669
H            6.20431488840439       -3.67452294934511        0.12876711585776
H            4.47530079514057       -2.08669215771206       -0.11632555166133
H           -0.29575694125372       -1.58996864516823       -1.64415560418919
H           -1.00728235272335       -1.12688258929519       -0.07873922887298
H            0.59243046503632       -1.89731840243791       -0.14430367620661
H           -4.88225785516788        2.75967930505586       -0.35020016061995
H           -4.17696889939841        2.65555511985244        2.60639931390654
H           -5.22899548326305        1.51385659602160        1.76165923702617
H           -5.71166296366349        3.20118666114546        1.92519465413146
H           -3.00812936227881        4.53133864318743        1.26596998329441
H           -3.34633879795381        4.68701523773599       -0.46661482342878
H           -4.61744691895596        4.97721232044598        0.71027337045621
H           -1.10697704116377        2.68608691422034        2.85278107847073

          :  Hamiltonian                  GFN2-xTB          :
         :: total energy             -99.865197983540 Eh    ::
         :: gradient norm              0.003467466198 Eh/a0 ::
         :: HOMO-LUMO gap              0.799869673812 eV    ::
         :: SCC energy              -100.674307945169 Eh    ::
         :: -> dispersion             -0.074539162855 Eh    ::
         :: repulsion energy           1.430533122835 Eh    ::

    * Orbital Energies and Occupations

         #    Occupation            Energy/Eh            Energy/eV
      -------------------------------------------------------------
         1        2.0000           -0.8287203             -22.5506
       ...           ...                  ...                  ...
        78        1.9985           -0.5254429             -14.2980
        79        1.9984           -0.5246124             -14.2754
        80        1.9984           -0.5237829             -14.2529
        81        1.9980           -0.5209302             -14.1752
        82        1.9974           -0.5163146             -14.0496
        83        1.9955           -0.5079844             -13.8230
        84        1.9953           -0.5070204             -13.7967
        85        1.9943           -0.5042148             -13.7204
        86        1.9806           -0.4846324             -13.1875
        87        1.9386           -0.4660158             -12.6809
        88        1.9290           -0.4636433             -12.6164
        89        1.8578           -0.4520508             -12.3009
        90        1.3909           -0.4244351             -11.5495 (HOMO)
        91        0.5259           -0.3950405             -10.7496 (LUMO)
        92        0.3896           -0.3888914             -10.5823
        93        0.0101           -0.3277160              -8.9176
        94        0.0030           -0.3083724              -8.3912
        95        0.0026           -0.3060956              -8.3293
        96        0.0023           -0.3042646              -8.2795
        97        0.0000           -0.2258931              -6.1469
        98        0.0000           -0.1834235              -4.9912
        99                         -0.1305216              -3.5517
       100                         -0.0839723              -2.2850
       101                         -0.0644634              -1.7541
       ...                                ...                  ...
       171                          0.7876603              21.4333
      -------------------------------------------------------------
                  HL-Gap            0.0293947 Eh            0.7999 eV

     #   Z          covCN         q      C6AA      α(0)
     1   7 N        1.774    -0.268    27.771     7.804
     2   6 C        2.833     0.103    25.707     8.309
     3   6 C        3.911     0.007    20.406     6.421
     4   6 C        2.970     0.011    27.763     8.643
     5   6 C        2.916    -0.071    29.776     8.948
     6   6 C        2.847     0.123    25.300     8.244
     7   8 O        1.706    -0.249    18.128     5.748
     8   6 C        3.643     0.031    20.389     6.491
     9   6 C        2.851     0.120    25.349     8.252
    10   8 O        1.706    -0.199    17.312     5.618
    11   6 C        3.645     0.022    20.541     6.514
    12   6 C        3.812    -0.081    22.027     6.680
    13   6 C        1.984    -0.156    35.480     9.619
    14   6 C        3.809    -0.065    21.733     6.636
    15   6 C        3.802    -0.068    21.797     6.647
    16   6 C        2.845     0.008    27.841     8.647
    17   7 N        2.729     0.013    21.027     6.810
    18   6 C        3.756    -0.017    20.936     6.524
    19   6 C        3.808    -0.070    21.836     6.652
    20   6 C        2.970    -0.001    28.048     8.687
    21   6 C        2.922    -0.050    29.230     8.866
    22   6 C        2.914    -0.068    29.690     8.935
    23   6 C        2.865     0.133    25.096     8.212
    24   8 O        1.706    -0.224    17.717     5.683
    25   6 C        3.645     0.026    20.477     6.503
    26   6 C        2.863     0.132    25.105     8.213
    27   8 O        1.706    -0.227    17.761     5.690
    28   6 C        3.645     0.028    20.439     6.498
    29   6 C        2.920    -0.080    29.996     8.981
    30   6 C        3.701    -0.073    22.064     6.717
    31   6 C        3.852    -0.007    20.659     6.465
    32   6 C        3.756    -0.117    22.804     6.809
    33   6 C        3.755    -0.118    22.811     6.810
    34   1 H        0.926     0.056     2.248     2.345
    35   1 H        0.924     0.051     2.304     2.374
    36   1 H        0.925     0.079     1.990     2.206
    37   1 H        0.924     0.045     2.377     2.411
    38   1 H        0.924     0.063     2.165     2.301
    39   1 H        0.925     0.089     1.886     2.147
    40   1 H        0.924     0.058     2.228     2.334
    41   1 H        0.921     0.069     2.098     2.265
    42   1 H        0.930     0.121     1.603     1.980
    43   1 H        0.925     0.056     2.244     2.342
    44   1 H        0.924     0.053     2.286     2.364
    45   1 H        0.925     0.064     2.153     2.294
    46   1 H        0.924     0.078     2.002     2.213
    47   1 H        0.923     0.014     2.821     2.627
    48   1 H        0.926     0.069     2.094     2.263
    49   1 H        0.924     0.067     2.114     2.274
    50   1 H        0.924     0.068     2.106     2.270
    51   1 H        0.924     0.055     2.258     2.350
    52   1 H        0.924     0.054     2.268     2.355
    53   1 H        0.926     0.044     2.394     2.420
    54   1 H        0.926     0.058     2.228     2.334
    55   1 H        0.924     0.053     2.280     2.361
    56   1 H        0.924     0.055     2.260     2.351
    57   1 H        0.925     0.081     1.966     2.193
    58   1 H        0.925     0.081     1.972     2.196
    59   1 H        0.924     0.047     2.353     2.399
    60   1 H        0.924     0.051     2.303     2.373
    61   1 H        0.926     0.046     2.371     2.408
    62   1 H        0.924     0.074     2.045     2.236
    63   1 H        0.924     0.085     1.929     2.172
    64   1 H        0.925     0.077     2.005     2.215
    65   1 H        0.924     0.033     2.538     2.491
    66   1 H        0.925     0.071     2.079     2.255
    67   1 H        0.925     0.032     2.558     2.501
    68   1 H        0.925     0.049     2.337     2.391
    69   1 H        0.925     0.060     2.204     2.321
    70   1 H        0.925     0.033     2.540     2.492
    71   1 H        0.925     0.052     2.291     2.367
    72   1 H        0.860     0.157     1.357     1.825

Wiberg/Mayer (AO) data.
largest (>0.10) Wiberg bond orders for each atom

     #   Z sym  total        # sym  WBO       # sym  WBO       # sym  WBO
 ---------------------------------------------------------------------------
     1   7 N    3.029 --     2 C    1.949    72 H    0.941
     2   6 C    3.929 --     1 N    1.949     3 C    0.988    47 H    0.899
     3   6 C    3.966 --     2 C    0.988    14 C    0.963     4 C    0.957
                            31 C    0.948
     4   6 C    3.924 --    13 C    1.582     5 C    1.233     3 C    0.957
     5   6 C    3.710 --     6 C    1.353     4 C    1.233    34 H    0.955
     6   6 C    3.910 --     5 C    1.353     9 C    1.324     7 O    1.070
     7   8 O    2.224 --     6 C    1.070     8 C    0.980
     8   6 C    3.933 --     7 O    0.980    36 H    0.977    35 H    0.974
                            37 H    0.974
     9   6 C    3.654 --     6 C    1.324    10 O    1.152    12 C    0.994
    10   8 O    2.278 --     9 C    1.152    11 C    0.973
    11   6 C    3.923 --    39 H    0.976    10 O    0.973    38 H    0.970
                            40 H    0.968
    12   6 C    3.946 --    13 C    1.040     9 C    0.994    42 H    0.922
                            41 H    0.910
    13   6 C    2.859 --     4 C    1.582    12 C    1.040
    14   6 C    3.972 --    15 C    0.980    44 H    0.972    43 H    0.970
                             3 C    0.963
    15   6 C    3.987 --    16 C    1.059    14 C    0.980    45 H    0.963
                            46 H    0.929
    16   6 C    3.592 --    17 N    1.402    15 C    1.059    48 H    0.958
    17   7 N    3.480 --    16 C    1.402    30 C    0.998    18 C    0.989
    18   6 C    3.956 --    17 N    0.989    50 H    0.967    19 C    0.967
                            49 H    0.964
    19   6 C    3.977 --    20 C    1.008    52 H    0.972    51 H    0.972
                            18 C    0.967
    20   6 C    3.947 --    21 C    1.411    29 C    1.380    19 C    1.008
    21   6 C    3.953 --    22 C    1.416    20 C    1.411    53 H    0.968
    22   6 C    3.961 --    21 C    1.416    23 C    1.385    54 H    0.963
    23   6 C    3.898 --    22 C    1.385    26 C    1.223    24 O    1.107
    24   8 O    2.255 --    23 C    1.107    25 C    0.977
    25   6 C    3.929 --    57 H    0.977    24 O    0.977    55 H    0.973
                            56 H    0.973
    26   6 C    3.901 --    29 C    1.396    23 C    1.223    27 O    1.101
    27   8 O    2.254 --    26 C    1.101    28 C    0.979
    28   6 C    3.933 --    27 O    0.979    58 H    0.977    59 H    0.974
                            60 H    0.974
    29   6 C    3.961 --    26 C    1.396    20 C    1.380    61 H    0.963
    30   6 C    3.955 --    17 N    0.998    64 H    0.978    62 H    0.967
                            63 H    0.952
    31   6 C    3.976 --    32 C    1.008    33 C    1.008    65 H    0.960
                             3 C    0.948
    32   6 C    3.979 --    31 C    1.008    67 H    0.983    68 H    0.982
                            66 H    0.973
    33   6 C    3.984 --    31 C    1.008    70 H    0.983    71 H    0.981
                            69 H    0.978
    34   1 H    0.988 --     5 C    0.955
    35   1 H    0.994 --     8 C    0.974
    36   1 H    0.993 --     8 C    0.977
    37   1 H    0.995 --     8 C    0.974
    38   1 H    0.990 --    11 C    0.970
    39   1 H    0.991 --    11 C    0.976
    40   1 H    0.991 --    11 C    0.968
    41   1 H    0.960 --    12 C    0.910
    42   1 H    0.966 --    12 C    0.922
    43   1 H    0.995 --    14 C    0.970
    44   1 H    0.996 --    14 C    0.972
    45   1 H    0.995 --    15 C    0.963
    46   1 H    0.969 --    15 C    0.929
    47   1 H    0.983 --     2 C    0.899
    48   1 H    0.995 --    16 C    0.958
    49   1 H    0.990 --    18 C    0.964
    50   1 H    0.994 --    18 C    0.967
    51   1 H    0.996 --    19 C    0.972
    52   1 H    0.996 --    19 C    0.972
    53   1 H    0.997 --    21 C    0.968
    54   1 H    0.995 --    22 C    0.963
    55   1 H    0.992 --    25 C    0.973
    56   1 H    0.992 --    25 C    0.973
    57   1 H    0.993 --    25 C    0.977
    58   1 H    0.993 --    28 C    0.977
    59   1 H    0.994 --    28 C    0.974
    60   1 H    0.993 --    28 C    0.974
    61   1 H    0.997 --    29 C    0.963
    62   1 H    0.986 --    30 C    0.967
    63   1 H    0.986 --    30 C    0.952
    64   1 H    0.994 --    30 C    0.978
    65   1 H    0.993 --    31 C    0.960
    66   1 H    0.991 --    32 C    0.973
    67   1 H    0.997 --    32 C    0.983
    68   1 H    0.994 --    32 C    0.982
    69   1 H    0.994 --    33 C    0.978
    70   1 H    0.997 --    33 C    0.983
    71   1 H    0.994 --    33 C    0.981
    72   1 H    0.969 --     1 N    0.941
 ---------------------------------------------------------------------------

molecular dipole:
                 x           y           z       tot (Debye)
 q only:        0.233      -0.630      -0.484
   full:        0.243      -0.834      -0.833       3.059

           -------------------------------------------------
          | TOTAL ENERGY              -99.865197983540 Eh   |
          | GRADIENT NORM               0.003467466198 Eh/α |
          | HOMO-LUMO GAP               0.799869673812 eV   |
           -------------------------------------------------

 * finished run on 2024/04/06 at 11:16:23.349
