   * xtb version 6.6.1 (8d0f1dd) compiled by 'conda@1efc2f54142f' on 2023-08-01
          program call               : xtb xtbopt.xyz --opt crude --input .xc2 --gfn2

   ID    Z sym.   atoms
    1    7 N      1, 17
    2    6 C      2-6, 8, 9, 11-16, 18-23, 25, 26, 28-33
    3    8 O      7, 10, 24, 27
    4    1 H      34-72
########################################################################
[WARNING] Please study the warnings concerning your input carefully
-1- readin_getIntValue: could not parse ''
########################################################################

          :  Hamiltonian                  GFN2-xTB          :
 * total energy  :   -99.2426222 Eh     change       -0.2991385E-10 Eh
 * total energy  :   -99.3031095 Eh     change       -0.6048727E-01 Eh
 * total energy  :   -99.3044911 Eh     change       -0.1381597E-02 Eh
 * total energy  :   -99.3051748 Eh     change       -0.6836709E-03 Eh
 * total energy  :   -99.3052120 Eh     change       -0.3726082E-04 Eh
   *** GEOMETRY OPTIMIZATION CONVERGED AFTER 5 ITERATIONS ***

 final structure:
================
72
 xtb: 6.6.1 (8d0f1dd)
N           -1.92918737336157        2.67246697939565        2.25179888723919
C           -1.85127503278156        2.05228650482461        1.17053886325663
C           -2.96930245541491        1.93740676267935        0.16726091911174
C           -3.43636788960756        0.49276796183136        0.25655707111559
C           -4.47180267320450        0.01903953381670       -0.59054384805329
C           -4.95499500254429       -1.28238165318988       -0.47919974730717
O           -5.92900119271799       -1.81542358059666       -1.26375474301445
C           -6.55922854845717       -0.99798485451469       -2.22181047410458
C           -4.44580990850111       -2.14677111339602        0.49627117547313
O           -4.99793241132151       -3.36203080860434        0.58491462100181
C           -4.56810177295040       -4.26262709100346        1.57797930636245
C           -3.34059554789967       -1.70602260533136        1.40322834291050
C           -2.83983849809937       -0.34630015814475        1.13752889236903
C           -2.39288373417417        2.23876662808825       -1.23602110632301
C           -1.44261113085340        1.15631729025488       -1.77762339931987
C           -0.10986535932513        1.16960930564242       -1.13501215669053
N            0.55381629785918        0.10044573897034       -0.71418313030151
C            1.93259891035694        0.20174162578140       -0.30239444778105
C            2.89130848682318       -0.31624933755911       -1.39163522626882
C            4.31283771364212       -0.12400333887903       -0.94375867888413
C            4.95720028930939        1.08437771302125       -1.15095117364801
C            6.25405242871279        1.28287021253520       -0.70351983642704
C            6.93224579644581        0.27424936837034       -0.03474685331504
O            8.18839111947099        0.35624386702274        0.44369041040692
C            8.91534166201702        1.54911319629958        0.26003042825901
C            6.27931931679381       -0.96998934333578        0.18192429509306
O            7.01161509736011       -1.89644026073455        0.83375352969846
C            6.46053870606281       -3.17033722768734        1.06576341727313
C            4.98140189466081       -1.14396814349616       -0.27135339475299
C           -0.07174078807809       -1.19679373767357       -0.64821085279712
C           -4.16408803328015        2.88793726612164        0.46058405883633
C           -4.86557149890582        2.52806010002756        1.76834907491390
C           -3.75611633373368        4.35890332155188        0.48691737124370
H           -4.88757721760980        0.68212541897039       -1.33039050890797
H           -7.04569288487148       -0.13486146309209       -1.75738725253128
H           -7.31435543882538       -1.62839594028436       -2.68703599236689
H           -5.85464144162794       -0.65652527188529       -2.98745129432904
H           -4.71876594992045       -3.85552628435109        2.58226874826269
H           -5.18244582161612       -5.15227840106920        1.45368797009139
H           -3.51439749454993       -4.53065153174643        1.45263853968629
H           -2.52155781693120       -2.43908615870410        1.37492133165065
H           -3.70098266890404       -1.72727452987601        2.44413516956558
H           -3.22204335040083        2.33984118085559       -1.93648201370016
H           -1.86550558120603        3.19256559404450       -1.20599105604885
H           -1.91989156119441        0.18114913345850       -1.70086726928849
H           -1.29200056264401        1.37320762102814       -2.84318246026540
H           -0.93816312899614        1.54123745758665        0.81961069866913
H            0.42917634164195        2.10537328179790       -1.13072978470493
H            2.07857641253416       -0.37545331746221        0.61471333139359
H            2.17159994220317        1.24559138475642       -0.08988957247123
H            2.71065702054873        0.24202430030046       -2.31183791794014
H            2.69409377265236       -1.37161764209937       -1.58320263580235
H            4.45389794547255        1.88212952106625       -1.67585639078501
H            6.73122602436737        2.23176303326142       -0.88508472610781
H            8.42953199527333        2.39474519601888        0.75650402862931
H            9.05031289922499        1.77651754158958       -0.80165760531333
H            9.88679636531038        1.37215377392809        0.71741745936141
H            7.23652220931221       -3.73531567280029        1.57851907904135
H            5.57336679406103       -3.11406794767439        1.70496990582135
H            6.20583997548746       -3.67454085275073        0.12826719557894
H            4.47851865377638       -2.08571887939829       -0.11617231241330
H           -0.29005717556225       -1.58540966754880       -1.64490419006641
H           -1.00626781050304       -1.11882777095781       -0.08150776886936
H            0.59293626589982       -1.89186930037292       -0.14196403661101
H           -4.88278744507217        2.75320455255563       -0.35654737710161
H           -4.17958679301448        2.64921130398197        2.60036668880189
H           -5.22440262239044        1.50179336821076        1.75430674224154
H           -5.71708348924989        3.18662633793430        1.91872895867261
H           -3.01865902570986        4.52993532625613        1.26495327735897
H           -3.35347121407949        4.68620332947716       -0.46803250923863
H           -4.62870040600182        4.96882778105285        0.70578996448612
H           -1.11185265419067        2.68005359434896        2.85326883257263

          :  Hamiltonian                  GFN2-xTB          :
         :: total energy             -99.305212041929 Eh    ::
         :: gradient norm              0.000572977491 Eh/a0 ::
         :: HOMO-LUMO gap              0.811052018766 eV    ::
         :: SCC energy              -100.653722878927 Eh    ::
         :: -> dispersion             -0.074548331618 Eh    ::
         :: repulsion energy           1.347367429983 Eh    ::

    * Orbital Energies and Occupations

         #    Occupation            Energy/Eh            Energy/eV
      -------------------------------------------------------------
         1        2.0000           -0.8280492             -22.5324
       ...           ...                  ...                  ...
        78        1.9985           -0.5253199             -14.2947
        79        1.9985           -0.5246208             -14.2757
        80        1.9983           -0.5236040             -14.2480
        81        1.9980           -0.5207745             -14.1710
        82        1.9974           -0.5161948             -14.0464
        83        1.9956           -0.5079555             -13.8222
        84        1.9953           -0.5068653             -13.7925
        85        1.9943           -0.5040616             -13.7162
        86        1.9807           -0.4845107             -13.1842
        87        1.9382           -0.4657685             -12.6742
        88        1.9282           -0.4633169             -12.6075
        89        1.8580           -0.4519373             -12.2978
        90        1.3977           -0.4245462             -11.5525 (HOMO)
        91        0.5221           -0.3947406             -10.7414 (LUMO)
        92        0.3874           -0.3886350             -10.5753
        93        0.0101           -0.3276207              -8.9150
        94        0.0030           -0.3082463              -8.3878
        95        0.0026           -0.3059812              -8.3262
        96        0.0023           -0.3041741              -8.2770
        97        0.0000           -0.2274684              -6.1897
        98        0.0000           -0.1832862              -4.9875
        99                         -0.1300935              -3.5400
       100                         -0.0819999              -2.2313
       101                         -0.0642528              -1.7484
       ...                                ...                  ...
       171                          0.5806797              15.8011
      -------------------------------------------------------------
                  HL-Gap            0.0298056 Eh            0.8111 eV

     #   Z          covCN         q      C6AA      α(0)
     1   7 N        1.774    -0.268    27.774     7.804
     2   6 C        2.834     0.103    25.705     8.308
     3   6 C        3.910     0.007    20.405     6.421
     4   6 C        2.971     0.011    27.756     8.642
     5   6 C        2.916    -0.071    29.775     8.948
     6   6 C        2.847     0.123    25.293     8.242
     7   8 O        1.706    -0.249    18.125     5.748
     8   6 C        3.643     0.031    20.393     6.492
     9   6 C        2.851     0.123    25.291     8.242
    10   8 O        1.706    -0.199    17.311     5.618
    11   6 C        3.645     0.022    20.536     6.513
    12   6 C        3.810    -0.060    21.653     6.624
    13   6 C        1.984    -0.154    35.417     9.611
    14   6 C        3.809    -0.065    21.732     6.636
    15   6 C        3.802    -0.068    21.794     6.646
    16   6 C        2.845     0.008    27.840     8.647
    17   7 N        2.729     0.013    21.029     6.811
    18   6 C        3.756    -0.017    20.934     6.524
    19   6 C        3.808    -0.070    21.835     6.652
    20   6 C        2.970    -0.001    28.048     8.687
    21   6 C        2.922    -0.050    29.230     8.866
    22   6 C        2.914    -0.068    29.690     8.935
    23   6 C        2.865     0.133    25.096     8.212
    24   8 O        1.706    -0.224    17.718     5.683
    25   6 C        3.645     0.026    20.477     6.503
    26   6 C        2.863     0.132    25.105     8.213
    27   8 O        1.706    -0.227    17.763     5.690
    28   6 C        3.645     0.028    20.439     6.498
    29   6 C        2.920    -0.080    29.995     8.981
    30   6 C        3.701    -0.073    22.066     6.717
    31   6 C        3.852    -0.007    20.660     6.465
    32   6 C        3.756    -0.117    22.805     6.809
    33   6 C        3.755    -0.118    22.810     6.810
    34   1 H        0.926     0.056     2.248     2.345
    35   1 H        0.924     0.051     2.303     2.373
    36   1 H        0.925     0.079     1.989     2.205
    37   1 H        0.924     0.046     2.376     2.411
    38   1 H        0.924     0.063     2.169     2.303
    39   1 H        0.925     0.090     1.880     2.144
    40   1 H        0.924     0.057     2.232     2.336
    41   1 H        0.923     0.071     2.079     2.255
    42   1 H        0.923     0.093     1.846     2.125
    43   1 H        0.925     0.056     2.244     2.343
    44   1 H        0.924     0.053     2.285     2.364
    45   1 H        0.925     0.064     2.154     2.295
    46   1 H        0.924     0.078     2.003     2.213
    47   1 H        0.923     0.015     2.812     2.622
    48   1 H        0.926     0.069     2.095     2.263
    49   1 H        0.924     0.067     2.115     2.274
    50   1 H        0.924     0.068     2.107     2.270
    51   1 H        0.924     0.055     2.259     2.350
    52   1 H        0.924     0.054     2.268     2.355
    53   1 H        0.926     0.044     2.395     2.420
    54   1 H        0.926     0.057     2.229     2.334
    55   1 H        0.924     0.053     2.280     2.362
    56   1 H        0.924     0.055     2.260     2.351
    57   1 H        0.925     0.081     1.966     2.193
    58   1 H        0.925     0.081     1.972     2.196
    59   1 H        0.924     0.047     2.353     2.399
    60   1 H        0.924     0.051     2.304     2.374
    61   1 H        0.926     0.046     2.371     2.408
    62   1 H        0.924     0.073     2.049     2.238
    63   1 H        0.924     0.086     1.920     2.167
    64   1 H        0.925     0.077     2.009     2.217
    65   1 H        0.924     0.033     2.538     2.491
    66   1 H        0.925     0.071     2.079     2.255
    67   1 H        0.925     0.032     2.561     2.502
    68   1 H        0.925     0.049     2.336     2.390
    69   1 H        0.925     0.060     2.205     2.322
    70   1 H        0.925     0.033     2.539     2.492
    71   1 H        0.925     0.052     2.291     2.367
    72   1 H        0.860     0.157     1.356     1.824

Wiberg/Mayer (AO) data.
largest (>0.10) Wiberg bond orders for each atom

     #   Z sym  total        # sym  WBO       # sym  WBO       # sym  WBO
 ---------------------------------------------------------------------------
     1   7 N    3.029 --     2 C    1.950    72 H    0.941
     2   6 C    3.928 --     1 N    1.950     3 C    0.988    47 H    0.899
     3   6 C    3.967 --     2 C    0.988    14 C    0.962     4 C    0.958
                            31 C    0.948
     4   6 C    3.924 --    13 C    1.571     5 C    1.239     3 C    0.958
     5   6 C    3.717 --     6 C    1.354     4 C    1.239    34 H    0.954
     6   6 C    3.910 --     5 C    1.354     9 C    1.321     7 O    1.071
     7   8 O    2.224 --     6 C    1.071     8 C    0.979
     8   6 C    3.933 --     7 O    0.979    36 H    0.977    37 H    0.974
                            35 H    0.974
     9   6 C    3.662 --     6 C    1.321    10 O    1.150    12 C    1.007
    10   8 O    2.277 --     9 C    1.150    11 C    0.974
    11   6 C    3.923 --    39 H    0.976    10 O    0.974    40 H    0.968
                            38 H    0.968
    12   6 C    3.954 --    13 C    1.053     9 C    1.007    41 H    0.919
                            42 H    0.898
    13   6 C    2.861 --     4 C    1.571    12 C    1.053
    14   6 C    3.972 --    15 C    0.980    44 H    0.972    43 H    0.970
                             3 C    0.962
    15   6 C    3.987 --    16 C    1.059    14 C    0.980    45 H    0.963
                            46 H    0.929
    16   6 C    3.592 --    17 N    1.401    15 C    1.059    48 H    0.958
    17   7 N    3.480 --    16 C    1.401    30 C    0.999    18 C    0.989
    18   6 C    3.956 --    17 N    0.989    50 H    0.967    19 C    0.967
                            49 H    0.964
    19   6 C    3.977 --    20 C    1.008    52 H    0.972    51 H    0.971
                            18 C    0.967
    20   6 C    3.947 --    21 C    1.411    29 C    1.380    19 C    1.008
    21   6 C    3.953 --    22 C    1.416    20 C    1.411    53 H    0.968
    22   6 C    3.962 --    21 C    1.416    23 C    1.385    54 H    0.963
    23   6 C    3.898 --    22 C    1.385    26 C    1.223    24 O    1.107
    24   8 O    2.255 --    23 C    1.107    25 C    0.977
    25   6 C    3.930 --    57 H    0.977    24 O    0.977    55 H    0.973
                            56 H    0.973
    26   6 C    3.901 --    29 C    1.396    23 C    1.223    27 O    1.101
    27   8 O    2.254 --    26 C    1.101    28 C    0.979
    28   6 C    3.933 --    27 O    0.979    58 H    0.977    59 H    0.974
                            60 H    0.974
    29   6 C    3.961 --    26 C    1.396    20 C    1.380    61 H    0.963
    30   6 C    3.954 --    17 N    0.999    64 H    0.978    62 H    0.967
                            63 H    0.950
    31   6 C    3.976 --    33 C    1.008    32 C    1.008    65 H    0.960
                             3 C    0.948
    32   6 C    3.979 --    31 C    1.008    67 H    0.983    68 H    0.982
                            66 H    0.973
    33   6 C    3.984 --    31 C    1.008    70 H    0.983    71 H    0.981
                            69 H    0.978
    34   1 H    0.988 --     5 C    0.954
    35   1 H    0.994 --     8 C    0.974
    36   1 H    0.993 --     8 C    0.977
    37   1 H    0.995 --     8 C    0.974
    38   1 H    0.990 --    11 C    0.968
    39   1 H    0.991 --    11 C    0.976
    40   1 H    0.991 --    11 C    0.968
    41   1 H    0.964 --    12 C    0.919
    42   1 H    0.953 --    12 C    0.898
    43   1 H    0.995 --    14 C    0.970
    44   1 H    0.996 --    14 C    0.972
    45   1 H    0.995 --    15 C    0.963
    46   1 H    0.969 --    15 C    0.929
    47   1 H    0.983 --     2 C    0.899
    48   1 H    0.995 --    16 C    0.958
    49   1 H    0.990 --    18 C    0.964
    50   1 H    0.994 --    18 C    0.967
    51   1 H    0.996 --    19 C    0.971
    52   1 H    0.996 --    19 C    0.972
    53   1 H    0.997 --    21 C    0.968
    54   1 H    0.995 --    22 C    0.963
    55   1 H    0.992 --    25 C    0.973
    56   1 H    0.992 --    25 C    0.973
    57   1 H    0.993 --    25 C    0.977
    58   1 H    0.993 --    28 C    0.977
    59   1 H    0.994 --    28 C    0.974
    60   1 H    0.993 --    28 C    0.974
    61   1 H    0.997 --    29 C    0.963
    62   1 H    0.986 --    30 C    0.967
    63   1 H    0.985 --    30 C    0.950
    64   1 H    0.994 --    30 C    0.978
    65   1 H    0.993 --    31 C    0.960
    66   1 H    0.991 --    32 C    0.973
    67   1 H    0.997 --    32 C    0.983
    68   1 H    0.994 --    32 C    0.982
    69   1 H    0.994 --    33 C    0.978
    70   1 H    0.997 --    33 C    0.983
    71   1 H    0.994 --    33 C    0.981
    72   1 H    0.969 --     1 N    0.941
 ---------------------------------------------------------------------------

molecular dipole:
                 x           y           z       tot (Debye)
 q only:        0.225      -0.623      -0.497
   full:        0.233      -0.837      -0.820       3.037

           -------------------------------------------------
          | TOTAL ENERGY              -99.305212041929 Eh   |
          | GRADIENT NORM               0.000572977491 Eh/α |
          | HOMO-LUMO GAP               0.811052018766 eV   |
           -------------------------------------------------

 * finished run on 2024/04/06 at 11:16:24.467
