   * xtb version 6.6.1 (8d0f1dd) compiled by 'conda@1efc2f54142f' on 2023-08-01
          program call               : xtb xtbopt.xyz --opt crude --input .xc2 --gfn2

   ID    Z sym.   atoms
    1    7 N      1, 17
    2    6 C      2-6, 8, 9, 11-16, 18-23, 25, 26, 28-33
    3    8 O      7, 10, 24, 27
    4    1 H      34-72

          :  Hamiltonian                  GFN2-xTB          :
 * total energy  :   -99.2681316 Eh     change       -0.3925038E-10 Eh
   *** GEOMETRY OPTIMIZATION CONVERGED AFTER 1 ITERATIONS ***

 final structure:
================
72
 xtb: 6.6.1 (8d0f1dd)
N           -1.89230502197638        2.84468296217637        2.21599256433903
C           -1.82874245092145        2.16384227967699        1.17078710291980
C           -2.97382585514380        1.95734707852107        0.21616284984359
C           -3.45746506534785        0.51846269011288        0.30297310871676
C           -4.41472718099868        0.05665783208092       -0.60290872580006
C           -4.90506870319795       -1.23784906105506       -0.54594334561689
O           -5.83670225096528       -1.75710590087092       -1.36632394039592
C           -6.46803032208487       -0.92075663734081       -2.31059069564441
C           -4.39530129699250       -2.12609493207121        0.44050870478252
O           -4.92131765092008       -3.37265835112368        0.41761007112614
C           -4.52497443674995       -4.37789079033110        1.15121881962563
C           -3.44585890669532       -1.66091995510408        1.34759813266492
C           -2.99055963152855       -0.35594331021730        1.27857741398533
C           -2.41239187335104        2.23828986254896       -1.20257851348633
C           -1.47897170593430        1.14414902004934       -1.75255871521827
C           -0.14444991885104        1.12772272516729       -1.11198641506319
N            0.51187888150076        0.04005245600474       -0.72041450085622
C            1.88909762813336        0.12799630108814       -0.29523098000103
C            2.86355982485620       -0.34073674929967       -1.39293900157801
C            4.28112941314230       -0.13837539666122       -0.93461713412010
C            4.92333955297885        1.07084588535108       -1.14659051112806
C            6.22106250836873        1.27362176980379       -0.70342318174702
C            6.90298511243435        0.26867310438750       -0.03251134012730
O            8.16127671000054        0.35071308635551        0.43696422171994
C            8.89708407135432        1.53480968545327        0.23150203728822
C            6.24987536993694       -0.97446189799597        0.19567646113862
O            6.98462601229722       -1.89345084469339        0.85259229685148
C            6.43817392823430       -3.16661064040654        1.10064058444251
C            4.95152807682329       -1.15308995452002       -0.25564057555976
C           -0.08691196693193       -1.27219794247982       -0.76264095346856
C           -4.18365538779600        2.89926549562018        0.49934681692451
C           -4.84333818264349        2.57831543947185        1.83839355144665
C           -3.81496139972331        4.37936352790709        0.44859524628775
H           -4.79608352814354        0.72648700922396       -1.35465431043689
H           -6.96207771728263       -0.07431772120891       -1.82564559761806
H           -7.21530972892846       -1.54395385112141       -2.79728191749839
H           -5.75933466078632       -0.55556360306506       -3.06005487991620
H           -4.95158602546202       -6.26884901353558        3.42256846176926
H           -5.08593398222637       -5.28352415772482        1.02148115480343
H           -3.72528873609033       -4.31481982627798        1.86887184072427
H           -3.07749115486742       -2.30408854959736        2.13024946679197
H           -2.28314698815856       -0.01523993703805        2.01807509089606
H           -3.24791009419141        2.34718767737871       -1.89328981129693
H           -1.87451070613117        3.18679212985709       -1.18569632441548
H           -1.97019072332948        0.17486245428723       -1.68723111559586
H           -1.32766899339681        1.36921366458348       -2.81656938727183
H           -0.90540133677954        1.66896620495957        0.81171045355131
H            0.40650331743652        2.05641229771658       -1.09015134365797
H            2.02824552167699       -0.48571983149742        0.59906162560267
H            2.12145072594778        1.16332403202597       -0.03799508632178
H            2.67920670173691        0.24129564702946       -2.29752988567101
H            2.68658007052379       -1.39327387724601       -1.61675862067094
H            4.41836387016189        1.86574631822198       -1.67425061864443
H            6.69687342364856        2.22212268998803       -0.89083983509239
H            8.42614010589870        2.39020674929617        0.72536132975737
H            9.02037992219416        1.74965602787898       -0.83416392236576
H            9.87267911728651        1.35300663054491        0.67817504744155
H            7.21890713742088       -3.72415308144279        1.61436604572424
H            5.55492279434039       -3.10590246007055        1.74465328342507
H            6.17936129583379       -3.68087502005532        0.16990886356511
H            4.45122396300695       -2.09527069376090       -0.09469688800751
H           -0.23368550515796       -1.60747345572914       -1.79184919705262
H           -1.05348504171436       -1.26684317685448       -0.25305055301936
H            0.56543369579309       -1.98025944040158       -0.25794516679169
H           -4.91789455363166        2.70934549560111       -0.29168952492289
H           -4.15057884584484        2.77237139619148        2.65049879467381
H           -5.15965524710916        1.53897293756355        1.88428486643202
H           -5.71876842020408        3.20837433445364        1.97152915388950
H           -3.06816922026164        4.60974024367396        1.20195764477251
H           -3.44219955503148        4.67283154361070       -0.52918364402698
H           -4.70084831544678        4.97315189815474        0.65780601458244
H           -1.04859486703608        2.93753099928324        2.77299188020132

          :  Hamiltonian                  GFN2-xTB          :
         :: total energy             -99.268131634587 Eh    ::
         :: gradient norm              0.002597220682 Eh/a0 ::
         :: HOMO-LUMO gap              0.446110064608 eV    ::
         :: SCC energy              -100.642370540181 Eh    ::
         :: -> dispersion             -0.074978607575 Eh    ::
         :: repulsion energy           1.373041666759 Eh    ::

    * Orbital Energies and Occupations

         #    Occupation            Energy/Eh            Energy/eV
      -------------------------------------------------------------
         1        2.0000           -0.8491261             -23.1059
       ...           ...                  ...                  ...
        78        1.9986           -0.5322793             -14.4841
        79        1.9985           -0.5311102             -14.4522
        80        1.9983           -0.5292201             -14.4008
        81        1.9976           -0.5240129             -14.2591
        82        1.9971           -0.5205847             -14.1658
        83        1.9961           -0.5162056             -14.0467
        84        1.9958           -0.5148928             -14.0109
        85        1.9934           -0.5077326             -13.8161
        86        1.9787           -0.4890466             -13.3076
        87        1.9784           -0.4888373             -13.3019
        88        1.9467           -0.4742725             -12.9056
        89        1.8436           -0.4563782             -12.4187
        90        1.1688           -0.4227105             -11.5025 (HOMO)
        91        0.6661           -0.4063162             -11.0564 (LUMO)
        92        0.4143           -0.3960619             -10.7774
        93        0.0177           -0.3425582              -9.3215
        94        0.0072           -0.3283353              -8.9345
        95        0.0051           -0.3227778              -8.7832
        96        0.0027           -0.3129840              -8.5167
        97        0.0024           -0.3106998              -8.4546
        98        0.0000           -0.2043177              -5.5598
        99        0.0000           -0.1882091              -5.1214
       100                         -0.1384011              -3.7661
       101                         -0.0758427              -2.0638
       ...                                ...                  ...
       171                          0.5758900              15.6708
      -------------------------------------------------------------
                  HL-Gap            0.0163942 Eh            0.4461 eV

     #   Z          covCN         q      C6AA      α(0)
     1   7 N        1.774    -0.269    27.798     7.807
     2   6 C        2.826     0.099    25.787     8.321
     3   6 C        3.907     0.006    20.416     6.423
     4   6 C        2.974     0.010    27.797     8.648
     5   6 C        2.920    -0.079    29.981     8.979
     6   6 C        2.860     0.136    25.021     8.199
     7   8 O        1.706    -0.231    17.830     5.701
     8   6 C        3.645     0.025    20.489     6.506
     9   6 C        2.869     0.101    25.756     8.319
    10   8 O        1.710    -0.100    15.842     5.374
    11   6 C        2.733     0.034    27.223     8.542
    12   6 C        2.911    -0.063    29.569     8.917
    13   6 C        2.920    -0.052    29.292     8.875
    14   6 C        3.812    -0.066    21.749     6.638
    15   6 C        3.802    -0.068    21.810     6.649
    16   6 C        2.843     0.004    27.923     8.660
    17   7 N        2.729     0.009    21.104     6.823
    18   6 C        3.756    -0.016    20.920     6.522
    19   6 C        3.808    -0.070    21.843     6.653
    20   6 C        2.969    -0.000    28.037     8.685
    21   6 C        2.922    -0.049    29.215     8.864
    22   6 C        2.914    -0.067    29.681     8.934
    23   6 C        2.865     0.134    25.078     8.209
    24   8 O        1.706    -0.221    17.675     5.676
    25   6 C        3.645     0.025    20.491     6.506
    26   6 C        2.863     0.133    25.086     8.210
    27   8 O        1.706    -0.224    17.720     5.683
    28   6 C        3.645     0.027    20.456     6.501
    29   6 C        2.919    -0.080    29.987     8.980
    30   6 C        3.699    -0.070    22.001     6.708
    31   6 C        3.853    -0.007    20.674     6.467
    32   6 C        3.756    -0.120    22.845     6.815
    33   6 C        3.755    -0.119    22.829     6.813
    34   1 H        0.926     0.058     2.224     2.332
    35   1 H        0.924     0.057     2.237     2.339
    36   1 H        0.925     0.084     1.938     2.177
    37   1 H        0.924     0.050     2.316     2.380
    38   1 H        0.000    -0.137    17.612     7.674
    39   1 H        0.926     0.106     1.730     2.057
    40   1 H        0.926     0.072     2.062     2.246
    41   1 H        0.926     0.058     2.218     2.329
    42   1 H        0.926     0.046     2.371     2.408
    43   1 H        0.925     0.060     2.204     2.322
    44   1 H        0.924     0.055     2.253     2.348
    45   1 H        0.925     0.063     2.169     2.303
    46   1 H        0.923     0.079     1.986     2.204
    47   1 H        0.922     0.006     2.956     2.689
    48   1 H        0.926     0.069     2.096     2.264
    49   1 H        0.924     0.067     2.120     2.277
    50   1 H        0.924     0.068     2.113     2.273
    51   1 H        0.924     0.055     2.255     2.348
    52   1 H        0.924     0.055     2.255     2.348
    53   1 H        0.926     0.045     2.385     2.415
    54   1 H        0.926     0.059     2.216     2.328
    55   1 H        0.924     0.054     2.266     2.354
    56   1 H        0.924     0.056     2.247     2.344
    57   1 H        0.925     0.083     1.952     2.185
    58   1 H        0.925     0.082     1.957     2.187
    59   1 H        0.924     0.049     2.335     2.390
    60   1 H        0.924     0.053     2.288     2.366
    61   1 H        0.926     0.047     2.357     2.401
    62   1 H        0.924     0.075     2.027     2.227
    63   1 H        0.924     0.076     2.023     2.224
    64   1 H        0.925     0.080     1.978     2.200
    65   1 H        0.924     0.036     2.500     2.473
    66   1 H        0.925     0.071     2.078     2.254
    67   1 H        0.925     0.033     2.538     2.491
    68   1 H        0.925     0.052     2.295     2.369
    69   1 H        0.925     0.060     2.193     2.316
    70   1 H        0.925     0.035     2.520     2.482
    71   1 H        0.925     0.055     2.256     2.349
    72   1 H        0.860     0.157     1.352     1.821

Wiberg/Mayer (AO) data.
largest (>0.10) Wiberg bond orders for each atom

     #   Z sym  total        # sym  WBO       # sym  WBO       # sym  WBO
 ---------------------------------------------------------------------------
     1   7 N    3.040 --     2 C    1.957    72 H    0.942
     2   6 C    3.927 --     1 N    1.957     3 C    0.994    47 H    0.900
     3   6 C    3.978 --     2 C    0.994     4 C    0.973    14 C    0.958
                            31 C    0.941
     4   6 C    3.912 --    13 C    1.391     5 C    1.373     3 C    0.973
     5   6 C    3.961 --     6 C    1.395     4 C    1.373    34 H    0.957
     6   6 C    3.893 --     5 C    1.395     9 C    1.223     7 O    1.110
     7   8 O    2.271 --     6 C    1.110     8 C    0.973
     8   6 C    3.929 --    36 H    0.976    35 H    0.975    37 H    0.974
                             7 O    0.973
     9   6 C    3.891 --    12 C    1.354     6 C    1.223    10 O    1.058
    10   8 O    2.429 --    11 C    1.273     9 C    1.058
    11   6 C    3.340 --    10 O    1.273    40 H    0.965    39 H    0.962
    12   6 C    3.912 --    13 C    1.437     9 C    1.354    41 H    0.961
    13   6 C    3.973 --    12 C    1.437     4 C    1.391    42 H    0.962
    14   6 C    3.972 --    15 C    0.982    44 H    0.972    43 H    0.969
                             3 C    0.958
    15   6 C    3.988 --    16 C    1.059    14 C    0.982    45 H    0.962
                            46 H    0.928
    16   6 C    3.580 --    17 N    1.393    15 C    1.059    48 H    0.957
    17   7 N    3.470 --    16 C    1.393    30 C    0.999    18 C    0.988
    18   6 C    3.955 --    17 N    0.988    50 H    0.968    19 C    0.967
                            49 H    0.964
    19   6 C    3.976 --    20 C    1.007    52 H    0.972    51 H    0.972
                            18 C    0.967
    20   6 C    3.944 --    21 C    1.409    29 C    1.380    19 C    1.007
    21   6 C    3.950 --    22 C    1.417    20 C    1.409    53 H    0.968
    22   6 C    3.959 --    21 C    1.417    23 C    1.383    54 H    0.963
    23   6 C    3.895 --    22 C    1.383    26 C    1.219    24 O    1.111
    24   8 O    2.256 --    23 C    1.111    25 C    0.976
    25   6 C    3.928 --    57 H    0.977    24 O    0.976    56 H    0.973
                            55 H    0.973
    26   6 C    3.899 --    29 C    1.395    23 C    1.219    27 O    1.104
    27   8 O    2.255 --    26 C    1.104    28 C    0.978
    28   6 C    3.932 --    27 O    0.978    58 H    0.977    59 H    0.973
                            60 H    0.973
    29   6 C    3.959 --    26 C    1.395    20 C    1.380    61 H    0.963
    30   6 C    3.959 --    17 N    0.999    64 H    0.977    62 H    0.967
                            63 H    0.962
    31   6 C    3.973 --    33 C    1.009    32 C    1.009    65 H    0.960
                             3 C    0.941
    32   6 C    3.980 --    31 C    1.009    67 H    0.982    68 H    0.982
                            66 H    0.974
    33   6 C    3.984 --    31 C    1.009    70 H    0.983    71 H    0.980
                            69 H    0.977
    34   1 H    0.996 --     5 C    0.957
    35   1 H    0.994 --     8 C    0.975
    36   1 H    0.992 --     8 C    0.976
    37   1 H    0.995 --     8 C    0.974
    38   1 H    0.018
    39   1 H    0.988 --    11 C    0.962
    40   1 H    0.995 --    11 C    0.965
    41   1 H    0.995 --    12 C    0.961
    42   1 H    0.997 --    13 C    0.962
    43   1 H    0.995 --    14 C    0.969
    44   1 H    0.996 --    14 C    0.972
    45   1 H    0.995 --    15 C    0.962
    46   1 H    0.970 --    15 C    0.928
    47   1 H    0.989 --     2 C    0.900
    48   1 H    0.995 --    16 C    0.957
    49   1 H    0.990 --    18 C    0.964
    50   1 H    0.994 --    18 C    0.968
    51   1 H    0.996 --    19 C    0.972
    52   1 H    0.996 --    19 C    0.972
    53   1 H    0.997 --    21 C    0.968
    54   1 H    0.995 --    22 C    0.963
    55   1 H    0.992 --    25 C    0.973
    56   1 H    0.992 --    25 C    0.973
    57   1 H    0.992 --    25 C    0.977
    58   1 H    0.993 --    28 C    0.977
    59   1 H    0.993 --    28 C    0.973
    60   1 H    0.993 --    28 C    0.973
    61   1 H    0.997 --    29 C    0.963
    62   1 H    0.985 --    30 C    0.967
    63   1 H    0.988 --    30 C    0.962
    64   1 H    0.993 --    30 C    0.977
    65   1 H    0.994 --    31 C    0.960
    66   1 H    0.991 --    32 C    0.974
    67   1 H    0.997 --    32 C    0.982
    68   1 H    0.994 --    32 C    0.982
    69   1 H    0.994 --    33 C    0.977
    70   1 H    0.997 --    33 C    0.983
    71   1 H    0.994 --    33 C    0.980
    72   1 H    0.971 --     1 N    0.942
 ---------------------------------------------------------------------------

molecular dipole:
                 x           y           z       tot (Debye)
 q only:        0.693       0.754      -1.686
   full:        0.949       0.648      -1.860       5.558

           -------------------------------------------------
          | TOTAL ENERGY              -99.268131634587 Eh   |
          | GRADIENT NORM               0.002597220682 Eh/α |
          | HOMO-LUMO GAP               0.446110064608 eV   |
           -------------------------------------------------

 * finished run on 2024/04/06 at 11:12:52.519
