   * xtb version 6.6.1 (8d0f1dd) compiled by 'conda@1efc2f54142f' on 2023-08-01
          program call               : xtb struc.xyz --opt loose --input .xc1 --gfn2

   ID    Z sym.   atoms
    1    6 C      1, 3, 5-7, 10, 11, 14
    2    7 N      2, 4, 9, 13
    3    8 O      8, 12
    4    1 H      15-25
constraining bond 4 11 to    5.9200000 Å, actual value:    3.6888736 Å

          :  Hamiltonian                  GFN2-xTB          :
 * total energy  :   -33.3596133 Eh     change       -0.6650680E-10 Eh
 * total energy  :   -36.9448149 Eh     change       -0.3585202E+01 Eh
 * total energy  :   -39.6175037 Eh     change       -0.2672689E+01 Eh
 * total energy  :   -41.2327336 Eh     change       -0.1615230E+01 Eh
 * total energy  :   -41.8174307 Eh     change       -0.5846971E+00 Eh
 * total energy  :   -41.8830321 Eh     change       -0.6560141E-01 Eh
 * total energy  :   -41.9068718 Eh     change       -0.2383972E-01 Eh
 * total energy  :   -41.9537369 Eh     change       -0.4686509E-01 Eh
 * total energy  :   -41.9763099 Eh     change       -0.2257302E-01 Eh
 * total energy  :   -41.9894142 Eh     change       -0.1310432E-01 Eh
 * total energy  :   -42.0736079 Eh     change       -0.1135439E-03 Eh
 * total energy  :   -42.0736935 Eh     change       -0.8566904E-04 Eh
 * total energy  :   -42.0738086 Eh     change       -0.1151003E-03 Eh
 * total energy  :   -42.0739320 Eh     change       -0.1233320E-03 Eh
 * total energy  :   -42.0740141 Eh     change       -0.8211559E-04 Eh
 * total energy  :   -42.0739891 Eh     change        0.2499397E-04 Eh
 * total energy  :   -42.0740777 Eh     change       -0.8862851E-04 Eh
 * total energy  :   -42.0740991 Eh     change       -0.2140689E-04 Eh
 * total energy  :   -42.0741293 Eh     change       -0.3014090E-04 Eh
   *** GEOMETRY OPTIMIZATION CONVERGED AFTER 84 ITERATIONS ***

 final structure:
================
25
 xtb: 6.6.1 (8d0f1dd)
C            2.61150963457483        0.85147831801964       -0.98625805556275
N            1.99012884305638       -0.16172402870215       -0.15370378222288
C            2.80010746791615       -1.06396142865577        0.48564642336063
N            2.56696273230787       -1.98666159210082        1.30744523928535
C           -0.19144384766810       -1.15990217374117       -0.16598733634753
C            0.57231566305220       -0.05870813523169       -0.01338763727271
C            0.06748029996231        1.24027984923455        0.28222816817842
O            0.65429794101714        2.21688199655579        0.63157188339496
N           -1.47851493401201        1.46230283111934        0.11743048209488
C           -1.94293833184880        2.68635299567194        0.79327473808673
C           -2.23884052212597        0.84561541191723       -0.66039283782208
O           -2.86467271070475        0.19007594586913       -1.37558226891818
N           -0.79421492007456       -2.12569399414234       -0.47606754446233
C           -1.43274279734938       -3.33894703313894       -0.24177437772965
H            2.75957252939678        1.78218347835281       -0.43217090786458
H            3.57800951663960        0.49570774674512       -1.33543378078867
H            1.98259842958934        1.05724234958388       -1.85258211582114
H            3.84229501663615       -0.94404683931778        0.20511493704094
H           -1.29758358296559        2.86181785168053        1.65266389330042
H           -1.86448199010584        3.54000284290127        0.11855018233805
H           -2.97364861502495        2.56204807806020        1.11557319485235
H           -1.43830893246753       -3.61213405776226        0.81605747136469
H           -0.91448475537712       -4.10690242192522       -0.82012090636204
H           -2.45499103742730       -3.26591632559584       -0.61778423865953
H            1.62202041710897       -2.14915312379622        1.63686079444172

          :  Hamiltonian                  GFN2-xTB          :
         :: total energy             -42.074129261337 Eh    ::
         :: gradient norm              0.003990305051 Eh/a0 ::
         :: HOMO-LUMO gap              1.772366698238 eV    ::
         :: SCC energy               -42.681725650303 Eh    ::
         :: -> dispersion             -0.020718825366 Eh    ::
         :: repulsion energy           0.607356763264 Eh    ::

    * Orbital Energies and Occupations

         #    Occupation            Energy/Eh            Energy/eV
      -------------------------------------------------------------
         1        2.0000           -0.9448028             -25.7094
       ...           ...                  ...                  ...
        25        2.0000           -0.6744974             -18.3540
        26        2.0000           -0.6637903             -18.0627
        27        1.9999           -0.6381850             -17.3659
        28        1.9998           -0.6339950             -17.2519
        29        1.9998           -0.6290743             -17.1180
        30        1.9996           -0.6211643             -16.9027
        31        1.9994           -0.6142712             -16.7152
        32        1.9992           -0.6094667             -16.5844
        33        1.9990           -0.6068651             -16.5136
        34        1.9984           -0.5991821             -16.3046
        35        1.9859           -0.5642110             -15.3530
        36        1.8645           -0.5273322             -14.3494
        37        1.7996           -0.5205839             -14.1658 (HOMO)
        38        0.2561           -0.4554506             -12.3934 (LUMO)
        39        0.0694           -0.4331673             -11.7871
        40        0.0254           -0.4168992             -11.3444
        41        0.0034           -0.3849855             -10.4760
        42        0.0005           -0.3540064              -9.6330
        43        0.0000           -0.3063834              -8.3371
        44        0.0000           -0.2633369              -7.1658
        45                         -0.1593548              -4.3363
        46                         -0.1169708              -3.1829
        47                         -0.0931080              -2.5336
        48                         -0.0440561              -1.1988
       ...                                ...                  ...
        67                          1.0084381              27.4410
      -------------------------------------------------------------
                  HL-Gap            0.0651333 Eh            1.7724 eV

     #   Z          covCN         q      C6AA      α(0)
     1   6 C        3.703    -0.069    21.976     6.703
     2   7 N        2.738    -0.030    21.832     6.940
     3   6 C        2.762     0.124    25.269     8.232
     4   7 N        1.772    -0.269    27.790     7.806
     5   6 C        1.908     0.085    28.970     8.693
     6   6 C        2.885    -0.003    28.108     8.692
     7   6 C        2.745     0.260    22.610     7.786
     8   8 O        0.857    -0.293    19.663     5.945
     9   7 N        2.710    -0.049    22.194     6.997
    10   6 C        3.709    -0.062    21.839     6.679
    11   6 C        1.795     0.307    24.286     7.965
    12   8 O        0.856    -0.138    17.091     5.543
    13   7 N        1.821    -0.004    22.036     6.956
    14   6 C        3.686    -0.056    21.791     6.683
    15   1 H        0.924     0.097     1.808     2.103
    16   1 H        0.925     0.089     1.891     2.151
    17   1 H        0.925     0.071     2.074     2.252
    18   1 H        0.925     0.098     1.801     2.099
    19   1 H        0.925     0.127     1.555     1.950
    20   1 H        0.924     0.109     1.705     2.042
    21   1 H        0.925     0.097     1.808     2.103
    22   1 H        0.924     0.102     1.766     2.078
    23   1 H        0.924     0.128     1.553     1.949
    24   1 H        0.924     0.122     1.601     1.979
    25   1 H        0.860     0.157     1.351     1.821

Wiberg/Mayer (AO) data.
largest (>0.10) Wiberg bond orders for each atom

     #   Z sym  total        # sym  WBO       # sym  WBO       # sym  WBO
 ---------------------------------------------------------------------------
     1   6 C    3.935 --     2 N    0.989    17 H    0.975    16 H    0.969
                            15 H    0.957
     2   7 N    3.412 --     3 C    1.179     6 C    1.000     1 C    0.989
                             4 N    0.139
     3   6 C    3.949 --     4 N    1.789     2 N    1.179    18 H    0.925
     4   7 N    2.909 --     3 C    1.789    25 H    0.934     2 N    0.139
     5   6 C    3.881 --    13 N    2.231     6 C    1.389
     6   6 C    3.865 --     5 C    1.389     7 C    1.171     2 N    1.000
                            13 N    0.113
     7   6 C    3.853 --     8 O    1.792     6 C    1.171     9 N    0.736
     8   8 O    2.165 --     7 C    1.792
     9   7 N    3.566 --    11 C    1.570    10 C    0.916     7 C    0.736
                            12 O    0.223
    10   6 C    3.879 --    21 H    0.974    20 H    0.967    19 H    0.962
                             9 N    0.916
    11   6 C    3.709 --    12 O    2.031     9 N    1.570
    12   8 O    2.349 --    11 C    2.031     9 N    0.223
    13   7 N    3.537 --     5 C    2.231    14 C    1.040     6 C    0.113
    14   6 C    3.928 --    13 N    1.040    22 H    0.948    24 H    0.939
                            23 H    0.933
    15   1 H    0.975 --     1 C    0.957
    16   1 H    0.987 --     1 C    0.969
    17   1 H    0.989 --     1 C    0.975
    18   1 H    0.977 --     3 C    0.925
    19   1 H    0.982 --    10 C    0.962
    20   1 H    0.987 --    10 C    0.967
    21   1 H    0.990 --    10 C    0.974
    22   1 H    0.979 --    14 C    0.948
    23   1 H    0.979 --    14 C    0.933
    24   1 H    0.979 --    14 C    0.939
    25   1 H    0.965 --     4 N    0.934
 ---------------------------------------------------------------------------

molecular dipole:
                 x           y           z       tot (Debye)
 q only:       -1.228      -0.595      -0.331
   full:       -1.584      -0.465      -0.442       4.344

           -------------------------------------------------
          | TOTAL ENERGY              -42.074129261337 Eh   |
          | GRADIENT NORM               0.003990305051 Eh/α |
          | HOMO-LUMO GAP               1.772366698238 eV   |
           -------------------------------------------------

 * finished run on 2024/06/05 at 19:57:55.665
