   * xtb version 6.6.1 (8d0f1dd) compiled by 'conda@1efc2f54142f' on 2023-08-01
          program call               : xtb struc.xyz --opt loose --input .xc1 --gfn2

   ID    Z sym.   atoms
    1    7 N      1, 17
    2    6 C      2-6, 8, 9, 11-16, 18-23, 25, 26, 28-33
    3    8 O      7, 10, 24, 27
    4    1 H      34-72
constraining bond 9 35 to    4.7133300 Å, actual value:    3.9902337 Å

          :  Hamiltonian                  GFN2-xTB          :
 * total energy  :   -99.4974907 Eh     change       -0.4035485E-08 Eh
 * total energy  :   -99.6822847 Eh     change       -0.1847940E+00 Eh
 * total energy  :   -99.9272464 Eh     change       -0.2449617E+00 Eh
 * total energy  :  -100.2458781 Eh     change       -0.3186317E+00 Eh
 * total energy  :  -100.7211034 Eh     change       -0.4752252E+00 Eh
 * total energy  :  -101.3400100 Eh     change       -0.6189066E+00 Eh
 * total energy  :  -101.1523943 Eh     change        0.1876156E+00 Eh
 * total energy  :  -101.6782310 Eh     change       -0.5258366E+00 Eh
 * total energy  :  -101.7683656 Eh     change       -0.9013465E-01 Eh
 * total energy  :  -101.8576418 Eh     change       -0.8927617E-01 Eh
 * total energy  :  -101.9766139 Eh     change       -0.2651605E-03 Eh
 * total energy  :  -101.9767232 Eh     change       -0.1093138E-03 Eh
 * total energy  :  -101.9768674 Eh     change       -0.1442255E-03 Eh
 * total energy  :  -101.9769531 Eh     change       -0.8571547E-04 Eh
 * total energy  :  -101.9770220 Eh     change       -0.6884569E-04 Eh
 * total energy  :  -101.9770651 Eh     change       -0.4313344E-04 Eh
 * total energy  :  -101.9770956 Eh     change       -0.3049483E-04 Eh
 * total energy  :  -101.9771271 Eh     change       -0.3153472E-04 Eh
 * total energy  :  -101.9771434 Eh     change       -0.1626383E-04 Eh
   *** GEOMETRY OPTIMIZATION CONVERGED AFTER 66 ITERATIONS ***

 final structure:
================
72
 xtb: 6.6.1 (8d0f1dd)
N           -1.76891663346869        3.23685781009150        1.95184297785327
C           -1.88114715506775        2.27807738027149        1.15806189202427
C           -3.03816984298437        2.08425964126714        0.21585371605444
C           -3.63148595427786        0.71003779337961        0.44589791324117
C           -4.50827073720003        0.14943645570265       -0.46713463663676
C           -4.98174706389855       -1.14799027418791       -0.31297653823161
O           -5.91572914634826       -1.73440580812413       -1.05586278426297
C           -6.61035857071344       -1.20995883564464       -2.02273757600873
C           -4.37131434728809       -2.09751492157500        0.69920259757940
O           -3.24200779912996       -2.75090140537474       -0.01557155236084
C           -3.21197857457382       -4.14793539642911        0.16154534723310
C           -3.74037921190902       -1.29282104399167        1.80703791001350
C           -3.34660404981023       -0.01601603741406        1.63736734715501
C           -2.43575742446832        2.16312746798194       -1.21411266104589
C           -1.61134811533190        0.93299614122445       -1.62599367231665
C           -0.30026753678829        0.85406210613987       -0.94882489105568
N            0.29053160158137       -0.26389621520134       -0.55846687667927
C            1.66226411091139       -0.23304292994990       -0.10838276164255
C            2.63639774340916       -0.58980703278722       -1.24897286183431
C            4.05194247563686       -0.32774365403780       -0.81914798979703
C            4.61025062295374        0.92986970659433       -0.98051955288628
C            5.90670057050015        1.18984620288650       -0.56530622344252
C            6.67123038956562        0.19445917853496        0.02582468805079
O            7.93759211506618        0.33296714061216        0.46112453093926
C            8.58639518421134        1.57312040253986        0.29870014869541
C            6.10483225271339       -1.09828060508134        0.20104244203759
O            6.91572405033724       -2.00569868754542        0.78092199261032
C            6.45348947217665       -3.32198875445760        0.96797920759058
C            4.80563875864324       -1.33397272078771       -0.22062427938105
C           -0.31966562653998       -1.56036074232225       -0.72760889943969
C           -4.16301525214306        3.15002051540043        0.37501408429615
C           -4.78576261966425        3.08823464880482        1.76758684017354
C           -3.69667571116375        4.57290925792726        0.08039542530144
H           -4.84769976342391        0.73298009017540       -1.30928193913962
H           -4.84805890841858       -2.61754748402352        0.93438852696068
H           -7.31116877932935       -1.87283141692516       -2.49273043175490
H           -6.51517228787509       -0.18426864226535       -2.33313784304758
H           -4.12796494717493       -4.62005064570527       -0.20821664114122
H           -2.36199814155013       -4.50675195053913       -0.41807394006403
H           -3.06924274417677       -4.41567233447645        1.21378025626386
H           -3.53441867191594       -1.82334796420881        2.72338923981209
H           -2.83571690500016        0.49518781535273        2.44031180939714
H           -3.25140977215669        2.28042139543989       -1.92710886605854
H           -1.81011552653643        3.05405556031997       -1.28065151796503
H           -2.19197419603476        0.02444083063810       -1.46917639795499
H           -1.42224599186043        1.01949202772234       -2.70454497024058
H           -1.11516594761535        1.49175682340587        1.03086644440761
H            0.27582095380055        1.76360991795430       -0.86066870248964
H            1.78732750404894       -0.93722244194383        0.71734147876739
H            1.90057586704341        0.76819915272429        0.25692443750983
H            2.39535726010495        0.02920614140545       -2.11542135831005
H            2.51062729383768       -1.63676224441307       -1.52632394615183
H            4.03963272295821        1.71875687937462       -1.44691874128558
H            6.31602997189156        2.17567121485653       -0.71230283229868
H            8.07778916510929        2.36733567805189        0.85381620052359
H            8.65740445736178        1.85232836372323       -0.75681530483907
H            9.58693385933394        1.43455438301128        0.70338449578438
H            7.28035977611142       -3.85926031197269        1.42822969554677
H            5.58687053615307       -3.35211039145809        1.63623657293559
H            6.19897924789124       -3.79705644637836        0.01542402094728
H            4.36889249140226       -2.31281246586726       -0.09976435286540
H           -0.40079916927427       -1.81916984262504       -1.78538988515561
H           -1.32104060208592       -1.59339309129022       -0.29194153965811
H            0.29200813253789       -2.30983167706429       -0.23251927947099
H           -4.93974616090523        2.88818155547103       -0.35337180496624
H           -4.05562124338623        3.38124628630057        2.51530702953786
H           -5.14327366410842        2.08630965440580        1.99389754482307
H           -5.62826407901446        3.77252299305313        1.82239751844410
H           -2.88399669482118        4.84588121380655        0.74594794168524
H           -3.37374877113519        4.69012254812339       -0.95057698144503
H           -4.52216345457169        5.25927447827310        0.25012013590752
H           -0.92947519514528        3.28274708561875        2.52128346580823

          :  Hamiltonian                  GFN2-xTB          :
         :: total energy            -101.977143387044 Eh    ::
         :: gradient norm              0.002476550746 Eh/a0 ::
         :: HOMO-LUMO gap              1.270591467222 eV    ::
         :: SCC energy              -100.717401640904 Eh    ::
         :: -> dispersion             -0.075727773609 Eh    ::
         :: repulsion energy           1.552439515906 Eh    ::

    * Orbital Energies and Occupations

         #    Occupation            Energy/Eh            Energy/eV
      -------------------------------------------------------------
         1        2.0000           -0.8511856             -23.1619
       ...           ...                  ...                  ...
        78        1.9985           -0.5269355             -14.3386
        79        1.9984           -0.5262845             -14.3209
        80        1.9983           -0.5250061             -14.2861
        81        1.9972           -0.5176800             -14.0868
        82        1.9962           -0.5127225             -13.9519
        83        1.9958           -0.5109270             -13.9030
        84        1.9951           -0.5086604             -13.8414
        85        1.9933           -0.5036833             -13.7059
        86        1.9845           -0.4903578             -13.3433
        87        1.9796           -0.4859762             -13.2241
        88        1.9395           -0.4684189             -12.7463
        89        1.8508           -0.4533804             -12.3371
        90        1.6317           -0.4370814             -11.8936 (HOMO)
        91        0.3768           -0.3903881             -10.6230 (LUMO)
        92        0.2506           -0.3827435             -10.4150
        93        0.0140           -0.3350279              -9.1166
        94        0.0028           -0.3097131              -8.4277
        95        0.0025           -0.3075495              -8.3688
        96        0.0019           -0.3030080              -8.2453
        97        0.0001           -0.2457531              -6.6873
        98        0.0000           -0.1847860              -5.0283
        99                         -0.1295398              -3.5250
       100                         -0.0872852              -2.3752
       101                         -0.0652332              -1.7751
       ...                                ...                  ...
       171                          1.4294547              38.8974
      -------------------------------------------------------------
                  HL-Gap            0.0466934 Eh            1.2706 eV

     #   Z          covCN         q      C6AA      α(0)
     1   7 N        1.774    -0.273    27.913     7.824
     2   6 C        2.828     0.102    25.735     8.313
     3   6 C        3.907     0.007    20.407     6.421
     4   6 C        2.976     0.001    27.991     8.678
     5   6 C        2.906    -0.064    29.604     8.922
     6   6 C        2.858     0.092    25.954     8.350
     7   8 O        1.710    -0.095    15.764     5.361
     8   6 C        2.734     0.012    27.714     8.619
     9   6 C        3.741     0.079    19.331     6.273
    10   8 O        1.689    -0.354    19.972     6.034
    11   6 C        3.636     0.040    20.279     6.479
    12   6 C        2.903    -0.060    29.482     8.903
    13   6 C        2.906    -0.041    29.009     8.831
    14   6 C        3.813    -0.064    21.722     6.634
    15   6 C        3.802    -0.072    21.872     6.658
    16   6 C        2.846     0.009    27.807     8.642
    17   7 N        2.729     0.019    20.915     6.792
    18   6 C        3.758    -0.018    20.940     6.524
    19   6 C        3.808    -0.070    21.835     6.652
    20   6 C        2.969    -0.001    28.040     8.686
    21   6 C        2.922    -0.050    29.231     8.866
    22   6 C        2.914    -0.068    29.691     8.935
    23   6 C        2.865     0.133    25.089     8.210
    24   8 O        1.706    -0.223    17.699     5.680
    25   6 C        3.646     0.025    20.480     6.504
    26   6 C        2.863     0.133    25.091     8.211
    27   8 O        1.706    -0.225    17.739     5.686
    28   6 C        3.645     0.027    20.451     6.500
    29   6 C        2.919    -0.079    29.985     8.980
    30   6 C        3.700    -0.079    22.183     6.736
    31   6 C        3.852    -0.007    20.660     6.465
    32   6 C        3.756    -0.117    22.796     6.808
    33   6 C        3.755    -0.121    22.867     6.819
    34   1 H        0.926     0.048     2.341     2.393
    35   1 H        0.930     0.102     1.770     2.080
    36   1 H        0.926     0.087     1.911     2.162
    37   1 H        0.926     0.058     2.218     2.329
    38   1 H        0.924     0.041     2.430     2.438
    39   1 H        0.925     0.059     2.213     2.326
    40   1 H        0.924     0.038     2.478     2.462
    41   1 H        0.926     0.050     2.321     2.382
    42   1 H        0.926     0.047     2.358     2.401
    43   1 H        0.925     0.060     2.201     2.320
    44   1 H        0.924     0.055     2.258     2.350
    45   1 H        0.925     0.077     2.014     2.220
    46   1 H        0.923     0.080     1.974     2.197
    47   1 H        0.922     0.006     2.965     2.693
    48   1 H        0.926     0.070     2.088     2.259
    49   1 H        0.924     0.069     2.092     2.262
    50   1 H        0.924     0.067     2.119     2.277
    51   1 H        0.924     0.054     2.273     2.358
    52   1 H        0.924     0.056     2.246     2.344
    53   1 H        0.926     0.043     2.405     2.425
    54   1 H        0.926     0.058     2.227     2.334
    55   1 H        0.924     0.054     2.275     2.359
    56   1 H        0.924     0.055     2.256     2.349
    57   1 H        0.925     0.082     1.960     2.190
    58   1 H        0.925     0.081     1.965     2.192
    59   1 H        0.924     0.049     2.334     2.389
    60   1 H        0.924     0.052     2.293     2.368
    61   1 H        0.926     0.048     2.346     2.395
    62   1 H        0.924     0.077     2.012     2.218
    63   1 H        0.924     0.105     1.741     2.063
    64   1 H        0.925     0.079     1.991     2.207
    65   1 H        0.924     0.035     2.520     2.482
    66   1 H        0.925     0.065     2.142     2.289
    67   1 H        0.925     0.034     2.525     2.485
    68   1 H        0.925     0.050     2.314     2.379
    69   1 H        0.925     0.066     2.130     2.282
    70   1 H        0.925     0.035     2.517     2.481
    71   1 H        0.925     0.054     2.268     2.355
    72   1 H        0.860     0.155     1.370     1.833

Wiberg/Mayer (AO) data.
largest (>0.10) Wiberg bond orders for each atom

     #   Z sym  total        # sym  WBO       # sym  WBO       # sym  WBO
 ---------------------------------------------------------------------------
     1   7 N    3.030 --     2 C    1.952    72 H    0.943
     2   6 C    3.931 --     1 N    1.952     3 C    0.993    47 H    0.910
     3   6 C    3.975 --     2 C    0.993     4 C    0.983    14 C    0.950
                            31 C    0.940
     4   6 C    3.801 --     5 C    1.428    13 C    1.211     3 C    0.983
     5   6 C    3.922 --     4 C    1.428     6 C    1.363    34 H    0.953
     6   6 C    3.766 --     5 C    1.363     7 O    1.134     9 C    0.987
                             8 C    0.180
     7   8 O    2.513 --     8 C    1.272     6 C    1.134
     8   6 C    3.526 --     7 O    1.272    36 H    0.968    37 H    0.968
                             6 C    0.180
     9   6 C    3.942 --    12 C    1.008     6 C    0.987    35 H    0.970
                            10 O    0.887
    10   8 O    2.008 --    11 C    0.997     9 C    0.887
    11   6 C    3.944 --    10 O    0.997    40 H    0.978    38 H    0.978
                            39 H    0.975
    12   6 C    3.825 --    13 C    1.703     9 C    1.008    41 H    0.968
    13   6 C    3.968 --    12 C    1.703     4 C    1.211    42 H    0.956
    14   6 C    3.972 --    15 C    0.988    44 H    0.972    43 H    0.968
                             3 C    0.950
    15   6 C    3.985 --    16 C    1.062    14 C    0.988    45 H    0.954
                            46 H    0.923
    16   6 C    3.608 --    17 N    1.424    15 C    1.062    48 H    0.956
    17   7 N    3.496 --    16 C    1.424    30 C    0.997    18 C    0.988
    18   6 C    3.955 --    17 N    0.988    50 H    0.968    19 C    0.965
                            49 H    0.965
    19   6 C    3.977 --    20 C    1.008    52 H    0.973    51 H    0.971
                            18 C    0.965
    20   6 C    3.946 --    21 C    1.409    29 C    1.381    19 C    1.008
    21   6 C    3.951 --    22 C    1.417    20 C    1.409    53 H    0.968
    22   6 C    3.961 --    21 C    1.417    23 C    1.384    54 H    0.963
    23   6 C    3.896 --    22 C    1.384    26 C    1.221    24 O    1.109
    24   8 O    2.255 --    23 C    1.109    25 C    0.976
    25   6 C    3.929 --    57 H    0.977    24 O    0.976    56 H    0.973
                            55 H    0.973
    26   6 C    3.900 --    29 C    1.395    23 C    1.221    27 O    1.103
    27   8 O    2.255 --    26 C    1.103    28 C    0.979
    28   6 C    3.932 --    27 O    0.979    58 H    0.977    59 H    0.973
                            60 H    0.973
    29   6 C    3.960 --    26 C    1.395    20 C    1.381    61 H    0.962
    30   6 C    3.949 --    17 N    0.997    64 H    0.978    62 H    0.965
                            63 H    0.952
    31   6 C    3.964 --    33 C    1.009    32 C    1.008    65 H    0.961
                             3 C    0.940
    32   6 C    3.981 --    31 C    1.008    68 H    0.982    67 H    0.982
                            66 H    0.976
    33   6 C    3.980 --    31 C    1.009    70 H    0.983    71 H    0.979
                            69 H    0.975
    34   1 H    0.996 --     5 C    0.953
    35   1 H    0.986 --     9 C    0.970
    36   1 H    0.992 --     8 C    0.968
    37   1 H    0.996 --     8 C    0.968
    38   1 H    0.996 --    11 C    0.978
    39   1 H    0.993 --    11 C    0.975
    40   1 H    0.996 --    11 C    0.978
    41   1 H    0.995 --    12 C    0.968
    42   1 H    0.996 --    13 C    0.956
    43   1 H    0.995 --    14 C    0.968
    44   1 H    0.996 --    14 C    0.972
    45   1 H    0.992 --    15 C    0.954
    46   1 H    0.969 --    15 C    0.923
    47   1 H    0.987 --     2 C    0.910
    48   1 H    0.995 --    16 C    0.956
    49   1 H    0.991 --    18 C    0.965
    50   1 H    0.994 --    18 C    0.968
    51   1 H    0.996 --    19 C    0.971
    52   1 H    0.996 --    19 C    0.973
    53   1 H    0.998 --    21 C    0.968
    54   1 H    0.995 --    22 C    0.963
    55   1 H    0.992 --    25 C    0.973
    56   1 H    0.992 --    25 C    0.973
    57   1 H    0.993 --    25 C    0.977
    58   1 H    0.993 --    28 C    0.977
    59   1 H    0.993 --    28 C    0.973
    60   1 H    0.993 --    28 C    0.973
    61   1 H    0.996 --    29 C    0.962
    62   1 H    0.984 --    30 C    0.965
    63   1 H    0.982 --    30 C    0.952
    64   1 H    0.994 --    30 C    0.978
    65   1 H    0.993 --    31 C    0.961
    66   1 H    0.992 --    32 C    0.976
    67   1 H    0.997 --    32 C    0.982
    68   1 H    0.995 --    32 C    0.982
    69   1 H    0.992 --    33 C    0.975
    70   1 H    0.997 --    33 C    0.983
    71   1 H    0.993 --    33 C    0.979
    72   1 H    0.971 --     1 N    0.943
 ---------------------------------------------------------------------------

molecular dipole:
                 x           y           z       tot (Debye)
 q only:       -0.270      -0.404      -0.974
   full:       -0.214      -0.766      -1.125       3.502

           -------------------------------------------------
          | TOTAL ENERGY             -101.977143387044 Eh   |
          | GRADIENT NORM               0.002476550746 Eh/α |
          | HOMO-LUMO GAP               1.270591467222 eV   |
           -------------------------------------------------

 * finished run on 2024/04/06 at 11:16:17.019
