   * xtb version 6.6.1 (8d0f1dd) compiled by 'conda@1efc2f54142f' on 2023-08-01
          program call               : xtb xtbopt.xyz --opt crude --input .xc2 --gfn2

   ID    Z sym.   atoms
    1    7 N      1, 17
    2    6 C      2-6, 8, 9, 11-16, 18-23, 25, 26, 28-33
    3    8 O      7, 10, 24, 27
    4    1 H      34-72
########################################################################
[WARNING] Please study the warnings concerning your input carefully
-1- readin_getIntValue: could not parse ''
########################################################################

          :  Hamiltonian                  GFN2-xTB          :
 * total energy  :   -99.1634535 Eh     change       -0.1600142E-10 Eh
 * total energy  :   -99.3239062 Eh     change       -0.1604528E+00 Eh
 * total energy  :   -99.3261192 Eh     change       -0.2212926E-02 Eh
 * total energy  :   -99.3269743 Eh     change       -0.8550799E-03 Eh
 * total energy  :   -99.3271843 Eh     change       -0.2100219E-03 Eh
   *** GEOMETRY OPTIMIZATION CONVERGED AFTER 5 ITERATIONS ***

 final structure:
================
72
 xtb: 6.6.1 (8d0f1dd)
N           -1.76840190211856        3.24576597660042        1.95086233393037
C           -1.88135833375742        2.28641508911562        1.15791787729325
C           -3.03863064002339        2.09239171666426        0.21569933062135
C           -3.63225774091343        0.71802210001576        0.44613311733566
C           -4.50835558398065        0.15882125339716       -0.46858941172783
C           -4.96994478378785       -1.14623747477856       -0.32004227543765
O           -5.90322371672425       -1.73626833034265       -1.05717253289016
C           -6.60696479856999       -1.21020051890941       -2.01732687923211
C           -4.32276456895340       -2.07311396953888        0.67343491818545
O           -3.24425137592685       -2.75847305858666       -0.02883850563772
C           -3.20635613625824       -4.15139982426102        0.15829129432736
C           -3.72169249423092       -1.29206173030655        1.80078437611805
C           -3.34581955349654       -0.00713240497477        1.63850263976289
C           -2.43553675295835        2.16875589696296       -1.21439417439856
C           -1.61265153132223        0.93706879423421       -1.62622694409519
C           -0.30027667854014        0.85741271973199       -0.95141990219001
N            0.29239128408737       -0.26072593931911       -0.56307976196587
C            1.66393693923989       -0.22882181239200       -0.11229064394199
C            2.63949104420346       -0.58877199260461       -1.25064858936850
C            4.05487780489237       -0.32757477522084       -0.81936402749310
C            4.61421097559966        0.92966136878334       -0.98041314554848
C            5.91075902665514        1.18877287452777       -0.56486682274432
C            6.67440526593035        0.19277950941452        0.02635660099154
O            7.94079582765379        0.32997961729662        0.46205487680264
C            8.59063520995680        1.56988744084665        0.30156057667534
C            6.10701253857921       -1.09958614788259        0.20135417417112
O            6.91745081267020       -2.00735824532206        0.78133325412720
C            6.45489923252789       -3.32349142947822        0.96864950681969
C            4.80775946021986       -1.33437778168191       -0.22064438470511
C           -0.31639933890513       -1.55791712236662       -0.73276268769487
C           -4.16349730804695        3.15812271750071        0.37390439066045
C           -4.78738760402619        3.09509397483659        1.76604309307430
C           -3.69789922602309        4.58090043282059        0.07898787984292
H           -4.85615361704846        0.74852501467471       -1.30305738099190
H           -5.02837917963581       -2.82469303136133        1.01977069563349
H           -7.30762514049462       -1.87357446683107       -2.48639642582656
H           -6.51592343404330       -0.18374548717569       -2.32386757201231
H           -4.12486158335581       -4.62516881763573       -0.20303732241551
H           -2.36273068006241       -4.51473691129837       -0.42615274370409
H           -3.05659624914743       -4.41245294226645        1.21101498658608
H           -3.51428375766519       -1.82494926494223        2.71398090615415
H           -2.85061785564609        0.51291661300586        2.44547963158111
H           -3.25111910954657        2.28632031405764       -1.92742255200520
H           -1.80842685728740        3.05841093157150       -1.28237477981258
H           -2.19380453435158        0.02899565520904       -1.46795108571942
H           -1.42597658858423        1.02206543164561       -2.70548745107477
H           -1.11667464476908        1.49799704462436        1.03254193990759
H            0.27579600023830        1.76692259150442       -0.86309377653585
H            1.78838423066221       -0.93081880174338        0.71555280701907
H            1.90178112476400        0.77345722544656        0.25069140023317
H            2.40052466673833        0.02880261817203       -2.11871640709243
H            2.51317502724524       -1.63613288438864       -1.52620705352759
H            4.04427858296635        1.71901143892836       -1.44691924555220
H            6.32095392581524        2.17428253424584       -0.71186571160556
H            8.08176665960245        2.36392051071209        0.85664371980674
H            8.66342287818660        1.85000212394140       -0.75362757363216
H            9.59055081390422        1.43021039908703        0.70758829708540
H            7.28180388209455       -3.86084064180759        1.42877300157168
H            5.58846014710150       -3.35331830863510        1.63714967944771
H            6.20004947775879       -3.79868143194813        0.01624529762928
H            4.37040295518557       -2.31300261719019       -0.09988610508640
H           -0.39848237103014       -1.81610729805121       -1.79078586535528
H           -1.31719202170001       -1.59263436988179       -0.29601934087194
H            0.29675307526836       -2.30711334963739       -0.23888741474109
H           -4.93989657864736        2.89564749589739       -0.35450076738379
H           -4.05796975942059        3.38661150075395        2.51515981388800
H           -5.14602917302078        2.09304086835333        1.99049742491713
H           -5.62960208976473        3.77964799079248        1.82073778864185
H           -2.88549077395877        4.85477838429195        0.74434104694065
H           -3.37493362881564        4.69717811202811       -0.95203496250841
H           -4.52394139318188        5.26681561832417        0.24793134721099
H           -0.92983218299984        3.29021080524274        2.52166704412025

          :  Hamiltonian                  GFN2-xTB          :
         :: total energy             -99.327184279669 Eh    ::
         :: gradient norm              0.009347091025 Eh/a0 ::
         :: HOMO-LUMO gap              1.260881817537 eV    ::
         :: SCC energy              -100.691818311959 Eh    ::
         :: -> dispersion             -0.075733866074 Eh    ::
         :: repulsion energy           1.363138541660 Eh    ::

    * Orbital Energies and Occupations

         #    Occupation            Energy/Eh            Energy/eV
      -------------------------------------------------------------
         1        2.0000           -0.8510444             -23.1581
       ...           ...                  ...                  ...
        78        1.9985           -0.5269608             -14.3393
        79        1.9984           -0.5263030             -14.3214
        80        1.9983           -0.5249550             -14.2848
        81        1.9972           -0.5176726             -14.0866
        82        1.9962           -0.5127291             -13.9521
        83        1.9958           -0.5109415             -13.9034
        84        1.9951           -0.5086918             -13.8422
        85        1.9930           -0.5028457             -13.6831
        86        1.9845           -0.4902820             -13.3413
        87        1.9797           -0.4859669             -13.2238
        88        1.9400           -0.4685011             -12.7486
        89        1.8512           -0.4533671             -12.3367
        90        1.6284           -0.4368500             -11.8873 (HOMO)
        91        0.3804           -0.3905135             -10.6264 (LUMO)
        92        0.2496           -0.3826134             -10.4114
        93        0.0141           -0.3350696              -9.1177
        94        0.0029           -0.3097129              -8.4277
        95        0.0025           -0.3075544              -8.3690
        96        0.0019           -0.3032000              -8.2505
        97        0.0000           -0.2452751              -6.6743
        98        0.0000           -0.1848016              -5.0287
        99                         -0.1299129              -3.5351
       100                         -0.0735648              -2.0018
       101                         -0.0654950              -1.7822
       ...                                ...                  ...
       171                          0.5788504              15.7513
      -------------------------------------------------------------
                  HL-Gap            0.0463366 Eh            1.2609 eV

     #   Z          covCN         q      C6AA      α(0)
     1   7 N        1.774    -0.274    27.918     7.824
     2   6 C        2.828     0.102    25.733     8.312
     3   6 C        3.907     0.007    20.406     6.421
     4   6 C        2.976     0.001    27.992     8.679
     5   6 C        2.907    -0.065    29.610     8.922
     6   6 C        2.859     0.095    25.876     8.338
     7   8 O        1.710    -0.093    15.736     5.356
     8   6 C        2.735     0.012    27.730     8.622
     9   6 C        3.745     0.103    18.953     6.210
    10   8 O        1.696    -0.337    19.661     5.987
    11   6 C        3.637     0.039    20.293     6.481
    12   6 C        2.903    -0.057    29.407     8.892
    13   6 C        2.907    -0.041    29.012     8.832
    14   6 C        3.813    -0.064    21.721     6.634
    15   6 C        3.802    -0.071    21.863     6.657
    16   6 C        2.846     0.009    27.816     8.644
    17   7 N        2.729     0.019    20.929     6.794
    18   6 C        3.758    -0.017    20.936     6.523
    19   6 C        3.808    -0.070    21.834     6.652
    20   6 C        2.969    -0.001    28.041     8.686
    21   6 C        2.922    -0.050    29.231     8.866
    22   6 C        2.914    -0.068    29.691     8.935
    23   6 C        2.865     0.133    25.089     8.210
    24   8 O        1.706    -0.223    17.700     5.680
    25   6 C        3.646     0.025    20.480     6.504
    26   6 C        2.863     0.133    25.092     8.211
    27   8 O        1.706    -0.225    17.739     5.687
    28   6 C        3.645     0.027    20.451     6.500
    29   6 C        2.919    -0.079    29.984     8.980
    30   6 C        3.700    -0.078    22.168     6.733
    31   6 C        3.852    -0.007    20.659     6.465
    32   6 C        3.756    -0.117    22.793     6.807
    33   6 C        3.755    -0.121    22.866     6.818
    34   1 H        0.926     0.049     2.336     2.390
    35   1 H        0.925     0.052     2.299     2.371
    36   1 H        0.926     0.087     1.907     2.159
    37   1 H        0.926     0.059     2.213     2.326
    38   1 H        0.924     0.043     2.412     2.429
    39   1 H        0.925     0.060     2.197     2.318
    40   1 H        0.924     0.039     2.460     2.453
    41   1 H        0.926     0.051     2.303     2.373
    42   1 H        0.926     0.048     2.350     2.397
    43   1 H        0.925     0.060     2.203     2.321
    44   1 H        0.924     0.055     2.258     2.350
    45   1 H        0.925     0.076     2.024     2.225
    46   1 H        0.923     0.080     1.978     2.199
    47   1 H        0.922     0.005     2.974     2.697
    48   1 H        0.926     0.070     2.090     2.261
    49   1 H        0.924     0.069     2.095     2.263
    50   1 H        0.924     0.067     2.120     2.277
    51   1 H        0.924     0.054     2.273     2.358
    52   1 H        0.924     0.056     2.248     2.344
    53   1 H        0.926     0.043     2.405     2.425
    54   1 H        0.926     0.058     2.227     2.334
    55   1 H        0.924     0.054     2.276     2.359
    56   1 H        0.924     0.055     2.256     2.349
    57   1 H        0.925     0.082     1.960     2.190
    58   1 H        0.925     0.081     1.965     2.192
    59   1 H        0.924     0.049     2.334     2.389
    60   1 H        0.924     0.052     2.294     2.368
    61   1 H        0.926     0.048     2.348     2.396
    62   1 H        0.924     0.077     2.014     2.219
    63   1 H        0.924     0.104     1.753     2.071
    64   1 H        0.925     0.079     1.993     2.208
    65   1 H        0.924     0.035     2.522     2.483
    66   1 H        0.925     0.065     2.145     2.290
    67   1 H        0.925     0.034     2.527     2.486
    68   1 H        0.925     0.050     2.314     2.379
    69   1 H        0.925     0.066     2.129     2.282
    70   1 H        0.925     0.035     2.517     2.481
    71   1 H        0.925     0.054     2.268     2.355
    72   1 H        0.860     0.155     1.370     1.833

Wiberg/Mayer (AO) data.
largest (>0.10) Wiberg bond orders for each atom

     #   Z sym  total        # sym  WBO       # sym  WBO       # sym  WBO
 ---------------------------------------------------------------------------
     1   7 N    3.030 --     2 C    1.952    72 H    0.943
     2   6 C    3.932 --     1 N    1.952     3 C    0.993    47 H    0.910
     3   6 C    3.975 --     2 C    0.993     4 C    0.982    14 C    0.950
                            31 C    0.940
     4   6 C    3.800 --     5 C    1.429    13 C    1.210     3 C    0.982
     5   6 C    3.921 --     4 C    1.429     6 C    1.359    34 H    0.953
     6   6 C    3.766 --     5 C    1.359     7 O    1.138     9 C    0.988
                             8 C    0.180
     7   8 O    2.515 --     8 C    1.271     6 C    1.138
     8   6 C    3.524 --     7 O    1.271    36 H    0.968    37 H    0.968
                             6 C    0.180
     9   6 C    3.949 --    12 C    1.009     6 C    0.988    35 H    0.954
                            10 O    0.910
    10   8 O    2.031 --    11 C    0.994     9 C    0.910
    11   6 C    3.943 --    10 O    0.994    40 H    0.977    38 H    0.976
                            39 H    0.975
    12   6 C    3.824 --    13 C    1.702     9 C    1.009    41 H    0.968
    13   6 C    3.968 --    12 C    1.702     4 C    1.210    42 H    0.957
    14   6 C    3.972 --    15 C    0.988    44 H    0.972    43 H    0.968
                             3 C    0.950
    15   6 C    3.985 --    16 C    1.062    14 C    0.988    45 H    0.954
                            46 H    0.924
    16   6 C    3.605 --    17 N    1.422    15 C    1.062    48 H    0.957
    17   7 N    3.494 --    16 C    1.422    30 C    0.997    18 C    0.988
    18   6 C    3.955 --    17 N    0.988    50 H    0.968    19 C    0.965
                            49 H    0.965
    19   6 C    3.977 --    20 C    1.008    52 H    0.973    51 H    0.971
                            18 C    0.965
    20   6 C    3.946 --    21 C    1.409    29 C    1.381    19 C    1.008
    21   6 C    3.951 --    22 C    1.417    20 C    1.409    53 H    0.968
    22   6 C    3.961 --    21 C    1.417    23 C    1.384    54 H    0.963
    23   6 C    3.897 --    22 C    1.384    26 C    1.221    24 O    1.109
    24   8 O    2.255 --    23 C    1.109    25 C    0.976
    25   6 C    3.929 --    57 H    0.977    24 O    0.976    56 H    0.973
                            55 H    0.973
    26   6 C    3.900 --    29 C    1.395    23 C    1.221    27 O    1.103
    27   8 O    2.255 --    26 C    1.103    28 C    0.979
    28   6 C    3.932 --    27 O    0.979    58 H    0.977    59 H    0.973
                            60 H    0.973
    29   6 C    3.960 --    26 C    1.395    20 C    1.381    61 H    0.962
    30   6 C    3.950 --    17 N    0.997    64 H    0.978    62 H    0.965
                            63 H    0.952
    31   6 C    3.964 --    33 C    1.009    32 C    1.008    65 H    0.961
                             3 C    0.940
    32   6 C    3.982 --    31 C    1.008    68 H    0.982    67 H    0.982
                            66 H    0.977
    33   6 C    3.981 --    31 C    1.009    70 H    0.983    71 H    0.979
                            69 H    0.975
    34   1 H    0.996 --     5 C    0.953
    35   1 H    0.988 --     9 C    0.954
    36   1 H    0.992 --     8 C    0.968
    37   1 H    0.996 --     8 C    0.968
    38   1 H    0.996 --    11 C    0.976
    39   1 H    0.994 --    11 C    0.975
    40   1 H    0.996 --    11 C    0.977
    41   1 H    0.995 --    12 C    0.968
    42   1 H    0.996 --    13 C    0.957
    43   1 H    0.995 --    14 C    0.968
    44   1 H    0.996 --    14 C    0.972
    45   1 H    0.992 --    15 C    0.954
    46   1 H    0.969 --    15 C    0.924
    47   1 H    0.987 --     2 C    0.910
    48   1 H    0.995 --    16 C    0.957
    49   1 H    0.991 --    18 C    0.965
    50   1 H    0.994 --    18 C    0.968
    51   1 H    0.996 --    19 C    0.971
    52   1 H    0.996 --    19 C    0.973
    53   1 H    0.998 --    21 C    0.968
    54   1 H    0.995 --    22 C    0.963
    55   1 H    0.992 --    25 C    0.973
    56   1 H    0.992 --    25 C    0.973
    57   1 H    0.993 --    25 C    0.977
    58   1 H    0.993 --    28 C    0.977
    59   1 H    0.993 --    28 C    0.973
    60   1 H    0.993 --    28 C    0.973
    61   1 H    0.996 --    29 C    0.962
    62   1 H    0.984 --    30 C    0.965
    63   1 H    0.983 --    30 C    0.952
    64   1 H    0.994 --    30 C    0.978
    65   1 H    0.993 --    31 C    0.961
    66   1 H    0.992 --    32 C    0.977
    67   1 H    0.997 --    32 C    0.982
    68   1 H    0.995 --    32 C    0.982
    69   1 H    0.992 --    33 C    0.975
    70   1 H    0.997 --    33 C    0.983
    71   1 H    0.993 --    33 C    0.979
    72   1 H    0.971 --     1 N    0.943
 ---------------------------------------------------------------------------

molecular dipole:
                 x           y           z       tot (Debye)
 q only:       -0.225      -0.396      -1.005
   full:       -0.183      -0.766      -1.137       3.516

           -------------------------------------------------
          | TOTAL ENERGY              -99.327184279669 Eh   |
          | GRADIENT NORM               0.009347091025 Eh/α |
          | HOMO-LUMO GAP               1.260881817537 eV   |
           -------------------------------------------------

 * finished run on 2024/04/06 at 11:16:18.148
