   * xtb version 6.6.1 (8d0f1dd) compiled by 'conda@1efc2f54142f' on 2023-08-01
          program call               : xtb struc.xyz --opt loose --input .xc1 --gfn2

   ID    Z sym.   atoms
    1    6 C      1, 3, 5-7, 10, 11, 14
    2    7 N      2, 4, 9, 13
    3    8 O      8, 12
    4    1 H      15-25
constraining bond 12 19 to    4.6333300 Å, actual value:    3.7175586 Å

          :  Hamiltonian                  GFN2-xTB          :
 * total energy  :   -43.7452722 Eh     change       -0.6650680E-10 Eh
 * total energy  :   -46.9495802 Eh     change       -0.3204308E+01 Eh
 * total energy  :   -51.2379122 Eh     change       -0.4288332E+01 Eh
 * total energy  :   -56.7552698 Eh     change       -0.5517358E+01 Eh
 * total energy  :   -63.3299994 Eh     change       -0.6574730E+01 Eh
 * total energy  :   -68.1626269 Eh     change       -0.4832628E+01 Eh
 * total energy  :   -71.0083105 Eh     change       -0.2845684E+01 Eh
 * total energy  :   -66.3750786 Eh     change        0.4633232E+01 Eh
 * total energy  :   -71.3687289 Eh     change       -0.4993650E+01 Eh
 * total energy  :   -71.5062638 Eh     change       -0.1375349E+00 Eh
 * total energy  :   -72.1364542 Eh     change       -0.3165890E-04 Eh
 * total energy  :   -72.1365028 Eh     change       -0.4861540E-04 Eh
 * total energy  :   -72.1365491 Eh     change       -0.4628217E-04 Eh
 * total energy  :   -72.1365928 Eh     change       -0.4374389E-04 Eh
 * total energy  :   -72.1366382 Eh     change       -0.4536925E-04 Eh
 * total energy  :   -72.1366620 Eh     change       -0.2376690E-04 Eh
 * total energy  :   -72.1366790 Eh     change       -0.1698496E-04 Eh
 * total energy  :   -72.1367387 Eh     change       -0.5977003E-04 Eh
 * total energy  :   -72.1367680 Eh     change       -0.2927538E-04 Eh
   *** GEOMETRY OPTIMIZATION CONVERGED AFTER 82 ITERATIONS ***

 final structure:
================
25
 xtb: 6.6.1 (8d0f1dd)
C            2.90518185161034        1.23488742806155        0.01167641763115
N            2.22832094689434       -0.03384779250774       -0.01610651247987
C            2.79000423383583       -1.23967309694561       -0.07759141521836
N            1.82472628904009       -2.19154738512794       -0.08110959490000
C            0.61228438026535       -1.56461395466066       -0.02277030702150
C            0.86309874252773       -0.19824954976740        0.02006272747320
C           -0.23006008681646        0.76708607363127        0.11347941062419
O           -0.11370803324375        1.97444495562380        0.16503965356967
N           -1.44219833823774        0.10362318292414        0.14265146672789
C           -3.19874363296297        3.72553262832647       -0.15134616072938
C           -1.62774492730913       -1.14425054072125        0.09216515373150
O           -2.80312484621263        2.60319675181774        0.39183456328417
N           -0.64070784689138       -2.07804971879263        0.00327948406408
C           -0.91009637957532       -3.49728004333721       -0.02987259236209
H            3.57083099799155        1.29146530038653        0.87303188759926
H            3.49174790473570        1.37273051784688       -0.89701282414073
H            2.15518037659991        2.02219455502204        0.08049975939644
H            3.84203251609143       -1.43516444890547       -0.11686953880940
H           -2.43704682462284        2.48949278425706        0.52682102350621
H           -4.22103183582008        3.81417535982769       -0.48629561623831
H           -2.51326106528945        4.55891765634594       -0.26368230950817
H           -0.52685676059555       -3.98375057288000        0.86820317617538
H           -0.46231295945187       -3.95422109866445       -0.91270251676066
H           -1.98807436323173       -3.63338939063841       -0.06932997756206
H            1.99199117481390       -3.18547105945133       -0.13288374008944

          :  Hamiltonian                  GFN2-xTB          :
         :: total energy             -72.136768008522 Eh    ::
         :: gradient norm              0.003451639097 Eh/a0 ::
         :: HOMO-LUMO gap              0.643200423872 eV    ::
         :: SCC energy               -42.647805705477 Eh    ::
         :: -> dispersion             -0.020788045026 Eh    ::
         :: repulsion energy           2.413006278029 Eh    ::

    * Orbital Energies and Occupations

         #    Occupation            Energy/Eh            Energy/eV
      -------------------------------------------------------------
         1        2.0000           -0.8880206             -24.1643
       ...           ...                  ...                  ...
        25        2.0000           -0.6634407             -18.0531
        26        2.0000           -0.6569439             -17.8764
        27        2.0000           -0.6401814             -17.4202
        28        1.9999           -0.6191839             -16.8489
        29        1.9999           -0.6144557             -16.7202
        30        1.9999           -0.6093626             -16.5816
        31        1.9998           -0.5995543             -16.3147
        32        1.9993           -0.5779714             -15.7274
        33        1.9991           -0.5748090             -15.6413
        34        1.9949           -0.5467824             -14.8787
        35        1.9910           -0.5377336             -14.6325
        36        1.9883           -0.5335601             -14.5189
        37        1.2775           -0.4612851             -12.5522 (HOMO)
        38        0.5687           -0.4376480             -11.9090 (LUMO)
        39        0.1606           -0.4136501             -11.2560
        40        0.0155           -0.3754813             -10.2174
        41        0.0056           -0.3591467              -9.7729
        42        0.0000           -0.2487015              -6.7675
        43                         -0.1763439              -4.7986
        44                         -0.1522126              -4.1419
        45                         -0.1147304              -3.1220
        46                         -0.0591863              -1.6105
        47                         -0.0252491              -0.6871
        48                         -0.0123294              -0.3355
       ...                                ...                  ...
        67                          5.3930908             146.7535
      -------------------------------------------------------------
                  HL-Gap            0.0236372 Eh            0.6432 eV

     #   Z          covCN         q      C6AA      α(0)
     1   6 C        3.691    -0.086    22.334     6.763
     2   7 N        2.830     0.064    20.127     6.663
     3   6 C        3.041     0.047    26.918     8.510
     4   7 N        2.790    -0.072    22.638     7.067
     5   6 C        3.075     0.110    25.502     8.280
     6   6 C        3.112    -0.015    28.233     8.704
     7   6 C        2.774     0.284    22.197     7.716
     8   8 O        0.857    -0.408    21.837     6.265
     9   7 N        1.846    -0.215    26.520     7.632
    10   6 C        2.794     0.064    26.554     8.441
    11   6 C        1.918     0.015    30.725     8.952
    12   8 O        1.664    -0.237    17.943     5.718
    13   7 N        2.741     0.004    21.195     6.838
    14   6 C        3.695    -0.069    22.006     6.711
    15   1 H        0.925     0.098     1.807     2.102
    16   1 H        0.924     0.098     1.805     2.101
    17   1 H        0.925     0.129     1.541     1.941
    18   1 H        0.926     0.112     1.683     2.028
    19   1 H        0.898     0.374     0.528     1.137
    20   1 H        0.926     0.123     1.590     1.972
    21   1 H        0.925     0.105     1.738     2.062
    22   1 H        0.924     0.076     2.019     2.222
    23   1 H        0.924     0.074     2.047     2.237
    24   1 H        0.925     0.109     1.706     2.043
    25   1 H        0.860     0.220     1.011     1.575

Wiberg/Mayer (AO) data.
largest (>0.10) Wiberg bond orders for each atom

     #   Z sym  total        # sym  WBO       # sym  WBO       # sym  WBO
 ---------------------------------------------------------------------------
     1   6 C    3.924 --     2 N    0.988    15 H    0.963    17 H    0.963
                            16 H    0.962
     2   7 N    3.643 --     3 C    1.369     6 C    1.153     1 C    0.988
     3   6 C    3.810 --     2 N    1.369     4 N    1.260    18 H    0.956
     4   7 N    3.555 --     3 C    1.260     5 C    1.178    25 H    0.923
     5   6 C    3.927 --     6 C    1.365    13 N    1.192     4 N    1.178
     6   6 C    3.887 --     5 C    1.365     2 N    1.153     7 C    1.056
     7   6 C    3.883 --     8 O    1.655     9 N    1.096     6 C    1.056
     8   8 O    1.976 --     7 C    1.655     9 N    0.115
     9   7 N    3.059 --    11 C    1.710     7 C    1.096     8 O    0.115
    10   6 C    3.275 --    12 O    1.348    20 H    0.963    21 H    0.960
    11   6 C    3.040 --     9 N    1.710    13 N    1.171
    12   8 O    2.240 --    10 C    1.348    19 H    0.852
    13   7 N    3.571 --     5 C    1.192    11 C    1.171    14 C    0.985
    14   6 C    3.944 --    13 N    0.985    24 H    0.974    23 H    0.973
                            22 H    0.971
    15   1 H    0.987 --     1 C    0.963
    16   1 H    0.987 --     1 C    0.962
    17   1 H    0.983 --     1 C    0.963
    18   1 H    0.986 --     3 C    0.956
    19   1 H    0.860 --    12 O    0.852
    20   1 H    0.985 --    10 C    0.963
    21   1 H    0.989 --    10 C    0.960
    22   1 H    0.991 --    14 C    0.971
    23   1 H    0.992 --    14 C    0.973
    24   1 H    0.987 --    14 C    0.974
    25   1 H    0.951 --     4 N    0.923
 ---------------------------------------------------------------------------

molecular dipole:
                 x           y           z       tot (Debye)
 q only:        1.104      -0.752      -0.191
   full:        1.986      -1.423      -0.177       6.226

           -------------------------------------------------
          | TOTAL ENERGY              -72.136768008522 Eh   |
          | GRADIENT NORM               0.003451639097 Eh/α |
          | HOMO-LUMO GAP               0.643200423872 eV   |
           -------------------------------------------------

 * finished run on 2024/06/05 at 19:58:01.265
