   * xtb version 6.6.1 (8d0f1dd) compiled by 'conda@1efc2f54142f' on 2023-08-01
          program call               : xtb struc.xyz --opt loose --input .xc1 --gfn2

   ID    Z sym.   atoms
    1    6 C      1, 3, 5-7, 10, 11, 14
    2    7 N      2, 4, 9, 13
    3    8 O      8, 12
    4    1 H      15-25
constraining bond 2 9 to    5.8400000 Å, actual value:    3.6850118 Å

          :  Hamiltonian                  GFN2-xTB          :
 * total energy  :   -33.9533184 Eh     change       -0.6633627E-10 Eh
 * total energy  :   -37.4210494 Eh     change       -0.3467731E+01 Eh
 * total energy  :   -39.7800445 Eh     change       -0.2358995E+01 Eh
 * total energy  :   -41.0952119 Eh     change       -0.1315167E+01 Eh
 * total energy  :   -41.6293022 Eh     change       -0.5340902E+00 Eh
 * total energy  :   -41.7390654 Eh     change       -0.1097632E+00 Eh
 * total energy  :   -41.7928813 Eh     change       -0.5381597E-01 Eh
 * total energy  :   -41.8609069 Eh     change       -0.6802555E-01 Eh
 * total energy  :   -41.9034185 Eh     change       -0.4251165E-01 Eh
 * total energy  :   -41.9345998 Eh     change       -0.3118121E-01 Eh
 * total energy  :   -42.1149369 Eh     change       -0.7602334E-03 Eh
 * total energy  :   -42.1156791 Eh     change       -0.7422513E-03 Eh
 * total energy  :   -42.1163079 Eh     change       -0.6287904E-03 Eh
 * total energy  :   -42.1167345 Eh     change       -0.4265650E-03 Eh
 * total energy  :   -42.1169849 Eh     change       -0.2504662E-03 Eh
 * total energy  :   -42.1171566 Eh     change       -0.1716249E-03 Eh
 * total energy  :   -42.1170599 Eh     change        0.9663660E-04 Eh
 * total energy  :   -42.1172623 Eh     change       -0.2023350E-03 Eh
 * total energy  :   -42.1172955 Eh     change       -0.3323320E-04 Eh
   *** GEOMETRY OPTIMIZATION CONVERGED AFTER 48 ITERATIONS ***

 final structure:
================
25
 xtb: 6.6.1 (8d0f1dd)
C            3.96724323782335        0.75995632502749        0.02437179697926
N            3.76375408512410       -0.64084535226007        0.02448325175827
C            2.72708213334842       -1.31204677151126        0.01456119979174
N            1.21128865785021       -1.15627728003823       -0.00560468282677
C            0.04074589956343       -0.48051754845925       -0.00277800420508
C           -0.41828582204214        0.90071725983167       -0.00381405052470
C            0.32184979846042        2.00133433718152       -0.00372138865059
O            0.94222831249931        2.96579115702963       -0.00390197145853
N           -1.85441234693284        0.90055992045029       -0.00611440200025
C           -2.72351146088886        2.05171091493780       -0.01109392353797
C           -2.28049910442365       -0.38697666041985       -0.00653119677649
O           -3.39176607304602       -0.81995060011215       -0.00758799135832
N           -1.10028947519665       -1.20079979619046       -0.00493210167072
C           -1.24368125493965       -2.63580731235392       -0.00434257984519
H            4.53665076564616        1.00776600133867        0.92169703702875
H            4.60639199083517        0.99720035875902       -0.82805905174602
H            3.05387250373321        1.35881413143939       -0.01576937029523
H            2.86812702981559       -2.38349178627580        0.01695002012092
H           -2.13530523603420        2.96443246505627        0.01264923454790
H           -3.34253295197137        2.04012980158595       -0.90920905883678
H           -3.37862487364607        2.01732310578021        0.86056291768133
H           -0.80854722404434       -3.08170432394281        0.89193467132561
H           -0.81604508995923       -3.08215216023233       -0.90407865139688
H           -2.31830772472093       -2.83151879846478       -0.00031204729170
H            0.93300573724668       -2.13540884655717       -0.01818803891247

          :  Hamiltonian                  GFN2-xTB          :
         :: total energy             -42.117295498719 Eh    ::
         :: gradient norm              0.002792726750 Eh/a0 ::
         :: HOMO-LUMO gap              1.890915692531 eV    ::
         :: SCC energy               -42.673095901496 Eh    ::
         :: -> dispersion             -0.020698601630 Eh    ::
         :: repulsion energy           0.555372970917 Eh    ::

    * Orbital Energies and Occupations

         #    Occupation            Energy/Eh            Energy/eV
      -------------------------------------------------------------
         1        2.0000           -0.9569533             -26.0400
       ...           ...                  ...                  ...
        25        2.0000           -0.6770605             -18.4238
        26        2.0000           -0.6669659             -18.1491
        27        2.0000           -0.6556243             -17.8404
        28        2.0000           -0.6518919             -17.7389
        29        2.0000           -0.6349390             -17.2776
        30        2.0000           -0.6292051             -17.1215
        31        2.0000           -0.6219492             -16.9241
        32        2.0000           -0.6165208             -16.7764
        33        2.0000           -0.6003806             -16.3372
        34        1.9998           -0.5816492             -15.8275
        35        1.9997           -0.5761069             -15.6767
        36        1.9861           -0.5464734             -14.8703
        37        1.9793           -0.5433290             -14.7847 (HOMO)
        38        0.0291           -0.4738391             -12.8938 (LUMO)
        39        0.0061           -0.4613159             -12.5530
        40        0.0000           -0.3846383             -10.4665
        41                         -0.3451547              -9.3921
        42                         -0.3245140              -8.8305
        43                         -0.2839259              -7.7260
        44                         -0.2030189              -5.5244
        45                         -0.1594113              -4.3378
        46                         -0.1171707              -3.1884
        47                         -0.0769540              -2.0940
        48                         -0.0517298              -1.4076
       ...                                ...                  ...
        67                          0.9700026              26.3951
      -------------------------------------------------------------
                  HL-Gap            0.0694899 Eh            1.8909 eV

     #   Z          covCN         q      C6AA      α(0)
     1   6 C        3.695    -0.045    21.567     6.643
     2   7 N        1.819    -0.117    24.307     7.305
     3   6 C        2.751     0.100    25.758     8.311
     4   7 N        2.680    -0.172    24.717     7.384
     5   6 C        2.863     0.156    24.627     8.134
     6   6 C        3.017    -0.004    28.090     8.694
     7   6 C        1.844     0.278    24.816     8.047
     8   8 O        0.856    -0.077    16.174     5.392
     9   7 N        2.772    -0.055    22.301     7.014
    10   6 C        3.688    -0.061    21.870     6.694
    11   6 C        2.806     0.317    21.615     7.617
    12   8 O        0.857    -0.355    20.798     6.114
    13   7 N        2.833    -0.057    22.337     7.019
    14   6 C        3.690    -0.076    22.145     6.735
    15   1 H        0.924     0.105     1.744     2.065
    16   1 H        0.924     0.105     1.742     2.064
    17   1 H        0.924     0.034     2.528     2.487
    18   1 H        0.926     0.097     1.810     2.104
    19   1 H        0.925     0.079     1.989     2.205
    20   1 H        0.924     0.101     1.774     2.083
    21   1 H        0.924     0.102     1.763     2.076
    22   1 H        0.924     0.088     1.895     2.153
    23   1 H        0.924     0.088     1.895     2.153
    24   1 H        0.924     0.133     1.511     1.923
    25   1 H        0.860     0.233     0.953     1.529

Wiberg/Mayer (AO) data.
largest (>0.10) Wiberg bond orders for each atom

     #   Z sym  total        # sym  WBO       # sym  WBO       # sym  WBO
 ---------------------------------------------------------------------------
     1   6 C    3.965 --     2 N    1.048    17 H    0.974    16 H    0.944
                            15 H    0.942
     2   7 N    3.247 --     3 C    1.983     1 C    1.048     4 N    0.123
     3   6 C    3.937 --     2 N    1.983    18 H    0.941     4 N    0.886
     4   7 N    3.488 --     5 C    1.318    25 H    0.898     3 C    0.886
                             2 N    0.123
     5   6 C    3.964 --     4 N    1.318    13 N    1.291     6 C    1.112
     6   6 C    3.916 --     7 C    1.490     5 C    1.112     9 N    1.018
                             8 O    0.164
     7   6 C    3.862 --     8 O    2.167     6 C    1.490
     8   8 O    2.482 --     7 C    2.167     6 C    0.164
     9   7 N    3.509 --    11 C    1.178     6 C    1.018    10 C    0.981
                            12 O    0.177
    10   6 C    3.931 --     9 N    0.981    19 H    0.979    20 H    0.967
                            21 H    0.966
    11   6 C    3.959 --    12 O    1.710     9 N    1.178    13 N    0.977
    12   8 O    2.084 --    11 C    1.710     9 N    0.177    13 N    0.107
    13   7 N    3.600 --     5 C    1.291    14 C    0.986    11 C    0.977
                            12 O    0.107
    14   6 C    3.928 --    13 N    0.986    22 H    0.963    23 H    0.962
                            24 H    0.957
    15   1 H    0.987 --     1 C    0.942
    16   1 H    0.987 --     1 C    0.944
    17   1 H    0.995 --     1 C    0.974
    18   1 H    0.989 --     3 C    0.941
    19   1 H    0.993 --    10 C    0.979
    20   1 H    0.988 --    10 C    0.967
    21   1 H    0.988 --    10 C    0.966
    22   1 H    0.991 --    14 C    0.963
    23   1 H    0.991 --    14 C    0.962
    24   1 H    0.982 --    14 C    0.957
    25   1 H    0.945 --     4 N    0.898
 ---------------------------------------------------------------------------

molecular dipole:
                 x           y           z       tot (Debye)
 q only:        1.185      -0.241       0.004
   full:        1.031      -0.137      -0.000       2.643

           -------------------------------------------------
          | TOTAL ENERGY              -42.117295498719 Eh   |
          | GRADIENT NORM               0.002792726750 Eh/α |
          | HOMO-LUMO GAP               1.890915692531 eV   |
           -------------------------------------------------

 * finished run on 2024/06/05 at 19:57:53.405
