   * xtb version 6.6.1 (8d0f1dd) compiled by 'conda@1efc2f54142f' on 2023-08-01
          program call               : xtb xtbopt.xyz --opt crude --input .xc2 --gfn2

   ID    Z sym.   atoms
    1    6 C      1, 3, 5-7, 10, 11, 14
    2    7 N      2, 4, 9, 13
    3    8 O      8, 12
    4    1 H      15-25
########################################################################
[WARNING] Please study the warnings concerning your input carefully
-1- readin_getIntValue: could not parse ''
########################################################################

          :  Hamiltonian                  GFN2-xTB          :
 * total energy  :   -42.1176524 Eh     change       -0.5684342E-13 Eh
 * total energy  :   -42.1226462 Eh     change       -0.4993760E-02 Eh
 * total energy  :   -42.1268564 Eh     change       -0.4210250E-02 Eh
 * total energy  :   -42.1284084 Eh     change       -0.1551989E-02 Eh
 * total energy  :   -42.1289139 Eh     change       -0.5055159E-03 Eh
 * total energy  :   -42.1294750 Eh     change       -0.5610727E-03 Eh
 * total energy  :   -42.1297997 Eh     change       -0.3247083E-03 Eh
   *** GEOMETRY OPTIMIZATION CONVERGED AFTER 7 ITERATIONS ***

 final structure:
================
25
 xtb: 6.6.1 (8d0f1dd)
C            3.69546144486169        0.94346344595436        0.01808004362400
N            3.51841661944529       -0.44700473926396        0.03563942947855
C            2.63646867117117       -1.30414561694433        0.02109697540472
N            1.19365049585866       -1.36308416698210       -0.01438135221331
C            0.07508954591676       -0.62468194788210       -0.00682375690682
C           -0.24903509316746        0.77993858061997       -0.00072194241669
C            0.46429579111623        1.90062035407372        0.00392648832660
O            1.00683889623022        2.91428358626709       -0.00529840104124
N           -1.66313057955112        0.86379270683748       -0.00061687712619
C           -2.48007391263114        2.05898205318076       -0.00596613876290
C           -2.20993748183201       -0.37648254852837       -0.00512988847376
O           -3.35857454132930       -0.69473560075100       -0.00586468398237
N           -1.10553443242201       -1.27456331466014       -0.00727440767228
C           -1.32926330905834       -2.69853006316391       -0.00785503507854
H            4.25945934654780        1.20328827205297        0.91665976585950
H            4.34375946487055        1.16770538472101       -0.83172272353738
H            2.79783937155241        1.55224567805271       -0.04004016428248
H            2.98173360341778       -2.33314211310775        0.03892825599448
H           -1.85761486959850        2.94841360829088        0.03188817895218
H           -3.08992939790997        2.07749488742252       -0.91021474385744
H           -3.14572289863155        2.04109584572345        0.85753654766583
H           -0.91712756056096       -3.16723288089991        0.88794142403178
H           -0.92511889332431       -3.16609252687649       -0.90787020637982
H           -2.41260349189459       -2.83722733800888       -0.00346371976487
H            0.93108472502278       -2.34616300452811       -0.02728144994160

          :  Hamiltonian                  GFN2-xTB          :
         :: total energy             -42.129799697849 Eh    ::
         :: gradient norm              0.008017832656 Eh/a0 ::
         :: HOMO-LUMO gap              1.482070080028 eV    ::
         :: SCC energy               -42.699480516207 Eh    ::
         :: -> dispersion             -0.021320099395 Eh    ::
         :: repulsion energy           0.569586770922 Eh    ::

    * Orbital Energies and Occupations

         #    Occupation            Energy/Eh            Energy/eV
      -------------------------------------------------------------
         1        2.0000           -0.9563236             -26.0229
       ...           ...                  ...                  ...
        25        2.0000           -0.6771984             -18.4275
        26        2.0000           -0.6678677             -18.1736
        27        2.0000           -0.6593425             -17.9416
        28        2.0000           -0.6526649             -17.7599
        29        2.0000           -0.6368387             -17.3293
        30        2.0000           -0.6295968             -17.1322
        31        2.0000           -0.6265070             -17.0481
        32        2.0000           -0.6218362             -16.9210
        33        2.0000           -0.6026472             -16.3989
        34        1.9999           -0.5812084             -15.8155
        35        1.9998           -0.5752914             -15.6545
        36        1.9919           -0.5453302             -14.8392
        37        1.9335           -0.5284154             -14.3789 (HOMO)
        38        0.0580           -0.4739503             -12.8968 (LUMO)
        39        0.0169           -0.4640056             -12.6262
        40        0.0000           -0.3771688             -10.2633
        41                         -0.3427675              -9.3272
        42                         -0.3198905              -8.7047
        43                         -0.2185255              -5.9464
        44                         -0.1959438              -5.3319
        45                         -0.1363496              -3.7103
        46                         -0.1179341              -3.2091
        47                         -0.0737074              -2.0057
        48                         -0.0616476              -1.6775
       ...                                ...                  ...
        67                          0.9607125              26.1423
      -------------------------------------------------------------
                  HL-Gap            0.0544651 Eh            1.4821 eV

     #   Z          covCN         q      C6AA      α(0)
     1   6 C        3.688    -0.046    21.598     6.652
     2   7 N        1.820    -0.137    24.746     7.371
     3   6 C        2.748     0.102    25.722     8.305
     4   7 N        2.689    -0.136    23.944     7.267
     5   6 C        2.889     0.154    24.673     8.144
     6   6 C        2.999     0.000    28.007     8.681
     7   6 C        1.848     0.276    24.836     8.050
     8   8 O        0.856    -0.085    16.290     5.411
     9   7 N        2.803    -0.062    22.429     7.034
    10   6 C        3.691    -0.063    21.899     6.697
    11   6 C        2.813     0.317    21.629     7.620
    12   8 O        0.857    -0.356    20.817     6.117
    13   7 N        2.834    -0.055    22.291     7.012
    14   6 C        3.689    -0.075    22.137     6.734
    15   1 H        0.924     0.106     1.733     2.059
    16   1 H        0.924     0.107     1.726     2.054
    17   1 H        0.925     0.033     2.538     2.491
    18   1 H        0.925     0.094     1.840     2.121
    19   1 H        0.925     0.078     2.003     2.213
    20   1 H        0.924     0.101     1.775     2.084
    21   1 H        0.924     0.103     1.757     2.073
    22   1 H        0.924     0.089     1.888     2.149
    23   1 H        0.924     0.089     1.889     2.149
    24   1 H        0.924     0.132     1.521     1.929
    25   1 H        0.860     0.233     0.953     1.529

Wiberg/Mayer (AO) data.
largest (>0.10) Wiberg bond orders for each atom

     #   Z sym  total        # sym  WBO       # sym  WBO       # sym  WBO
 ---------------------------------------------------------------------------
     1   6 C    3.961 --     2 N    1.058    17 H    0.960    16 H    0.939
                            15 H    0.939
     2   7 N    3.190 --     3 C    1.915     1 C    1.058     4 N    0.106
     3   6 C    3.945 --     2 N    1.915     4 N    0.976    18 H    0.933
     4   7 N    3.522 --     5 C    1.301     3 C    0.976    25 H    0.900
                             2 N    0.106
     5   6 C    3.959 --     4 N    1.301    13 N    1.288     6 C    1.135
     6   6 C    3.918 --     7 C    1.473     5 C    1.135     9 N    1.019
                             8 O    0.157
     7   6 C    3.828 --     8 O    2.142     6 C    1.473
     8   8 O    2.458 --     7 C    2.142     6 C    0.157
     9   7 N    3.506 --    11 C    1.172     6 C    1.019    10 C    0.978
                            12 O    0.178
    10   6 C    3.931 --    19 H    0.979     9 N    0.978    20 H    0.968
                            21 H    0.968
    11   6 C    3.959 --    12 O    1.705     9 N    1.172    13 N    0.986
    12   8 O    2.080 --    11 C    1.705     9 N    0.178    13 N    0.108
    13   7 N    3.600 --     5 C    1.288    11 C    0.986    14 C    0.985
                            12 O    0.108
    14   6 C    3.927 --    13 N    0.985    22 H    0.963    23 H    0.963
                            24 H    0.959
    15   1 H    0.985 --     1 C    0.939
    16   1 H    0.984 --     1 C    0.939
    17   1 H    0.987 --     1 C    0.960
    18   1 H    0.985 --     3 C    0.933
    19   1 H    0.994 --    10 C    0.979
    20   1 H    0.988 --    10 C    0.968
    21   1 H    0.988 --    10 C    0.968
    22   1 H    0.989 --    14 C    0.963
    23   1 H    0.988 --    14 C    0.963
    24   1 H    0.982 --    14 C    0.959
    25   1 H    0.945 --     4 N    0.900
 ---------------------------------------------------------------------------

molecular dipole:
                 x           y           z       tot (Debye)
 q only:        1.256      -0.528       0.003
   full:        1.148      -0.511      -0.003       3.195

           -------------------------------------------------
          | TOTAL ENERGY              -42.129799697849 Eh   |
          | GRADIENT NORM               0.008017832656 Eh/α |
          | HOMO-LUMO GAP               1.482070080028 eV   |
           -------------------------------------------------

 * finished run on 2024/06/05 at 19:57:53.726
