   * xtb version 6.6.1 (8d0f1dd) compiled by 'conda@1efc2f54142f' on 2023-08-01
          program call               : xtb struc.xyz --opt loose --input .xc1 --gfn2

   ID    Z sym.   atoms
    1    6 C      1, 3, 5-7, 10, 11, 14
    2    7 N      2, 4, 9, 13
    3    8 O      8, 12
    4    1 H      15-25
constraining bond 6 11 to    6.0000000 Å, actual value:    2.7841340 Å

          :  Hamiltonian                  GFN2-xTB          :
 * total energy  :   -23.7944446 Eh     change       -0.2401990E-09 Eh
 * total energy  :   -29.4442953 Eh     change       -0.5649851E+01 Eh
 * total energy  :   -33.2169407 Eh     change       -0.3772645E+01 Eh
 * total energy  :   -36.2821863 Eh     change       -0.3065246E+01 Eh
 * total energy  :   -38.8086906 Eh     change       -0.2526504E+01 Eh
 * total energy  :   -40.4052318 Eh     change       -0.1596541E+01 Eh
 * total energy  :   -41.0946306 Eh     change       -0.6893988E+00 Eh
 * total energy  :   -41.4890648 Eh     change       -0.3944342E+00 Eh
 * total energy  :   -41.6154268 Eh     change       -0.1263621E+00 Eh
 * total energy  :   -41.6566429 Eh     change       -0.4121610E-01 Eh
 * total energy  :   -41.9847795 Eh     change       -0.1286915E-03 Eh
 * total energy  :   -41.9849087 Eh     change       -0.1291913E-03 Eh
 * total energy  :   -41.9850412 Eh     change       -0.1324310E-03 Eh
 * total energy  :   -41.9851466 Eh     change       -0.1053941E-03 Eh
 * total energy  :   -41.9852499 Eh     change       -0.1032977E-03 Eh
 * total energy  :   -41.9853401 Eh     change       -0.9022253E-04 Eh
 * total energy  :   -41.9853606 Eh     change       -0.2049048E-04 Eh
 * total energy  :   -41.9854350 Eh     change       -0.7446835E-04 Eh
 * total energy  :   -41.9854694 Eh     change       -0.3434588E-04 Eh
   *** GEOMETRY OPTIMIZATION CONVERGED AFTER 81 ITERATIONS ***

 final structure:
================
25
 xtb: 6.6.1 (8d0f1dd)
C            3.76961647438605        0.83134450857434        0.34211016660460
N            3.25990379002689       -0.49950770850986        0.10415269880071
C            3.57432542072684       -1.71283350445249       -0.24512873794196
N            2.60184603967831       -2.68984551910303       -0.37743646507459
C            1.33516142229766       -2.49816114636674       -0.09573478646770
C            2.37958233746711        0.39108009011650        0.53928106699526
C           -1.50756894571735        1.85728834791168       -0.02979254913738
O           -0.70797368773466        1.00946533023969       -0.08527397171097
N           -2.32857134792694        2.67099226986286        0.20188784953555
C           -3.21456819483366        3.71365384830154       -0.10184441478438
C           -3.50818973681274       -0.56000874632565       -0.11658317990238
O           -4.25503846914398        0.29398725910809       -0.14056653556155
N            0.22519957165677       -2.94435203752154       -0.26743782939582
C           -1.10200680238679       -2.86048935963037        0.16126278652888
H            4.40971992156846        0.97530911802736        1.20579293562985
H            4.07179899534128        1.39660668654530       -0.53611698204733
H            1.36924265274029        0.63132311418254        0.30612798730524
H            4.59669361962775       -1.98190394409069       -0.44324717407584
H           -2.69154595756358        4.67037410273238       -0.04869475523904
H           -3.64267954630508        3.58719682456975       -1.09864516500910
H           -4.01408214504831        3.70451521238886        0.63942789964636
H           -1.18942124667949       -3.04670987289052        1.23349794277742
H           -1.66268625231854       -3.62284989881284       -0.38175539305080
H           -1.53968055481521       -1.88484096615302       -0.07561479746801
H            2.93135415589080       -3.61339546709906       -0.65849697905638

          :  Hamiltonian                  GFN2-xTB          :
         :: total energy             -41.985469390986 Eh    ::
         :: gradient norm              0.003105891644 Eh/a0 ::
         :: HOMO-LUMO gap              1.540096678951 eV    ::
         :: SCC energy               -42.614944407864 Eh    ::
         :: -> dispersion             -0.015888062805 Eh    ::
         :: repulsion energy           0.629450150304 Eh    ::

    * Orbital Energies and Occupations

         #    Occupation            Energy/Eh            Energy/eV
      -------------------------------------------------------------
         1        2.0000           -0.8721044             -23.7312
       ...           ...                  ...                  ...
        25        1.9995           -0.6500473             -17.6887
        26        1.9994           -0.6433501             -17.5064
        27        1.9986           -0.6238669             -16.9763
        28        1.9983           -0.6201201             -16.8743
        29        1.9981           -0.6176303             -16.8066
        30        1.9962           -0.6003857             -16.3373
        31        1.9960           -0.5995153             -16.3136
        32        1.9930           -0.5862915             -15.9538
        33        1.9830           -0.5649695             -15.3736
        34        1.9698           -0.5511378             -14.9972
        35        1.9466           -0.5373119             -14.6210
        36        1.9392           -0.5341480             -14.5349
        37        1.5187           -0.4791913             -13.0395 (HOMO)
        38        0.4510           -0.4225938             -11.4994 (LUMO)
        39        0.1118           -0.3847657             -10.4700
        40        0.0436           -0.3615392              -9.8380
        41        0.0435           -0.3615137              -9.8373
        42        0.0098           -0.3257365              -8.8637
        43        0.0032           -0.2992053              -8.1418
        44        0.0017           -0.2844857              -7.7413
        45        0.0002           -0.2383575              -6.4860
        46        0.0000           -0.1517655              -4.1298
        47        0.0000           -0.1093066              -2.9744
        48        0.0000           -0.0800160              -2.1773
       ...           ...                  ...                  ...
        67                          1.2489997              33.9870
      -------------------------------------------------------------
                  HL-Gap            0.0565975 Eh            1.5401 eV

     #   Z          covCN         q      C6AA      α(0)
     1   6 C        3.737    -0.011    20.850     6.516
     2   7 N        2.734     0.073    19.968     6.637
     3   6 C        2.770     0.028    27.355     8.566
     4   7 N        2.688    -0.045    22.115     6.984
     5   6 C        1.848     0.092    28.856     8.678
     6   6 C        2.817    -0.045    29.112     8.841
     7   6 C        1.769     0.307    24.323     7.974
     8   8 O        0.856    -0.307    19.910     5.982
     9   7 N        1.820    -0.131    24.603     7.349
    10   6 C        3.685    -0.030    21.321     6.611
    11   6 C        0.856     0.022    34.408     9.788
    12   8 O        0.856    -0.073    16.125     5.384
    13   7 N        1.822    -0.045    22.827     7.079
    14   6 C        3.687    -0.064    21.925     6.702
    15   1 H        0.925     0.089     1.886     2.147
    16   1 H        0.925     0.077     2.006     2.215
    17   1 H        0.927     0.123     1.586     1.969
    18   1 H        0.926     0.095     1.831     2.116
    19   1 H        0.924     0.092     1.856     2.130
    20   1 H        0.924     0.088     1.900     2.156
    21   1 H        0.924     0.102     1.764     2.077
    22   1 H        0.924     0.098     1.800     2.098
    23   1 H        0.924     0.115     1.653     2.011
    24   1 H        0.924     0.127     1.555     1.950
    25   1 H        0.860     0.220     1.011     1.575

Wiberg/Mayer (AO) data.
largest (>0.10) Wiberg bond orders for each atom

     #   Z sym  total        # sym  WBO       # sym  WBO       # sym  WBO
 ---------------------------------------------------------------------------
     1   6 C    3.869 --     6 C    0.986    15 H    0.959    16 H    0.957
                             2 N    0.911
     2   7 N    3.627 --     3 C    1.387     6 C    1.236     1 C    0.911
     3   6 C    3.683 --     2 N    1.387     4 N    1.115    18 H    0.951
                             6 C    0.165
     4   7 N    3.501 --     5 C    1.287     3 C    1.115    25 H    0.891
                            13 N    0.109
     5   6 C    3.490 --    13 N    2.035     4 N    1.287
     6   6 C    3.396 --     2 N    1.236     1 C    0.986    17 H    0.935
                             3 C    0.165
     7   6 C    3.935 --     9 N    2.039     8 O    1.816
     8   8 O    2.225 --     7 C    1.816     9 N    0.352
     9   7 N    3.418 --     7 C    2.039    10 C    1.025     8 O    0.352
    10   6 C    3.918 --     9 N    1.025    21 H    0.954    20 H    0.951
                            19 H    0.950
    11   6 C    2.555 --    12 O    2.532
    12   8 O    2.534 --    11 C    2.532
    13   7 N    3.243 --     5 C    2.035    14 C    1.045     4 N    0.109
    14   6 C    3.913 --    13 N    1.045    22 H    0.945    23 H    0.944
                            24 H    0.915
    15   1 H    0.977 --     1 C    0.959
    16   1 H    0.974 --     1 C    0.957
    17   1 H    0.976 --     6 C    0.935
    18   1 H    0.990 --     3 C    0.951
    19   1 H    0.977 --    10 C    0.950
    20   1 H    0.978 --    10 C    0.951
    21   1 H    0.977 --    10 C    0.954
    22   1 H    0.975 --    14 C    0.945
    23   1 H    0.970 --    14 C    0.944
    24   1 H    0.962 --    14 C    0.915
    25   1 H    0.921 --     4 N    0.891
 ---------------------------------------------------------------------------

molecular dipole:
                 x           y           z       tot (Debye)
 q only:        2.119      -1.289      -0.126
   full:        2.066      -1.163      -0.354       6.093

           -------------------------------------------------
          | TOTAL ENERGY              -41.985469390986 Eh   |
          | GRADIENT NORM               0.003105891644 Eh/α |
          | HOMO-LUMO GAP               1.540096678951 eV   |
           -------------------------------------------------

 * finished run on 2024/06/05 at 19:58:49.445
