   * xtb version 6.6.1 (8d0f1dd) compiled by 'conda@1efc2f54142f' on 2023-08-01
          program call               : xtb xtbopt.xyz --opt crude --input .xc2 --gfn2

   ID    Z sym.   atoms
    1    6 C      1, 3, 5-7, 10, 11, 14
    2    7 N      2, 4, 9, 13
    3    8 O      8, 12
    4    1 H      15-25

          :  Hamiltonian                  GFN2-xTB          :
 * total energy  :   -41.9760034 Eh     change       -0.2063416E-10 Eh
   *** GEOMETRY OPTIMIZATION CONVERGED AFTER 1 ITERATIONS ***

 final structure:
================
25
 xtb: 6.6.1 (8d0f1dd)
C            4.99131733736222        0.15560560934066       -0.03845762362575
N            3.66123313535917       -0.23802439797014       -0.07290074820877
C            3.13744788305943       -1.39579440471132       -0.35735443758068
N            1.89829473859834       -1.70878084696225       -0.36606164545256
C           -0.38040492094714       -0.10792342169167        0.17496370454273
C           -0.42479020274749        2.44131861210676        0.88753616150286
C           -0.96834987778182        1.21365255890943        0.19826425889634
O           -0.35296586675674        2.36284079288087       -0.38181398626466
N           -2.37199694551068        1.03997184600824        0.04721846472973
C           -3.34896799307296        2.08995863540083        0.04260239444007
C           -2.65222198004803       -0.29221196137942        0.03522109683500
O           -3.71086684591283       -0.84747239485063       -0.03146930084108
N           -1.38021624141009       -0.95807646174553        0.11451873597157
C           -1.30375426710277       -2.39107744821279        0.11425342377858
H            5.20792841356191        0.58530407441995        0.94764258560407
H            5.70344059815329       -0.65551746956626       -0.24057473354465
H            5.14497720098705        0.95917367823657       -0.77141223633197
H            3.81116431913126       -2.22787799379911       -0.62921619987038
H           -3.14757001942780        2.79141715013464        0.85940676452542
H           -3.32133445440414        2.63691616592394       -0.90670662422114
H           -4.33499996350361        1.64059639206344        0.17309290811773
H           -0.93015370584012       -2.75063178996023        1.07524783675776
H           -0.62435113892216       -2.73469142645612       -0.66808001774265
H           -2.30678279901671       -2.78538840504890       -0.05591146173574
H            1.16435511029574       -1.00504855145908       -0.11883770237316

          :  Hamiltonian                  GFN2-xTB          :
         :: total energy             -41.976003372074 Eh    ::
         :: gradient norm              0.004552821422 Eh/a0 ::
         :: HOMO-LUMO gap              0.173143583141 eV    ::
         :: SCC energy               -42.454857111689 Eh    ::
         :: -> dispersion             -0.018370224347 Eh    ::
         :: repulsion energy           0.478842896792 Eh    ::

    * Orbital Energies and Occupations

         #    Occupation            Energy/Eh            Energy/eV
      -------------------------------------------------------------
         1        2.0000           -0.9335905             -25.4043
       ...           ...                  ...                  ...
        25        1.9971           -0.6694032             -18.2154
        26        1.9917           -0.6444150             -17.5354
        27        1.9864           -0.6327547             -17.2181
        28        1.9850           -0.6303716             -17.1533
        29        1.9823           -0.6264118             -17.0455
        30        1.9816           -0.6254140             -17.0184
        31        1.9680           -0.6120929             -16.6559
        32        1.9594           -0.6063787             -16.5004
        33        1.9356           -0.5951030             -16.1936
        34        1.7994           -0.5663983             -15.4125
        35        1.7482           -0.5603174             -15.2470
        36        1.6226           -0.5489306             -14.9372
        37        1.4079           -0.5348653             -14.5544 (HOMO)
        38        1.2905           -0.5285024             -14.3813 (LUMO)
        39        0.2127           -0.4637363             -12.6189
        40        0.1397           -0.4528009             -12.3213
        41        0.0027           -0.3573606              -9.7243
        42        0.0024           -0.3546210              -9.6497
        43        0.0000           -0.2245490              -6.1103
        44        0.0000           -0.1920962              -5.2272
        45        0.0000           -0.1587155              -4.3189
        46                         -0.0848171              -2.3080
        47                         -0.0597880              -1.6269
        48                         -0.0501589              -1.3649
       ...                                ...                  ...
        67                          0.5462282              14.8636
      -------------------------------------------------------------
                  HL-Gap            0.0063629 Eh            0.1731 eV

     #   Z          covCN         q      C6AA      α(0)
     1   6 C        3.690    -0.043    21.540     6.642
     2   7 N        1.829    -0.120    24.389     7.318
     3   6 C        2.753     0.152    24.691     8.137
     4   7 N        1.777    -0.229    26.827     7.670
     5   6 C        1.988    -0.092    33.579     9.358
     6   6 C        1.832     0.005    31.042     9.001
     7   6 C        3.860     0.215    17.210     5.900
     8   8 O        1.703    -0.082    15.579     5.329
     9   7 N        2.780    -0.076    22.709     7.078
    10   6 C        3.687    -0.053    21.725     6.672
    11   6 C        2.826     0.316    21.634     7.621
    12   8 O        0.857    -0.316    20.064     6.006
    13   7 N        2.823     0.018    20.934     6.795
    14   6 C        3.692    -0.077    22.166     6.737
    15   1 H        0.924     0.128     1.549     1.946
    16   1 H        0.923     0.104     1.751     2.069
    17   1 H        0.923     0.127     1.557     1.951
    18   1 H        0.923     0.113     1.674     2.023
    19   1 H        0.924     0.105     1.740     2.063
    20   1 H        0.924     0.108     1.714     2.047
    21   1 H        0.924     0.121     1.604     1.981
    22   1 H        0.924     0.118     1.628     1.996
    23   1 H        0.924     0.123     1.588     1.970
    24   1 H        0.924     0.125     1.575     1.963
    25   1 H        0.859     0.210     1.056     1.610

Wiberg/Mayer (AO) data.
largest (>0.10) Wiberg bond orders for each atom

     #   Z sym  total        # sym  WBO       # sym  WBO       # sym  WBO
 ---------------------------------------------------------------------------
     1   6 C    3.852 --     2 N    1.111    16 H    0.909    15 H    0.902
                            17 H    0.900
     2   7 N    2.594 --     3 C    1.411     1 C    1.111
     3   6 C    3.903 --     4 N    1.596     2 N    1.411    18 H    0.850
     4   7 N    2.505 --     3 C    1.596    25 H    0.793
     5   6 C    2.921 --    13 N    1.469     7 C    1.095    25 H    0.118
     6   6 C    2.351 --     8 O    1.464     7 C    0.766
     7   6 C    3.761 --     5 C    1.095     9 N    1.000     8 O    0.828
                             6 C    0.766
     8   8 O    2.381 --     6 C    1.464     7 C    0.828
     9   7 N    3.397 --    11 C    1.168     7 C    1.000    10 C    0.994
                            12 O    0.136
    10   6 C    3.880 --     9 N    0.994    21 H    0.955    19 H    0.947
                            20 H    0.941
    11   6 C    3.910 --    12 O    1.692     9 N    1.168    13 N    0.962
    12   8 O    1.970 --    11 C    1.692     9 N    0.136
    13   7 N    3.595 --     5 C    1.469    14 C    0.994    11 C    0.962
    14   6 C    3.878 --    13 N    0.994    24 H    0.957    23 H    0.942
                            22 H    0.940
    15   1 H    0.921 --     1 C    0.902
    16   1 H    0.913 --     1 C    0.909
    17   1 H    0.920 --     1 C    0.900
    18   1 H    0.868 --     3 C    0.850
    19   1 H    0.965 --    10 C    0.947
    20   1 H    0.957 --    10 C    0.941
    21   1 H    0.970 --    10 C    0.955
    22   1 H    0.965 --    14 C    0.940
    23   1 H    0.964 --    14 C    0.942
    24   1 H    0.973 --    14 C    0.957
    25   1 H    0.932 --     4 N    0.793     5 C    0.118
 ---------------------------------------------------------------------------

molecular dipole:
                 x           y           z       tot (Debye)
 q only:        1.704      -0.232       0.121
   full:        1.833      -0.047      -0.282       4.715

           -------------------------------------------------
          | TOTAL ENERGY              -41.976003372074 Eh   |
          | GRADIENT NORM               0.004552821422 Eh/α |
          | HOMO-LUMO GAP               0.173143583141 eV   |
           -------------------------------------------------

 * finished run on 2024/06/05 at 19:58:46.131
