   * xtb version 6.6.1 (8d0f1dd) compiled by 'conda@1efc2f54142f' on 2023-08-01
          program call               : xtb xtbopt.xyz --opt crude --input .xc2 --gfn2

   ID    Z sym.   atoms
    1    6 C      1, 3, 5-7, 10, 11, 14
    2    7 N      2, 4, 9, 13
    3    8 O      8, 12
    4    1 H      15-25
########################################################################
[WARNING] Please study the warnings concerning your input carefully
-1- readin_getIntValue: could not parse ''
########################################################################

          :  Hamiltonian                  GFN2-xTB          :
 * total energy  :   -42.1465470 Eh     change       -0.7105427E-14 Eh
 * total energy  :   -42.1559226 Eh     change       -0.9375538E-02 Eh
 * total energy  :   -42.1636669 Eh     change       -0.7744323E-02 Eh
 * total energy  :   -42.1690273 Eh     change       -0.5360397E-02 Eh
 * total energy  :   -42.1733272 Eh     change       -0.4299953E-02 Eh
 * total energy  :   -42.1764368 Eh     change       -0.3109572E-02 Eh
 * total energy  :   -42.1779263 Eh     change       -0.1489479E-02 Eh
 * total energy  :   -42.1783340 Eh     change       -0.4077612E-03 Eh
   *** GEOMETRY OPTIMIZATION CONVERGED AFTER 8 ITERATIONS ***

 final structure:
================
25
 xtb: 6.6.1 (8d0f1dd)
C            3.76730053888393        0.58796866242014        0.12259549439601
N            2.69267374257806       -0.18922341247271        0.04143189915197
C            2.69488584641594       -1.54190502109497       -0.01749687353254
N            1.40663164994744       -2.01602386848864       -0.05959044322952
C            0.57201149642807       -0.96844182412803       -0.03400419295102
C            1.34727864855751        0.20918074565367        0.01295773204146
C            0.66661618389763        1.43946133689136       -0.01313381792007
O            1.18514077288009        2.64941018852184       -0.06028826452378
N           -0.67572512388728        1.40173846936779        0.00014647313606
C           -3.39032504674748        1.52556241526590        0.07833304750783
C           -1.36478354540065        0.30239835521137       -0.00399451526977
O           -2.67363459706281        0.29502444806642        0.01716700016153
N           -0.79073808323324       -0.95684903441607       -0.04552797556768
C           -1.55439962916874       -2.18676400728582       -0.09260503865006
H            3.68357173702412        1.64557267026336        0.25344096357885
H            4.73235117104791        0.12460152666492        0.14275836388755
H            2.14529724398619        2.66945842727158       -0.15914113236849
H            3.56804373490666       -2.15519999088017       -0.01751359627293
H           -2.72408374608908        2.38048131332051        0.01898822231990
H           -4.08707420347139        1.53263014663156       -0.75596651122936
H           -3.93936338392332        1.54517859016939        1.01820663897897
H           -1.29351957551243       -2.82380672438536        0.75391268904359
H           -1.35890052855949       -2.71780009733598       -1.02595923487463
H           -2.61140522956309       -1.94204333331848       -0.03905051507337
H            1.16258144016486       -2.99237144031272       -0.10449479484010

          :  Hamiltonian                  GFN2-xTB          :
         :: total energy             -42.178334036123 Eh    ::
         :: gradient norm              0.007991042329 Eh/a0 ::
         :: HOMO-LUMO gap              1.525834223718 eV    ::
         :: SCC energy               -42.697287085864 Eh    ::
         :: -> dispersion             -0.022432514044 Eh    ::
         :: repulsion energy           0.518906210495 Eh    ::

    * Orbital Energies and Occupations

         #    Occupation            Energy/Eh            Energy/eV
      -------------------------------------------------------------
         1        2.0000           -0.8906211             -24.2350
       ...           ...                  ...                  ...
        25        2.0000           -0.6656738             -18.1139
        26        2.0000           -0.6537375             -17.7891
        27        2.0000           -0.6532729             -17.7765
        28        2.0000           -0.6453186             -17.5600
        29        2.0000           -0.6303373             -17.1524
        30        2.0000           -0.6302365             -17.1496
        31        1.9999           -0.6084500             -16.5568
        32        1.9998           -0.5981888             -16.2775
        33        1.9998           -0.5950054             -16.1909
        34        1.9995           -0.5796557             -15.7732
        35        1.9977           -0.5565324             -15.1440
        36        1.9965           -0.5495440             -14.9539
        37        1.6930           -0.4762441             -12.9593 (HOMO)
        38        0.2755           -0.4201707             -11.4334 (LUMO)
        39        0.0334           -0.3846659             -10.4673
        40        0.0050           -0.3543235              -9.6416
        41        0.0000           -0.2740996              -7.4586
        42        0.0000           -0.1899135              -5.1678
        43                         -0.1569489              -4.2708
        44                         -0.1393721              -3.7925
        45                         -0.1189032              -3.2355
        46                         -0.1071200              -2.9149
        47                         -0.0367115              -0.9990
        48                         -0.0328658              -0.8943
       ...                                ...                  ...
        67                          0.5060832              13.7712
      -------------------------------------------------------------
                  HL-Gap            0.0560734 Eh            1.5258 eV

     #   Z          covCN         q      C6AA      α(0)
     1   6 C        2.791    -0.118    30.972     9.116
     2   7 N        2.796     0.102    19.478     6.555
     3   6 C        3.039    -0.007    28.168     8.705
     4   7 N        2.766    -0.068    22.554     7.053
     5   6 C        3.051     0.106    25.605     8.299
     6   6 C        3.082    -0.037    28.837     8.803
     7   6 C        2.800     0.235    23.086     7.871
     8   8 O        1.663    -0.306    19.111     5.902
     9   7 N        1.842    -0.270    27.851     7.821
    10   6 C        3.648    -0.001    20.925     6.572
    11   6 C        2.790     0.292    22.059     7.693
    12   8 O        1.707    -0.197    17.289     5.614
    13   7 N        2.738    -0.047    22.143     6.989
    14   6 C        3.693    -0.072    22.073     6.722
    15   1 H        0.927     0.064     2.151     2.294
    16   1 H        0.926     0.081     1.972     2.196
    17   1 H        0.805     0.343     0.604     1.221
    18   1 H        0.927     0.101     1.780     2.086
    19   1 H        0.925     0.101     1.774     2.083
    20   1 H        0.925     0.099     1.790     2.092
    21   1 H        0.925     0.097     1.810     2.104
    22   1 H        0.924     0.086     1.918     2.166
    23   1 H        0.924     0.087     1.909     2.161
    24   1 H        0.925     0.114     1.660     2.015
    25   1 H        0.860     0.214     1.035     1.594

Wiberg/Mayer (AO) data.
largest (>0.10) Wiberg bond orders for each atom

     #   Z sym  total        # sym  WBO       # sym  WBO       # sym  WBO
 ---------------------------------------------------------------------------
     1   6 C    3.585 --     2 N    1.324    16 H    0.971    15 H    0.965
                             3 C    0.179
     2   7 N    3.730 --     1 C    1.324     3 C    1.239     6 C    1.071
     3   6 C    3.694 --     2 N    1.239     4 N    1.169    18 H    0.961
                             1 C    0.179
     4   7 N    3.556 --     5 C    1.264     3 C    1.169    25 H    0.925
     5   6 C    3.881 --     4 N    1.264     6 C    1.259    13 N    1.156
     6   6 C    3.891 --     5 C    1.259     7 C    1.250     2 N    1.071
     7   6 C    3.796 --     9 N    1.262     6 C    1.250     8 O    1.180
     8   8 O    2.214 --     7 C    1.180    17 H    0.847
     9   7 N    3.045 --    11 C    1.431     7 C    1.262
    10   6 C    3.878 --    19 H    0.973    20 H    0.970    21 H    0.969
                            12 O    0.928
    11   6 C    3.874 --     9 N    1.431    12 O    1.197    13 N    1.116
    12   8 O    2.342 --    11 C    1.197    10 C    0.928
    13   7 N    3.512 --     5 C    1.156    11 C    1.116    14 C    0.977
    14   6 C    3.932 --    13 N    0.977    22 H    0.970    24 H    0.970
                            23 H    0.969
    15   1 H    0.996 --     1 C    0.965
    16   1 H    0.992 --     1 C    0.971
    17   1 H    0.881 --     8 O    0.847
    18   1 H    0.989 --     3 C    0.961
    19   1 H    0.990 --    10 C    0.973
    20   1 H    0.987 --    10 C    0.970
    21   1 H    0.987 --    10 C    0.969
    22   1 H    0.988 --    14 C    0.970
    23   1 H    0.988 --    14 C    0.969
    24   1 H    0.986 --    14 C    0.970
    25   1 H    0.953 --     4 N    0.925
 ---------------------------------------------------------------------------

molecular dipole:
                 x           y           z       tot (Debye)
 q only:        0.668      -1.236      -0.084
   full:        1.077      -1.776      -0.092       5.284

           -------------------------------------------------
          | TOTAL ENERGY              -42.178334036123 Eh   |
          | GRADIENT NORM               0.007991042329 Eh/α |
          | HOMO-LUMO GAP               1.525834223718 eV   |
           -------------------------------------------------

 * finished run on 2024/06/05 at 19:58:03.856
