   * xtb version 6.6.1 (8d0f1dd) compiled by 'conda@1efc2f54142f' on 2023-08-01
          program call               : xtb struc.xyz --opt loose --input .xc1 --gfn2

   ID    Z sym.   atoms
    1    6 C      1, 3, 5-7, 10, 11, 14
    2    7 N      2, 4, 9, 13
    3    8 O      8, 12
    4    1 H      15-25
constraining bond 11 20 to    3.7133300 Å, actual value:    2.6644824 Å

          :  Hamiltonian                  GFN2-xTB          :
 * total energy  :   -44.2242806 Eh     change       -0.2401990E-09 Eh
 * total energy  :   -47.8475916 Eh     change       -0.3623311E+01 Eh
 * total energy  :   -53.3063272 Eh     change       -0.5458736E+01 Eh
 * total energy  :   -59.4379696 Eh     change       -0.6131642E+01 Eh
 * total energy  :   -56.6341511 Eh     change        0.2803819E+01 Eh
 * total energy  :   -59.5542918 Eh     change       -0.2920141E+01 Eh
 * total energy  :   -59.5765393 Eh     change       -0.2224743E-01 Eh
 * total energy  :   -59.6276895 Eh     change       -0.5115018E-01 Eh
 * total energy  :   -59.6504873 Eh     change       -0.2279783E-01 Eh
 * total energy  :   -59.6719668 Eh     change       -0.2147949E-01 Eh
 * total energy  :   -59.7573372 Eh     change       -0.6955152E-04 Eh
 * total energy  :   -59.7574075 Eh     change       -0.7032446E-04 Eh
 * total energy  :   -59.7574787 Eh     change       -0.7122896E-04 Eh
 * total energy  :   -59.7575403 Eh     change       -0.6156897E-04 Eh
 * total energy  :   -59.7575424 Eh     change       -0.2123902E-05 Eh
 * total energy  :   -59.7576072 Eh     change       -0.6474061E-04 Eh
 * total energy  :   -59.7576263 Eh     change       -0.1915734E-04 Eh
 * total energy  :   -59.7576520 Eh     change       -0.2572937E-04 Eh
 * total energy  :   -59.7576622 Eh     change       -0.1014635E-04 Eh
   *** GEOMETRY OPTIMIZATION CONVERGED AFTER 59 ITERATIONS ***

 final structure:
================
25
 xtb: 6.6.1 (8d0f1dd)
C            3.23349684596050        1.13657250513883       -0.05961557868635
N            2.22493486821871        0.11122533824486       -0.06849295499923
C            2.45715217266589       -1.19864800301319       -0.03864842748625
N            1.28324327564765       -1.86684441029308       -0.06802382207838
C            0.25869426229521       -0.95712747089192       -0.12581587827749
C            0.86085211179762        0.31612748758328       -0.11392088632902
C            0.17468847684343        1.57703180726917        0.07940457344883
O            0.70926761952194        2.66077761258042        0.24447608143742
N           -1.21238338071167        1.39082432676532        0.10280357185848
C           -2.06237464003063        2.23471669775321        0.55442152153967
C           -1.96653033495657       -0.11737063552597       -0.84629604283127
O           -3.12942482418678       -0.22002504034845       -0.46311780989041
N           -1.04136141352671       -1.22429340097567       -0.18434026820917
C           -1.63233344274700       -2.48353395468856        0.16579218336346
H            3.91408113485382        0.98748257858624        0.78033195148434
H            3.81020387602104        1.11022571193408       -0.98728323525740
H            2.74998587720921        2.10988472869034        0.03467227870575
H            3.42557886706969       -1.65513915692758        0.00777608421725
H           -1.76948298378509        3.17603663873793        1.00163394714333
H           -1.77917714546435        0.02650956934460       -1.19860804673887
H           -3.10770196230528        1.96269036420266        0.48923040789070
H           -1.22848870870691       -2.85692457533316        1.10692318235086
H           -1.49221737494012       -3.22996435045436       -0.62104247579424
H           -2.70235835858004       -2.30105990988989        0.28445496174733
H            1.18208669593657       -2.87093591688794       -0.04554370071179

          :  Hamiltonian                  GFN2-xTB          :
         :: total energy             -59.757662196882 Eh    ::
         :: gradient norm              0.003507225093 Eh/a0 ::
         :: HOMO-LUMO gap              2.078782264275 eV    ::
         :: SCC energy               -42.706370088705 Eh    ::
         :: -> dispersion             -0.022978085776 Eh    ::
         :: repulsion energy           2.265375719597 Eh    ::

    * Orbital Energies and Occupations

         #    Occupation            Energy/Eh            Energy/eV
      -------------------------------------------------------------
         1        2.0000           -0.9034313             -24.5836
       ...           ...                  ...                  ...
        25        1.9990           -0.6707554             -18.2522
        26        1.9986           -0.6634952             -18.0546
        27        1.9984           -0.6597929             -17.9539
        28        1.9950           -0.6326112             -17.2142
        29        1.9945           -0.6302199             -17.1492
        30        1.9939           -0.6277135             -17.0810
        31        1.9916           -0.6200643             -16.8728
        32        1.9891           -0.6139966             -16.7077
        33        1.9875           -0.6106293             -16.6161
        34        1.9491           -0.5768867             -15.6979
        35        1.9239           -0.5670042             -15.4290
        36        1.8733           -0.5542594             -15.0822
        37        1.7447           -0.5359407             -14.5837 (HOMO)
        38        0.4302           -0.4595469             -12.5049 (LUMO)
        39        0.0828           -0.4156699             -11.3110
        40        0.0438           -0.4000669             -10.8864
        41        0.0068           -0.3554836              -9.6732
        42        0.0008           -0.3053738              -8.3096
        43        0.0001           -0.2404177              -6.5421
        44        0.0000           -0.1884403              -5.1277
        45        0.0000           -0.1477612              -4.0208
        46        0.0000           -0.0979858              -2.6663
        47                         -0.0795914              -2.1658
        48                         -0.0384678              -1.0468
       ...                                ...                  ...
        67                         10.5970697             288.3609
      -------------------------------------------------------------
                  HL-Gap            0.0763938 Eh            2.0788 eV

     #   Z          covCN         q      C6AA      α(0)
     1   6 C        3.691    -0.094    22.491     6.786
     2   7 N        2.826     0.076    19.915     6.628
     3   6 C        3.019     0.050    26.863     8.502
     4   7 N        2.788    -0.066    22.509     7.046
     5   6 C        2.993     0.118    25.399     8.267
     6   6 C        3.088    -0.020    28.406     8.736
     7   6 C        2.768     0.269    22.452     7.760
     8   8 O        0.857    -0.350    20.698     6.100
     9   7 N        2.312    -0.130    24.053     7.281
    10   6 C        2.783     0.035    27.203     8.543
    11   6 C        3.157     0.200    23.490     7.924
    12   8 O        0.862    -0.342    20.554     6.079
    13   7 N        2.712    -0.098    23.158     7.147
    14   6 C        3.690    -0.065    21.940     6.703
    15   1 H        0.924     0.106     1.734     2.059
    16   1 H        0.924     0.107     1.718     2.050
    17   1 H        0.924     0.140     1.461     1.890
    18   1 H        0.926     0.121     1.606     1.982
    19   1 H        0.925     0.124     1.580     1.966
    20   1 H        0.937     0.165     1.293     1.778
    21   1 H        0.925     0.135     1.497     1.914
    22   1 H        0.925     0.082     1.955     2.187
    23   1 H        0.924     0.084     1.937     2.176
    24   1 H        0.924     0.125     1.571     1.960
    25   1 H        0.860     0.226     0.983     1.553

Wiberg/Mayer (AO) data.
largest (>0.10) Wiberg bond orders for each atom

     #   Z sym  total        # sym  WBO       # sym  WBO       # sym  WBO
 ---------------------------------------------------------------------------
     1   6 C    3.900 --     2 N    0.989    15 H    0.959    16 H    0.953
                            17 H    0.950
     2   7 N    3.638 --     3 C    1.364     6 C    1.154     1 C    0.989
     3   6 C    3.777 --     2 N    1.364     4 N    1.267    18 H    0.953
     4   7 N    3.556 --     3 C    1.267     5 C    1.166    25 H    0.920
     5   6 C    3.891 --    13 N    1.287     6 C    1.274     4 N    1.166
     6   6 C    3.809 --     5 C    1.274     2 N    1.154     7 C    1.090
     7   6 C    3.835 --     8 O    1.635     6 C    1.090     9 N    1.042
     8   8 O    1.874 --     7 C    1.635
     9   7 N    3.320 --    10 C    1.687     7 C    1.042    11 C    0.359
                            12 O    0.118
    10   6 C    3.625 --     9 N    1.687    21 H    0.939    19 H    0.933
    11   6 C    3.891 --    12 O    1.713    20 H    0.950    13 N    0.788
                             9 N    0.359
    12   8 O    2.007 --    11 C    1.713     9 N    0.118    13 N    0.108
    13   7 N    3.345 --     5 C    1.287    14 C    1.003    11 C    0.788
                            12 O    0.108
    14   6 C    3.912 --    13 N    1.003    22 H    0.961    24 H    0.952
                            23 H    0.951
    15   1 H    0.981 --     1 C    0.959
    16   1 H    0.978 --     1 C    0.953
    17   1 H    0.976 --     1 C    0.950
    18   1 H    0.984 --     3 C    0.953
    19   1 H    0.962 --    10 C    0.933
    20   1 H    0.961 --    11 C    0.950
    21   1 H    0.968 --    10 C    0.939
    22   1 H    0.978 --    14 C    0.961
    23   1 H    0.968 --    14 C    0.951
    24   1 H    0.975 --    14 C    0.952
    25   1 H    0.948 --     4 N    0.920
 ---------------------------------------------------------------------------

molecular dipole:
                 x           y           z       tot (Debye)
 q only:        2.035      -1.684      -0.061
   full:        2.292      -1.978      -0.044       7.696

           -------------------------------------------------
          | TOTAL ENERGY              -59.757662196882 Eh   |
          | GRADIENT NORM               0.003507225093 Eh/α |
          | HOMO-LUMO GAP               2.078782264275 eV   |
           -------------------------------------------------

 * finished run on 2024/06/05 at 19:59:01.807
