   * xtb version 6.6.1 (8d0f1dd) compiled by 'conda@1efc2f54142f' on 2023-08-01
          program call               : xtb xtbopt.xyz --opt crude --input .xc2 --gfn2

   ID    Z sym.   atoms
    1    6 C      1, 3, 5-7, 10, 11, 14
    2    7 N      2, 4, 9, 13
    3    8 O      8, 12
    4    1 H      15-25
########################################################################
[WARNING] Please study the warnings concerning your input carefully
-1- readin_getIntValue: could not parse ''
########################################################################

          :  Hamiltonian                  GFN2-xTB          :
 * total energy  :   -40.4408397 Eh     change       -0.7815970E-13 Eh
 * total energy  :   -42.1234227 Eh     change       -0.1682583E+01 Eh
 * total energy  :   -42.1603097 Eh     change       -0.3688698E-01 Eh
 * total energy  :   -42.1692034 Eh     change       -0.8893781E-02 Eh
 * total energy  :   -42.1716406 Eh     change       -0.2437103E-02 Eh
 * total energy  :   -42.1721997 Eh     change       -0.5591172E-03 Eh
 * total energy  :   -42.1734019 Eh     change       -0.1202218E-02 Eh
 * total energy  :   -42.1744135 Eh     change       -0.1011655E-02 Eh
 * total energy  :   -42.1753616 Eh     change       -0.9480709E-03 Eh
 * total energy  :   -42.1759645 Eh     change       -0.6029017E-03 Eh
 * total energy  :   -42.1762992 Eh     change       -0.3347178E-03 Eh
 * total energy  :   -42.1766018 Eh     change       -0.3025603E-03 Eh
 * total energy  :   -42.1771161 Eh     change       -0.5143120E-03 Eh
 * total energy  :   -42.1776324 Eh     change       -0.5163312E-03 Eh
 * total energy  :   -42.1781683 Eh     change       -0.5358994E-03 Eh
 * total energy  :   -42.1785024 Eh     change       -0.3340877E-03 Eh
   *** GEOMETRY OPTIMIZATION CONVERGED AFTER 16 ITERATIONS ***

 final structure:
================
25
 xtb: 6.6.1 (8d0f1dd)
C            3.21964429992982        1.14844271281362       -0.13223749385163
N            2.23828028932868        0.10157348721767       -0.05853247077510
C            2.47551490157813       -1.20711308076873        0.00830807638979
N            1.30244375430490       -1.88632434747150        0.03094941564571
C            0.28055466068385       -0.98233463704629       -0.03239069119632
C            0.87177535605421        0.29185232743978       -0.08396066940262
C            0.13284176179855        1.51141570916561        0.10582348544779
O            0.57856516134547        2.62275833579932        0.30506222723780
N           -1.27282510227552        1.25335358567587        0.12661698974008
C           -2.11463798695076        2.14518019424189        0.56715308993105
C           -1.85575443076538       -0.01387478639959       -0.58968643701545
O           -3.08358589933475       -0.14732575550212       -0.44472976239669
N           -1.03080821717405       -1.17946341144255       -0.05850307870714
C           -1.68611933581391       -2.44251501782521        0.15134367058569
H            4.03167530368629        0.95558959595031        0.56829976667295
H            3.63400125839947        1.21137068179892       -1.14141730011894
H            2.74142292943248        2.09830321730741        0.11003368152554
H            3.44688974770288       -1.65756579091746        0.04587827908365
H           -1.72547510588137        3.07503315471868        0.94467255513306
H           -1.45634227127939        0.14465173749691       -1.62236736961319
H           -3.16706591683675        1.91792232823792        0.52936218637131
H           -1.35837702782740       -2.88475501937572        1.09209210345589
H           -1.50297494261736       -3.13654262483704       -0.67449119466986
H           -2.75699242553578       -2.23074138863970        0.19878990660917
H            1.21778075214791       -2.89065266603686        0.08510265181508

          :  Hamiltonian                  GFN2-xTB          :
         :: total energy             -42.178502422726 Eh    ::
         :: gradient norm              0.009682843466 Eh/a0 ::
         :: HOMO-LUMO gap              1.863402603189 eV    ::
         :: SCC energy               -42.686667753982 Eh    ::
         :: -> dispersion             -0.022959024837 Eh    ::
         :: repulsion energy           0.508014263886 Eh    ::

    * Orbital Energies and Occupations

         #    Occupation            Energy/Eh            Energy/eV
      -------------------------------------------------------------
         1        2.0000           -0.9079198             -24.7058
       ...           ...                  ...                  ...
        25        1.9991           -0.6737892             -18.3347
        26        1.9986           -0.6640411             -18.0695
        27        1.9980           -0.6546524             -17.8140
        28        1.9958           -0.6376131             -17.3503
        29        1.9953           -0.6350637             -17.2810
        30        1.9921           -0.6225547             -16.9406
        31        1.9909           -0.6191414             -16.8477
        32        1.9897           -0.6161265             -16.7657
        33        1.9882           -0.6129031             -16.6779
        34        1.9494           -0.5778844             -15.7250
        35        1.8863           -0.5578540             -15.1800
        36        1.8432           -0.5496782             -14.9575
        37        1.7154           -0.5338090             -14.5257 (HOMO)
        38        0.5044           -0.4653302             -12.6623 (LUMO)
        39        0.1141           -0.4245120             -11.5516
        40        0.0412           -0.3993994             -10.8682
        41        0.0012           -0.3152753              -8.5791
        42        0.0000           -0.2315339              -6.3004
        43        0.0000           -0.2035385              -5.5386
        44        0.0000           -0.1804599              -4.9106
        45        0.0000           -0.1516801              -4.1274
        46        0.0000           -0.0966414              -2.6297
        47                         -0.0842142              -2.2916
        48                         -0.0440435              -1.1985
       ...                                ...                  ...
        67                          0.5131298              13.9630
      -------------------------------------------------------------
                  HL-Gap            0.0684788 Eh            1.8634 eV

     #   Z          covCN         q      C6AA      α(0)
     1   6 C        3.691    -0.093    22.473     6.784
     2   7 N        2.822     0.077    19.908     6.627
     3   6 C        3.031     0.048    26.900     8.507
     4   7 N        2.784    -0.064    22.470     7.040
     5   6 C        3.011     0.116    25.434     8.273
     6   6 C        3.096    -0.027    28.558     8.758
     7   6 C        2.770     0.256    22.696     7.802
     8   8 O        0.857    -0.344    20.594     6.084
     9   7 N        2.724    -0.042    22.056     6.975
    10   6 C        2.790     0.013    27.710     8.623
    11   6 C        3.593     0.262    17.113     5.991
    12   8 O        0.856    -0.412    21.917     6.277
    13   7 N        2.727    -0.077    22.734     7.081
    14   6 C        3.690    -0.066    21.962     6.707
    15   1 H        0.925     0.106     1.728     2.056
    16   1 H        0.924     0.110     1.696     2.036
    17   1 H        0.924     0.136     1.489     1.908
    18   1 H        0.926     0.123     1.590     1.972
    19   1 H        0.926     0.140     1.463     1.892
    20   1 H        0.920     0.055     2.262     2.352
    21   1 H        0.926     0.150     1.391     1.844
    22   1 H        0.925     0.087     1.910     2.161
    23   1 H        0.924     0.086     1.914     2.163
    24   1 H        0.924     0.133     1.514     1.924
    25   1 H        0.860     0.228     0.975     1.546

Wiberg/Mayer (AO) data.
largest (>0.10) Wiberg bond orders for each atom

     #   Z sym  total        # sym  WBO       # sym  WBO       # sym  WBO
 ---------------------------------------------------------------------------
     1   6 C    3.905 --     2 N    0.990    15 H    0.963    17 H    0.955
                            16 H    0.950
     2   7 N    3.631 --     3 C    1.363     6 C    1.148     1 C    0.990
     3   6 C    3.766 --     2 N    1.363     4 N    1.255    18 H    0.953
     4   7 N    3.554 --     3 C    1.255     5 C    1.177    25 H    0.920
     5   6 C    3.899 --    13 N    1.292     6 C    1.266     4 N    1.177
     6   6 C    3.822 --     5 C    1.266     2 N    1.148     7 C    1.111
     7   6 C    3.839 --     8 O    1.655     6 C    1.111     9 N    0.994
     8   8 O    1.902 --     7 C    1.655
     9   7 N    3.511 --    10 C    1.547     7 C    0.994    11 C    0.767
    10   6 C    3.522 --     9 N    1.547    19 H    0.947    21 H    0.945
    11   6 C    3.933 --    12 O    1.396    20 H    0.869    13 N    0.827
                             9 N    0.767
    12   8 O    1.615 --    11 C    1.396
    13   7 N    3.366 --     5 C    1.292    14 C    0.995    11 C    0.827
    14   6 C    3.903 --    13 N    0.995    22 H    0.960    23 H    0.953
                            24 H    0.952
    15   1 H    0.982 --     1 C    0.963
    16   1 H    0.977 --     1 C    0.950
    17   1 H    0.977 --     1 C    0.955
    18   1 H    0.983 --     3 C    0.953
    19   1 H    0.973 --    10 C    0.947
    20   1 H    0.916 --    11 C    0.869
    21   1 H    0.972 --    10 C    0.945
    22   1 H    0.976 --    14 C    0.960
    23   1 H    0.970 --    14 C    0.953
    24   1 H    0.975 --    14 C    0.952
    25   1 H    0.947 --     4 N    0.920
 ---------------------------------------------------------------------------

molecular dipole:
                 x           y           z       tot (Debye)
 q only:        2.352      -1.557       0.212
   full:        2.645      -1.932       0.118       8.329

           -------------------------------------------------
          | TOTAL ENERGY              -42.178502422726 Eh   |
          | GRADIENT NORM               0.009682843466 Eh/α |
          | HOMO-LUMO GAP               1.863402603189 eV   |
           -------------------------------------------------

 * finished run on 2024/06/05 at 19:59:02.371
