   * xtb version 6.6.1 (8d0f1dd) compiled by 'conda@1efc2f54142f' on 2023-08-01
          program call               : xtb struc.xyz --opt loose --input .xc1 --gfn2

   ID    Z sym.   atoms
    1    6 C      1, 3, 5-7, 10, 11, 14
    2    7 N      2, 4, 9, 13
    3    8 O      8, 12
    4    1 H      15-25
constraining bond 8 9 to    4.6800000 Å, actual value:    2.2895399 Å

          :  Hamiltonian                  GFN2-xTB          :
 * total energy  :   -32.0447932 Eh     change       -0.6650680E-10 Eh
 * total energy  :   -35.8705623 Eh     change       -0.3825769E+01 Eh
 * total energy  :   -38.7749122 Eh     change       -0.2904350E+01 Eh
 * total energy  :   -40.6130562 Eh     change       -0.1838144E+01 Eh
 * total energy  :   -41.5021357 Eh     change       -0.8890795E+00 Eh
 * total energy  :   -41.6736164 Eh     change       -0.1714807E+00 Eh
 * total energy  :   -41.6859457 Eh     change       -0.1232927E-01 Eh
 * total energy  :   -41.7095693 Eh     change       -0.2362365E-01 Eh
 * total energy  :   -41.7272653 Eh     change       -0.1769595E-01 Eh
 * total energy  :   -41.7423482 Eh     change       -0.1508293E-01 Eh
 * total energy  :   -42.2104344 Eh     change       -0.8208679E-04 Eh
 * total energy  :   -42.2105607 Eh     change       -0.1263179E-03 Eh
 * total energy  :   -42.2106240 Eh     change       -0.6328439E-04 Eh
 * total energy  :   -42.2107522 Eh     change       -0.1282449E-03 Eh
 * total energy  :   -42.2108176 Eh     change       -0.6535675E-04 Eh
 * total energy  :   -42.2109007 Eh     change       -0.8311693E-04 Eh
 * total energy  :   -42.2109515 Eh     change       -0.5077300E-04 Eh
 * total energy  :   -42.2110067 Eh     change       -0.5525759E-04 Eh
 * total energy  :   -42.2110257 Eh     change       -0.1894752E-04 Eh
   *** GEOMETRY OPTIMIZATION CONVERGED AFTER 89 ITERATIONS ***

 final structure:
================
25
 xtb: 6.6.1 (8d0f1dd)
C            3.70631022124966        0.81101754667946       -0.37375082178057
N            2.61002325606489       -0.09529658887863       -0.18276147774029
C            2.66312544182399       -1.41290898776121       -0.05036947353706
N            1.40875087964162       -1.91054796179264        0.09484284144379
C            0.53080316344300       -0.86815798475254        0.05043151613889
C            1.28736023852526        0.28376813293218       -0.12442602311630
C            0.68103499525115        1.60000352693489       -0.18369681490472
O            1.27266311727803        2.63935135503341       -0.30073484676639
N           -2.74581616592074        0.30432899941552        0.14556724118669
C           -3.60493037881604        1.44259770771525        0.10767688177217
C           -1.48722524056867        0.34827519647197        0.06854756046962
O           -0.71096388068545        1.49175219475553       -0.07679266600646
N           -0.80774551705447       -0.88366482010996        0.14002269311130
C           -1.54485572394569       -2.11320623115316        0.34767372224963
H            3.70632435052015        1.56361369332349        0.41553855997877
H            4.64618355046417        0.26437310995169       -0.36565765315498
H            3.59140927325718        1.33538633900381       -1.32365872897396
H            3.55535902645336       -2.00755152327383       -0.05657146269939
H           -3.07969212076765        2.38997634846909        0.24711382206754
H           -4.12150215917169        1.45282532736852       -0.85364333439686
H           -4.35396603053688        1.31024496377105        0.88823046901865
H           -1.40124212982384       -2.47843330085702        1.36542339763579
H           -1.22492167601791       -2.86958030466979       -0.36826641424197
H           -2.59840915117261       -1.89397219974832        0.19649367365182
H            1.18235417460972       -2.88595599722879        0.22393895649375

          :  Hamiltonian                  GFN2-xTB          :
         :: total energy             -42.211025672605 Eh    ::
         :: gradient norm              0.002272759535 Eh/a0 ::
         :: HOMO-LUMO gap              2.513159530673 eV    ::
         :: SCC energy               -42.728499514302 Eh    ::
         :: -> dispersion             -0.021797574139 Eh    ::
         :: repulsion energy           0.517221993090 Eh    ::

    * Orbital Energies and Occupations

         #    Occupation            Energy/Eh            Energy/eV
      -------------------------------------------------------------
         1        2.0000           -0.9121750             -24.8215
       ...           ...                  ...                  ...
        25        2.0000           -0.6612384             -17.9932
        26        2.0000           -0.6547323             -17.8162
        27        2.0000           -0.6454018             -17.5623
        28        1.9999           -0.6381275             -17.3643
        29        1.9998           -0.6268981             -17.0588
        30        1.9998           -0.6239945             -16.9798
        31        1.9998           -0.6195595             -16.8591
        32        1.9997           -0.6151476             -16.7390
        33        1.9993           -0.6036169             -16.4253
        34        1.9959           -0.5750306             -15.6474
        35        1.9949           -0.5713631             -15.5476
        36        1.9416           -0.5323510             -14.4860
        37        1.9173           -0.5266408             -14.3306 (HOMO)
        38        0.1272           -0.4342838             -11.8175 (LUMO)
        39        0.0227           -0.4061296             -11.0513
        40        0.0022           -0.3689277             -10.0390
        41        0.0000           -0.2949925              -8.0272
        42                         -0.2019217              -5.4946
        43                         -0.2005636              -5.4576
        44                         -0.1607740              -4.3749
        45                         -0.1480455              -4.0285
        46                         -0.0896214              -2.4387
        47                         -0.0597929              -1.6270
        48                         -0.0427637              -1.1637
       ...                                ...                  ...
        67                          0.5339499              14.5295
      -------------------------------------------------------------
                  HL-Gap            0.0923569 Eh            2.5132 eV

     #   Z          covCN         q      C6AA      α(0)
     1   6 C        3.692    -0.089    22.391     6.771
     2   7 N        2.829     0.082    19.819     6.612
     3   6 C        3.049     0.050    26.838     8.496
     4   7 N        2.796    -0.065    22.502     7.045
     5   6 C        3.037     0.123    25.268     8.245
     6   6 C        3.111    -0.032    28.640     8.767
     7   6 C        2.694     0.351    21.037     7.507
     8   8 O        0.857    -0.320    20.141     6.017
     9   7 N        1.835    -0.213    26.480     7.626
    10   6 C        3.702    -0.039    21.434     6.620
    11   6 C        2.729     0.273    22.385     7.746
    12   8 O        1.705    -0.257    18.263     5.770
    13   7 N        2.749    -0.040    22.012     6.968
    14   6 C        3.697    -0.084    22.277     6.751
    15   1 H        0.924     0.124     1.580     1.966
    16   1 H        0.925     0.103     1.761     2.075
    17   1 H        0.924     0.122     1.598     1.977
    18   1 H        0.926     0.124     1.584     1.968
    19   1 H        0.924     0.071     2.078     2.254
    20   1 H        0.924     0.093     1.846     2.125
    21   1 H        0.925     0.095     1.836     2.119
    22   1 H        0.924     0.089     1.884     2.147
    23   1 H        0.925     0.084     1.940     2.178
    24   1 H        0.925     0.128     1.552     1.948
    25   1 H        0.860     0.228     0.972     1.544

Wiberg/Mayer (AO) data.
largest (>0.10) Wiberg bond orders for each atom

     #   Z sym  total        # sym  WBO       # sym  WBO       # sym  WBO
 ---------------------------------------------------------------------------
     1   6 C    3.921 --     2 N    0.991    16 H    0.975    15 H    0.954
                            17 H    0.953
     2   7 N    3.672 --     3 C    1.396     6 C    1.151     1 C    0.991
     3   6 C    3.837 --     2 N    1.396     4 N    1.254    18 H    0.953
     4   7 N    3.577 --     3 C    1.254     5 C    1.190    25 H    0.919
     5   6 C    3.940 --     6 C    1.337    13 N    1.227     4 N    1.190
     6   6 C    3.895 --     5 C    1.337     2 N    1.151     7 C    1.071
     7   6 C    3.901 --     8 O    1.765     6 C    1.071    12 O    0.990
     8   8 O    2.084 --     7 C    1.765    12 O    0.138
     9   7 N    3.045 --    11 C    1.731    10 C    1.032    12 O    0.111
    10   6 C    3.933 --     9 N    1.032    19 H    0.961    21 H    0.953
                            20 H    0.944
    11   6 C    3.912 --     9 N    1.731    13 N    1.045    12 O    1.004
    12   8 O    2.335 --    11 C    1.004     7 C    0.990     8 O    0.138
                             9 N    0.111
    13   7 N    3.545 --     5 C    1.227    11 C    1.045    14 C    0.975
    14   6 C    3.923 --    13 N    0.975    23 H    0.972    22 H    0.968
                            24 H    0.962
    15   1 H    0.982 --     1 C    0.954
    16   1 H    0.989 --     1 C    0.975
    17   1 H    0.982 --     1 C    0.953
    18   1 H    0.984 --     3 C    0.953
    19   1 H    0.974 --    10 C    0.961
    20   1 H    0.978 --    10 C    0.944
    21   1 H    0.977 --    10 C    0.953
    22   1 H    0.988 --    14 C    0.968
    23   1 H    0.990 --    14 C    0.972
    24   1 H    0.983 --    14 C    0.962
    25   1 H    0.947 --     4 N    0.919
 ---------------------------------------------------------------------------

molecular dipole:
                 x           y           z       tot (Debye)
 q only:        1.808      -2.684       0.103
   full:        2.057      -2.934       0.118       9.113

           -------------------------------------------------
          | TOTAL ENERGY              -42.211025672605 Eh   |
          | GRADIENT NORM               0.002272759535 Eh/α |
          | HOMO-LUMO GAP               2.513159530673 eV   |
           -------------------------------------------------

 * finished run on 2024/06/05 at 20:00:17.914
