   * xtb version 6.6.1 (8d0f1dd) compiled by 'conda@1efc2f54142f' on 2023-08-01
          program call               : xtb xtbopt.xyz --opt crude --input .xc2 --gfn2

   ID    Z sym.   atoms
    1    6 C      1, 3, 5-7, 10, 11, 14
    2    7 N      2, 4, 9, 13
    3    8 O      8, 12
    4    1 H      15-25
########################################################################
[WARNING] Please study the warnings concerning your input carefully
-1- readin_getIntValue: could not parse ''
########################################################################

          :  Hamiltonian                  GFN2-xTB          :
 * total energy  :   -42.2112412 Eh     change       -0.7105427E-13 Eh
 * total energy  :   -42.2132144 Eh     change       -0.1973241E-02 Eh
 * total energy  :   -42.2137589 Eh     change       -0.5444999E-03 Eh
 * total energy  :   -42.2138109 Eh     change       -0.5201655E-04 Eh
   *** GEOMETRY OPTIMIZATION CONVERGED AFTER 4 ITERATIONS ***

 final structure:
================
25
 xtb: 6.6.1 (8d0f1dd)
C            3.69568229586909        0.82166711200385       -0.37009000479296
N            2.60572626783001       -0.09306344012204       -0.18371231919584
C            2.67170478644199       -1.41105492917172       -0.05033249765211
N            1.42249219999884       -1.92218473973144        0.09760993750027
C            0.53561622860840       -0.88764192975738        0.05394500445941
C            1.28033834282531        0.27197872909956       -0.12270648198574
C            0.63867115238027        1.57192359808398       -0.18494791690963
O            1.15976849573749        2.63884564754709       -0.30860016563539
N           -2.71993403287133        0.32947199400264        0.15774563512278
C           -3.56763646636839        1.47329048221069        0.10443841529034
C           -1.47146441553647        0.33042976336568        0.07724059194180
O           -0.72688464411180        1.46501520983424       -0.07593240105580
N           -0.80268130099590       -0.90622487138919        0.14674858621275
C           -1.55084992503276       -2.12983695513519        0.34476099464924
H            3.68761075711170        1.57378709526942        0.41996286809059
H            4.63900267218574        0.28125229806866       -0.35820770885751
H            3.58175437613042        1.34608315173843       -1.32001356377973
H            3.56910957668663       -1.99625558762605       -0.05678092009616
H           -3.03523736116144        2.41966009904525        0.21625649587522
H           -4.09283057741135        1.46203118992690       -0.85198040030537
H           -4.31114401143047        1.36221896221868        0.89412566761070
H           -1.39963287349629       -2.51243739607279        1.35526227567055
H           -1.24940726993928       -2.87730698200431       -0.38861826840177
H           -2.60390933559617       -1.89383304780938        0.20988331324929
H            1.20456657624628       -2.89957691199559        0.22511448089451

          :  Hamiltonian                  GFN2-xTB          :
         :: total energy             -42.213810918736 Eh    ::
         :: gradient norm              0.002105807057 Eh/a0 ::
         :: HOMO-LUMO gap              2.457394470599 eV    ::
         :: SCC energy               -42.740969096476 Eh    ::
         :: -> dispersion             -0.021847518916 Eh    ::
         :: repulsion energy           0.527120587293 Eh    ::

    * Orbital Energies and Occupations

         #    Occupation            Energy/Eh            Energy/eV
      -------------------------------------------------------------
         1        2.0000           -0.9120033             -24.8169
       ...           ...                  ...                  ...
        25        2.0000           -0.6626991             -18.0330
        26        2.0000           -0.6536233             -17.7860
        27        2.0000           -0.6444707             -17.5369
        28        1.9999           -0.6385302             -17.3753
        29        1.9999           -0.6269181             -17.0593
        30        1.9998           -0.6241044             -16.9827
        31        1.9998           -0.6194044             -16.8549
        32        1.9997           -0.6151665             -16.7395
        33        1.9994           -0.6039817             -16.4352
        34        1.9962           -0.5744672             -15.6320
        35        1.9954           -0.5716248             -15.5547
        36        1.9462           -0.5321115             -14.4795
        37        1.9087           -0.5234523             -14.2439 (HOMO)
        38        0.1304           -0.4331447             -11.7865 (LUMO)
        39        0.0227           -0.4045976             -11.0097
        40        0.0019           -0.3650305              -9.9330
        41        0.0000           -0.2900770              -7.8934
        42                         -0.2008536              -5.4655
        43                         -0.1924234              -5.2361
        44                         -0.1486457              -4.0449
        45                         -0.1319583              -3.5908
        46                         -0.0877591              -2.3880
        47                         -0.0562407              -1.5304
        48                         -0.0419978              -1.1428
       ...                                ...                  ...
        67                          0.5634033              15.3310
      -------------------------------------------------------------
                  HL-Gap            0.0903076 Eh            2.4574 eV

     #   Z          covCN         q      C6AA      α(0)
     1   6 C        3.692    -0.089    22.383     6.770
     2   7 N        2.828     0.081    19.827     6.613
     3   6 C        3.052     0.049    26.855     8.499
     4   7 N        2.794    -0.066    22.507     7.046
     5   6 C        3.042     0.123    25.271     8.245
     6   6 C        3.111    -0.035    28.715     8.779
     7   6 C        2.700     0.352    21.027     7.505
     8   8 O        0.857    -0.324    20.214     6.028
     9   7 N        1.835    -0.217    26.567     7.638
    10   6 C        3.701    -0.039    21.440     6.621
    11   6 C        2.736     0.275    22.343     7.739
    12   8 O        1.709    -0.241    17.996     5.728
    13   7 N        2.748    -0.044    22.089     6.980
    14   6 C        3.696    -0.083    22.256     6.749
    15   1 H        0.924     0.123     1.591     1.972
    16   1 H        0.925     0.103     1.760     2.075
    17   1 H        0.924     0.121     1.605     1.981
    18   1 H        0.926     0.123     1.590     1.972
    19   1 H        0.924     0.071     2.072     2.251
    20   1 H        0.924     0.094     1.844     2.124
    21   1 H        0.924     0.095     1.833     2.117
    22   1 H        0.924     0.089     1.889     2.149
    23   1 H        0.925     0.084     1.938     2.177
    24   1 H        0.925     0.127     1.562     1.954
    25   1 H        0.860     0.228     0.973     1.545

Wiberg/Mayer (AO) data.
largest (>0.10) Wiberg bond orders for each atom

     #   Z sym  total        # sym  WBO       # sym  WBO       # sym  WBO
 ---------------------------------------------------------------------------
     1   6 C    3.922 --     2 N    0.991    16 H    0.975    15 H    0.954
                            17 H    0.954
     2   7 N    3.668 --     3 C    1.392     6 C    1.152     1 C    0.991
     3   6 C    3.831 --     2 N    1.392     4 N    1.253    18 H    0.953
     4   7 N    3.575 --     3 C    1.253     5 C    1.191    25 H    0.919
     5   6 C    3.940 --     6 C    1.339    13 N    1.225     4 N    1.191
     6   6 C    3.894 --     5 C    1.339     2 N    1.152     7 C    1.063
     7   6 C    3.903 --     8 O    1.760     6 C    1.063    12 O    1.006
     8   8 O    2.077 --     7 C    1.760    12 O    0.136
     9   7 N    3.040 --    11 C    1.729    10 C    1.031    12 O    0.108
    10   6 C    3.932 --     9 N    1.031    19 H    0.960    21 H    0.953
                            20 H    0.945
    11   6 C    3.915 --     9 N    1.729    13 N    1.040    12 O    1.016
    12   8 O    2.358 --    11 C    1.016     7 C    1.006     8 O    0.136
                             9 N    0.108
    13   7 N    3.541 --     5 C    1.225    11 C    1.040    14 C    0.975
    14   6 C    3.923 --    13 N    0.975    23 H    0.972    22 H    0.968
                            24 H    0.963
    15   1 H    0.982 --     1 C    0.954
    16   1 H    0.989 --     1 C    0.975
    17   1 H    0.982 --     1 C    0.954
    18   1 H    0.984 --     3 C    0.953
    19   1 H    0.973 --    10 C    0.960
    20   1 H    0.979 --    10 C    0.945
    21   1 H    0.977 --    10 C    0.953
    22   1 H    0.988 --    14 C    0.968
    23   1 H    0.990 --    14 C    0.972
    24   1 H    0.983 --    14 C    0.963
    25   1 H    0.947 --     4 N    0.919
 ---------------------------------------------------------------------------

molecular dipole:
                 x           y           z       tot (Debye)
 q only:        1.826      -2.660       0.104
   full:        2.104      -2.949       0.117       9.213

           -------------------------------------------------
          | TOTAL ENERGY              -42.213810918736 Eh   |
          | GRADIENT NORM               0.002105807057 Eh/α |
          | HOMO-LUMO GAP               2.457394470599 eV   |
           -------------------------------------------------

 * finished run on 2024/06/05 at 20:00:18.143
