   * xtb version 6.6.1 (8d0f1dd) compiled by 'conda@1efc2f54142f' on 2023-08-01
          program call               : xtb xtbopt.xyz --opt crude --input .xc2 --gfn2

   ID    Z sym.   atoms
    1    6 C      1, 3, 5-7, 10, 11, 14
    2    7 N      2, 4, 9, 13
    3    8 O      8, 12
    4    1 H      15-25
########################################################################
[WARNING] Please study the warnings concerning your input carefully
-1- readin_getIntValue: could not parse ''
########################################################################

          :  Hamiltonian                  GFN2-xTB          :
 * total energy  :   -42.1242392 Eh     change       -0.2415845E-12 Eh
 * total energy  :   -42.1293804 Eh     change       -0.5141254E-02 Eh
 * total energy  :   -42.1323332 Eh     change       -0.2952790E-02 Eh
 * total energy  :   -42.1335406 Eh     change       -0.1207426E-02 Eh
 * total energy  :   -42.1349089 Eh     change       -0.1368261E-02 Eh
 * total energy  :   -42.1358135 Eh     change       -0.9045532E-03 Eh
 * total energy  :   -42.1370384 Eh     change       -0.1224964E-02 Eh
 * total energy  :   -42.1378306 Eh     change       -0.7921917E-03 Eh
 * total energy  :   -42.1386339 Eh     change       -0.8033027E-03 Eh
 * total energy  :   -42.1391560 Eh     change       -0.5221185E-03 Eh
 * total energy  :   -42.1537104 Eh     change       -0.1102065E-02 Eh
 * total energy  :   -42.1548228 Eh     change       -0.1112464E-02 Eh
 * total energy  :   -42.1558834 Eh     change       -0.1060560E-02 Eh
 * total energy  :   -42.1568575 Eh     change       -0.9741410E-03 Eh
 * total energy  :   -42.1576235 Eh     change       -0.7659260E-03 Eh
 * total energy  :   -42.1582894 Eh     change       -0.6659459E-03 Eh
 * total energy  :   -42.1586930 Eh     change       -0.4035674E-03 Eh
 * total energy  :   -42.1590397 Eh     change       -0.3467505E-03 Eh
 * total energy  :   -42.1592406 Eh     change       -0.2008865E-03 Eh
   *** GEOMETRY OPTIMIZATION CONVERGED AFTER 35 ITERATIONS ***

 final structure:
================
25
 xtb: 6.6.1 (8d0f1dd)
C            2.74914063436766        1.23513297007188       -0.12173204742641
N            2.13133103300968       -0.06300017743610       -0.12624590735717
C            2.74791200032744       -1.22088902358479       -0.29803691440596
N            1.84962797601714       -2.21094148242349       -0.23660907727886
C            0.60804712959596       -1.67626111294586        0.00006763389957
C            0.78367797363567       -0.29346118766517        0.03990193798662
C           -0.12262226233145        0.81104684394209        0.45768824793662
O            0.23322652935177        1.58176085646862        1.31959324225195
N           -1.35904421262739        0.90902781737879       -0.13991022205367
C           -2.24637412213602        1.93922704095332        0.38556012429830
C           -1.76530251192942        0.19184344525185       -1.25050578625907
O           -2.85113110991878        0.28212741976189       -1.73872361235565
N           -0.49853935193066       -2.44463684694300       -0.02640515307414
C           -1.46890068825320       -2.47455535758694        0.77998031308471
H            2.58948673175951        1.71359737780639        0.84720426468929
H            3.81518596456218        1.13465810182895       -0.31339188023313
H            2.30067403959572        1.86949803446613       -0.88826960717710
H            3.80059451636555       -1.35032597508806       -0.45991659747285
H           -1.75191762027580        2.90917132010860        0.32636592919431
H           -3.15480143699137        1.94297109747392       -0.21234779746688
H           -2.48221353874520        1.73486616982355        1.42847917927124
H           -1.50170036471032       -1.92631517567036        1.71527971451020
H           -2.30586568705986       -3.10435629468080        0.52091500899864
H           -0.98339595480292       -0.47211554363696       -1.64892090505915
H            2.04333584722414       -3.19983177607573       -0.32884847060242

          :  Hamiltonian                  GFN2-xTB          :
         :: total energy             -42.159240603711 Eh    ::
         :: gradient norm              0.007226064443 Eh/a0 ::
         :: HOMO-LUMO gap              2.826589843264 eV    ::
         :: SCC energy               -42.702677018957 Eh    ::
         :: -> dispersion             -0.022826724874 Eh    ::
         :: repulsion energy           0.543189865575 Eh    ::

    * Orbital Energies and Occupations

         #    Occupation            Energy/Eh            Energy/eV
      -------------------------------------------------------------
         1        2.0000           -0.9141035             -24.8740
       ...           ...                  ...                  ...
        25        2.0000           -0.6699666             -18.2307
        26        2.0000           -0.6642497             -18.0752
        27        1.9999           -0.6589478             -17.9309
        28        1.9999           -0.6487269             -17.6528
        29        1.9998           -0.6448609             -17.5476
        30        1.9996           -0.6318555             -17.1937
        31        1.9992           -0.6198299             -16.8664
        32        1.9984           -0.6078497             -16.5404
        33        1.9974           -0.6001877             -16.3319
        34        1.9874           -0.5752162             -15.6524
        35        1.9763           -0.5651949             -15.3797
        36        1.9603           -0.5568649             -15.1531
        37        1.9430           -0.5510148             -14.9939 (HOMO)
        38        0.0921           -0.4471396             -12.1673 (LUMO)
        39        0.0385           -0.4329140             -11.7802
        40        0.0076           -0.4068646             -11.0713
        41        0.0007           -0.3689292             -10.0391
        42        0.0001           -0.3324275              -9.0458
        43                         -0.1866973              -5.0803
        44                         -0.1758654              -4.7855
        45                         -0.1314602              -3.5772
        46                         -0.0748549              -2.0369
        47                         -0.0522863              -1.4228
        48                         -0.0424284              -1.1545
       ...                                ...                  ...
        67                          0.5152785              14.0214
      -------------------------------------------------------------
                  HL-Gap            0.1038753 Eh            2.8266 eV

     #   Z          covCN         q      C6AA      α(0)
     1   6 C        3.693    -0.089    22.394     6.771
     2   7 N        2.850     0.085    19.769     6.604
     3   6 C        3.030     0.059    26.649     8.468
     4   7 N        2.812    -0.046    22.127     6.986
     5   6 C        3.022     0.126    25.223     8.238
     6   6 C        3.088    -0.025    28.512     8.753
     7   6 C        2.768     0.270    22.446     7.759
     8   8 O        0.860    -0.351    20.724     6.104
     9   7 N        2.732    -0.069    22.575     7.057
    10   6 C        3.706    -0.062    21.847     6.682
    11   6 C        2.706     0.245    22.884     7.830
    12   8 O        0.857    -0.291    19.621     5.939
    13   7 N        1.825    -0.137    24.749     7.372
    14   6 C        2.790     0.040    27.090     8.526
    15   1 H        0.924     0.132     1.516     1.926
    16   1 H        0.925     0.103     1.760     2.074
    17   1 H        0.924     0.107     1.723     2.053
    18   1 H        0.926     0.127     1.556     1.951
    19   1 H        0.924     0.098     1.802     2.099
    20   1 H        0.925     0.111     1.686     2.031
    21   1 H        0.925     0.092     1.857     2.131
    22   1 H        0.925     0.078     2.001     2.212
    23   1 H        0.926     0.124     1.582     1.967
    24   1 H        0.923     0.035     2.516     2.480
    25   1 H        0.860     0.238     0.933     1.513

Wiberg/Mayer (AO) data.
largest (>0.10) Wiberg bond orders for each atom

     #   Z sym  total        # sym  WBO       # sym  WBO       # sym  WBO
 ---------------------------------------------------------------------------
     1   6 C    3.921 --     2 N    0.988    16 H    0.974    17 H    0.960
                            15 H    0.950
     2   7 N    3.710 --     3 C    1.394     6 C    1.176     1 C    0.988
     3   6 C    3.904 --     2 N    1.394     4 N    1.317    18 H    0.950
     4   7 N    3.612 --     3 C    1.317     5 C    1.172    25 H    0.916
     5   6 C    3.934 --     6 C    1.372    13 N    1.206     4 N    1.172
     6   6 C    3.890 --     5 C    1.372     2 N    1.176     7 C    0.990
     7   6 C    3.945 --     8 O    1.713     9 N    1.149     6 C    0.990
     8   8 O    2.051 --     7 C    1.713     9 N    0.144
     9   7 N    3.571 --     7 C    1.149    11 C    1.132    10 C    0.967
                             8 O    0.144    12 O    0.139
    10   6 C    3.915 --    20 H    0.969     9 N    0.967    21 H    0.967
                            19 H    0.963
    11   6 C    3.936 --    12 O    1.833     9 N    1.132    24 H    0.914
    12   8 O    2.096 --    11 C    1.833     9 N    0.139
    13   7 N    3.210 --    14 C    1.832     5 C    1.206
    14   6 C    3.839 --    13 N    1.832    23 H    0.954    22 H    0.948
    15   1 H    0.981 --     1 C    0.950
    16   1 H    0.989 --     1 C    0.974
    17   1 H    0.987 --     1 C    0.960
    18   1 H    0.982 --     3 C    0.950
    19   1 H    0.984 --    10 C    0.963
    20   1 H    0.986 --    10 C    0.969
    21   1 H    0.986 --    10 C    0.967
    22   1 H    0.984 --    14 C    0.948
    23   1 H    0.980 --    14 C    0.954
    24   1 H    0.988 --    11 C    0.914
    25   1 H    0.942 --     4 N    0.916
 ---------------------------------------------------------------------------

molecular dipole:
                 x           y           z       tot (Debye)
 q only:        2.561      -1.673       0.003
   full:        2.879      -1.944       0.099       8.832

           -------------------------------------------------
          | TOTAL ENERGY              -42.159240603711 Eh   |
          | GRADIENT NORM               0.007226064443 Eh/α |
          | HOMO-LUMO GAP               2.826589843264 eV   |
           -------------------------------------------------

 * finished run on 2024/06/05 at 20:00:21.701
