   * xtb version 6.6.1 (8d0f1dd) compiled by 'conda@1efc2f54142f' on 2023-08-01
          program call               : xtb struc.xyz --opt loose --input .xc1 --gfn2

   ID    Z sym.   atoms
    1    6 C      1, 3, 5-7, 10, 11, 14
    2    7 N      2, 4, 9, 13
    3    8 O      8, 12
    4    1 H      15-25
constraining bond 6 9 to    4.9200000 Å, actual value:    2.3455329 Å

          :  Hamiltonian                  GFN2-xTB          :
 * total energy  :   -30.4257569 Eh     change       -0.2401990E-09 Eh
 * total energy  :   -34.6256203 Eh     change       -0.4199863E+01 Eh
 * total energy  :   -37.5220719 Eh     change       -0.2896452E+01 Eh
 * total energy  :   -39.3485936 Eh     change       -0.1826522E+01 Eh
 * total energy  :   -40.5977294 Eh     change       -0.1249136E+01 Eh
 * total energy  :   -41.1653677 Eh     change       -0.5676383E+00 Eh
 * total energy  :   -41.3310244 Eh     change       -0.1656567E+00 Eh
 * total energy  :   -41.4408817 Eh     change       -0.1098572E+00 Eh
 * total energy  :   -41.5140600 Eh     change       -0.7317839E-01 Eh
 * total energy  :   -41.5703892 Eh     change       -0.5632920E-01 Eh
 * total energy  :   -42.1714839 Eh     change       -0.1458677E-03 Eh
 * total energy  :   -42.1715643 Eh     change       -0.8046522E-04 Eh
 * total energy  :   -42.1716439 Eh     change       -0.7953846E-04 Eh
 * total energy  :   -42.1717142 Eh     change       -0.7028581E-04 Eh
 * total energy  :   -42.1714187 Eh     change        0.2954914E-03 Eh
 * total energy  :   -42.1718023 Eh     change       -0.3835964E-03 Eh
 * total energy  :   -42.1717451 Eh     change        0.5712985E-04 Eh
 * total energy  :   -42.1718565 Eh     change       -0.1113062E-03 Eh
 * total energy  :   -42.1718852 Eh     change       -0.2878022E-04 Eh
   *** GEOMETRY OPTIMIZATION CONVERGED AFTER 73 ITERATIONS ***

 final structure:
================
25
 xtb: 6.6.1 (8d0f1dd)
C            3.75459118040292        0.89099946092334        0.11217461448400
N            2.78032233125498       -0.15725288050610        0.01377713761094
C            3.01661527555082       -1.46398630331958       -0.06071883510811
N            1.85863348320822       -2.14919653637423       -0.08501563700767
C            0.77094073707899       -1.26832310929809       -0.02114063355322
C            1.39176726216039        0.04989478251525        0.04473921999663
C            0.76887887983763        1.22579469536404        0.11668684366409
O            0.15223568060470        2.21509374313230        0.18028061491232
N           -3.31520450212405        1.45723265001413       -0.21893140735959
C           -3.33254975028123        2.85774759980412       -0.17685893437707
C           -3.47303662880937        0.38153796849673        0.25590487197309
O           -3.55961747368463       -0.73431999348885        0.55157586907992
N           -0.47319570481515       -1.50820536821486       -0.01480472651449
C           -1.10141091237498       -2.77944272182725       -0.05657655805340
H            3.85581050266674        1.22566592071750        1.14811465904476
H            4.72026829405265        0.53131647306576       -0.23855883869048
H            3.44405632451465        1.74110518091581       -0.49643339233502
H            3.99174406154701       -1.90807720448330       -0.10411964780122
H           -2.30691519776838        3.22642193872363       -0.09238685585776
H           -3.76367208395452        3.22485461563436       -1.11028713540852
H           -3.92350929241679        3.22744699639604        0.66477728080373
H           -0.59657261521932       -3.53412897254681        0.55681256065724
H           -1.16233894350685       -3.13931454922143       -1.08844322518256
H           -2.11895371170314       -2.64304230086754        0.31153564539975
H            1.78154431782863       -3.15158354389376       -0.16093187245766

          :  Hamiltonian                  GFN2-xTB          :
         :: total energy             -42.171885230699 Eh    ::
         :: gradient norm              0.001763831450 Eh/a0 ::
         :: HOMO-LUMO gap              2.472722650232 eV    ::
         :: SCC energy               -42.782507646466 Eh    ::
         :: -> dispersion             -0.018433553806 Eh    ::
         :: repulsion energy           0.610569200735 Eh    ::

    * Orbital Energies and Occupations

         #    Occupation            Energy/Eh            Energy/eV
      -------------------------------------------------------------
         1        2.0000           -0.8928772             -24.2964
       ...           ...                  ...                  ...
        25        1.9992           -0.6516820             -17.7332
        26        1.9991           -0.6500818             -17.6896
        27        1.9986           -0.6397551             -17.4086
        28        1.9982           -0.6340700             -17.2539
        29        1.9974           -0.6247663             -17.0008
        30        1.9971           -0.6222513             -16.9323
        31        1.9943           -0.6060841             -16.4924
        32        1.9940           -0.6049422             -16.4613
        33        1.9895           -0.5914489             -16.0941
        34        1.9044           -0.5379870             -14.6394
        35        1.8844           -0.5332151             -14.5095
        36        1.8214           -0.5220844             -14.2066
        37        1.7929           -0.5181896             -14.1007 (HOMO)
        38        0.3175           -0.4273188             -11.6279 (LUMO)
        39        0.2815           -0.4239576             -11.5365
        40        0.0287           -0.3664601              -9.9719
        41        0.0018           -0.3004052              -8.1744
        42        0.0008           -0.2821894              -7.6788
        43        0.0008           -0.2819413              -7.6720
        44        0.0000           -0.1715662              -4.6686
        45        0.0000           -0.1394309              -3.7941
        46        0.0000           -0.0738973              -2.0108
        47        0.0000           -0.0730965              -1.9891
        48                         -0.0414499              -1.1279
       ...                                ...                  ...
        67                          1.2398197              33.7372
      -------------------------------------------------------------
                  HL-Gap            0.0908709 Eh            2.4727 eV

     #   Z          covCN         q      C6AA      α(0)
     1   6 C        3.691    -0.081    22.233     6.748
     2   7 N        2.800     0.049    20.382     6.705
     3   6 C        2.955     0.062    26.607     8.460
     4   7 N        2.768    -0.089    22.983     7.120
     5   6 C        2.930     0.151    24.728     8.155
     6   6 C        3.036    -0.013    28.293     8.725
     7   6 C        1.843     0.228    25.827     8.210
     8   8 O        0.856    -0.161    17.449     5.601
     9   7 N        1.820    -0.124    24.455     7.327
    10   6 C        3.685    -0.036    21.425     6.627
    11   6 C        1.769     0.314    24.177     7.950
    12   8 O        0.856    -0.241    18.745     5.805
    13   7 N        1.824    -0.203    26.240     7.590
    14   6 C        3.696    -0.040    21.473     6.629
    15   1 H        0.924     0.100     1.784     2.089
    16   1 H        0.925     0.101     1.779     2.086
    17   1 H        0.924     0.098     1.802     2.100
    18   1 H        0.926     0.108     1.711     2.046
    19   1 H        0.924     0.104     1.745     2.066
    20   1 H        0.924     0.106     1.730     2.057
    21   1 H        0.924     0.094     1.843     2.123
    22   1 H        0.924     0.060     2.197     2.318
    23   1 H        0.924     0.083     1.946     2.182
    24   1 H        0.924     0.114     1.659     2.014
    25   1 H        0.860     0.215     1.034     1.593

Wiberg/Mayer (AO) data.
largest (>0.10) Wiberg bond orders for each atom

     #   Z sym  total        # sym  WBO       # sym  WBO       # sym  WBO
 ---------------------------------------------------------------------------
     1   6 C    3.932 --     2 N    0.997    16 H    0.972    17 H    0.967
                            15 H    0.957
     2   7 N    3.546 --     3 C    1.348     6 C    1.056     1 C    0.997
     3   6 C    3.728 --     2 N    1.348     4 N    1.280    18 H    0.952
     4   7 N    3.492 --     3 C    1.280     5 C    1.068    25 H    0.925
     5   6 C    3.887 --    13 N    1.618     4 N    1.068     6 C    1.065
     6   6 C    3.827 --     7 C    1.436     5 C    1.065     2 N    1.056
                             8 O    0.124
     7   6 C    3.535 --     8 O    2.001     6 C    1.436
     8   8 O    2.213 --     7 C    2.001     6 C    0.124
     9   7 N    3.334 --    11 C    1.970    10 C    1.032    12 O    0.332
    10   6 C    3.899 --     9 N    1.032    20 H    0.946    21 H    0.944
                            19 H    0.941
    11   6 C    3.928 --     9 N    1.970    12 O    1.889
    12   8 O    2.261 --    11 C    1.889     9 N    0.332
    13   7 N    2.874 --     5 C    1.618    14 C    1.044
    14   6 C    3.913 --    13 N    1.044    22 H    0.948    24 H    0.944
                            23 H    0.937
    15   1 H    0.980 --     1 C    0.957
    16   1 H    0.987 --     1 C    0.972
    17   1 H    0.985 --     1 C    0.967
    18   1 H    0.985 --     3 C    0.952
    19   1 H    0.965 --    10 C    0.941
    20   1 H    0.967 --    10 C    0.946
    21   1 H    0.968 --    10 C    0.944
    22   1 H    0.964 --    14 C    0.948
    23   1 H    0.962 --    14 C    0.937
    24   1 H    0.960 --    14 C    0.944
    25   1 H    0.951 --     4 N    0.925
 ---------------------------------------------------------------------------

molecular dipole:
                 x           y           z       tot (Debye)
 q only:        2.216      -0.278      -0.217
   full:        2.557      -0.670      -0.167       6.733

           -------------------------------------------------
          | TOTAL ENERGY              -42.171885230699 Eh   |
          | GRADIENT NORM               0.001763831450 Eh/α |
          | HOMO-LUMO GAP               2.472722650232 eV   |
           -------------------------------------------------

 * finished run on 2024/06/05 at 19:58:49.071
