   * xtb version 6.6.1 (8d0f1dd) compiled by 'conda@1efc2f54142f' on 2023-08-01
          program call               : xtb struc.xyz --opt loose --input .xc1 --gfn2

   ID    Z sym.   atoms
    1    6 C      1, 3, 5-7, 10, 11, 14
    2    7 N      2, 4, 9, 13
    3    8 O      8, 12
    4    1 H      15-25
constraining bond 5 25 to    2.7133300 Å, actual value:    2.1289605 Å

          :  Hamiltonian                  GFN2-xTB          :
 * total energy  :   -42.8575958 Eh     change       -0.6650680E-10 Eh
 * total energy  :   -45.0222698 Eh     change       -0.2164674E+01 Eh
 * total energy  :   -48.3269528 Eh     change       -0.3304683E+01 Eh
 * total energy  :   -34.4297831 Eh     change        0.1389717E+02 Eh
 * total energy  :   -49.5261230 Eh     change       -0.1509634E+02 Eh
 * total energy  :   -49.5197101 Eh     change        0.6412846E-02 Eh
 * total energy  :   -49.6294968 Eh     change       -0.1097867E+00 Eh
 * total energy  :   -49.6570040 Eh     change       -0.2750727E-01 Eh
 * total energy  :   -49.6849633 Eh     change       -0.2795924E-01 Eh
 * total energy  :   -49.6927179 Eh     change       -0.7754649E-02 Eh
 * total energy  :   -49.8905810 Eh     change       -0.2084415E-03 Eh
 * total energy  :   -49.8906583 Eh     change       -0.7726902E-04 Eh
 * total energy  :   -49.8907169 Eh     change       -0.5868094E-04 Eh
 * total energy  :   -49.8908038 Eh     change       -0.8689608E-04 Eh
 * total energy  :   -49.8909088 Eh     change       -0.1050152E-03 Eh
 * total energy  :   -49.8909328 Eh     change       -0.2392678E-04 Eh
 * total energy  :   -49.8906822 Eh     change        0.2505528E-03 Eh
 * total energy  :   -49.8909739 Eh     change       -0.2916417E-03 Eh
 * total energy  :   -49.8909889 Eh     change       -0.1504262E-04 Eh
   *** GEOMETRY OPTIMIZATION CONVERGED AFTER 96 ITERATIONS ***

 final structure:
================
25
 xtb: 6.6.1 (8d0f1dd)
C            3.15606819962048        1.03037336731173        0.28291170730994
N            2.20991330168298        0.00716697729768       -0.03919195492828
C            2.44077617409663       -1.36350692406996        0.04367426652669
N            1.44243032209361       -2.08077994138595       -0.26696926185096
C            0.37178512396615       -1.19966097616876       -0.78790409139838
C            0.94999340001582        0.17120501250551       -0.44357771133584
C            0.10955609311322        1.34567670969856       -0.31076765978745
O            0.52193139763341        2.48410934321871       -0.25448823172693
N           -1.23222553744972        1.01360125097697       -0.19737595512929
C           -2.18697656774390        2.09757536895390       -0.08619214947271
C           -1.73542723313741       -0.26083341294984        0.13428831734517
O           -2.86632718109948       -0.38166064187206        0.52579221407209
N           -0.88063815610855       -1.32585829150361        0.02020737794166
C           -1.34462273411575       -2.65912426136985        0.29690656414471
H            3.74937670168507        0.72902151812379        1.14556166969574
H            3.82989798927790        1.19271183212104       -0.56249478624524
H            2.63245838878673        1.96621114918343        0.48306760278591
H            3.38478553743915       -1.75914262642126        0.37287604430727
H           -1.70176631967978        3.02088413769540       -0.39541291173295
H           -3.04948992948850        1.88038778538004       -0.71758069554370
H           -2.54491297095607        2.19368620392382        0.94172493735438
H           -0.56458416016047       -3.20140261452546        0.83287800778061
H           -1.56653404378461       -3.19788777774765       -0.62846204194705
H           -2.25085300222476       -2.59237950179604        0.89661205955518
H            0.28581672063438       -1.29213514498319       -1.25491169982074

          :  Hamiltonian                  GFN2-xTB          :
         :: total energy             -49.890988905615 Eh    ::
         :: gradient norm              0.002338798878 Eh/a0 ::
         :: HOMO-LUMO gap              1.377078731818 eV    ::
         :: SCC energy               -42.687977796279 Eh    ::
         :: -> dispersion             -0.022638204685 Eh    ::
         :: repulsion energy           1.672556040265 Eh    ::

    * Orbital Energies and Occupations

         #    Occupation            Energy/Eh            Energy/eV
      -------------------------------------------------------------
         1        2.0000           -0.9173827             -24.9633
       ...           ...                  ...                  ...
        25        1.9997           -0.6770977             -18.4248
        26        1.9993           -0.6623995             -18.0248
        27        1.9992           -0.6602210             -17.9655
        28        1.9988           -0.6541702             -17.8009
        29        1.9981           -0.6471644             -17.6102
        30        1.9952           -0.6322712             -17.2050
        31        1.9931           -0.6264785             -17.0473
        32        1.9903           -0.6210892             -16.9007
        33        1.9698           -0.6029052             -16.4059
        34        1.9419           -0.5923093             -16.1176
        35        1.9269           -0.5885408             -16.0150
        36        1.9060           -0.5843859             -15.9019
        37        1.7809           -0.5699127             -15.5081 (HOMO)
        38        0.4991           -0.5193060             -14.1310 (LUMO)
        39        0.0020           -0.4269862             -11.6189
        40        0.0002           -0.3940339             -10.7222
        41        0.0000           -0.3479181              -9.4673
        42                         -0.2179775              -5.9315
        43                         -0.1998332              -5.4377
        44                         -0.1838044              -5.0016
        45                         -0.1730799              -4.7097
        46                         -0.1230343              -3.3479
        47                         -0.0847115              -2.3051
        48                         -0.0461743              -1.2565
       ...                                ...                  ...
        67                          6.7124845             182.6560
      -------------------------------------------------------------
                  HL-Gap            0.0506067 Eh            1.3771 eV

     #   Z          covCN         q      C6AA      α(0)
     1   6 C        3.690    -0.087    22.354     6.766
     2   7 N        2.774     0.064    20.122     6.662
     3   6 C        3.001     0.114    25.477     8.280
     4   7 N        1.868    -0.198    26.129     7.577
     5   6 C        3.846     0.068    19.419     6.268
     6   6 C        3.061     0.019    27.527     8.604
     7   6 C        2.762     0.269    22.465     7.762
     8   8 O        0.858    -0.333    20.385     6.053
     9   7 N        2.745    -0.077    22.729     7.081
    10   6 C        3.707    -0.061    21.816     6.677
    11   6 C        2.709     0.319    21.585     7.605
    12   8 O        0.860    -0.333    20.378     6.052
    13   7 N        2.736    -0.085    22.896     7.107
    14   6 C        3.695    -0.068    21.981     6.707
    15   1 H        0.925     0.114     1.666     2.019
    16   1 H        0.924     0.125     1.573     1.961
    17   1 H        0.924     0.132     1.519     1.927
    18   1 H        0.926     0.126     1.565     1.956
    19   1 H        0.925     0.119     1.618     1.989
    20   1 H        0.924     0.118     1.627     1.995
    21   1 H        0.924     0.118     1.633     1.998
    22   1 H        0.924     0.114     1.662     2.016
    23   1 H        0.924     0.110     1.694     2.036
    24   1 H        0.925     0.128     1.553     1.949
    25   1 H        0.939     0.185     1.179     1.698

Wiberg/Mayer (AO) data.
largest (>0.10) Wiberg bond orders for each atom

     #   Z sym  total        # sym  WBO       # sym  WBO       # sym  WBO
 ---------------------------------------------------------------------------
     1   6 C    3.907 --     2 N    0.999    15 H    0.959    17 H    0.953
                            16 H    0.933
     2   7 N    3.601 --     6 C    1.364     3 C    1.105     1 C    0.999
     3   6 C    3.910 --     4 N    1.765     2 N    1.105    18 H    0.944
     4   7 N    2.931 --     3 C    1.765     5 C    0.991
     5   6 C    3.928 --     6 C    0.992     4 N    0.991    13 N    0.919
                            25 H    0.907
     6   6 C    3.664 --     2 N    1.364     7 C    1.064     5 C    0.992
     7   6 C    3.931 --     8 O    1.665     9 N    1.116     6 C    1.064
     8   8 O    1.957 --     7 C    1.665     9 N    0.142
     9   7 N    3.455 --     7 C    1.116    11 C    1.043    10 C    0.986
                             8 O    0.142
    10   6 C    3.872 --     9 N    0.986    19 H    0.962    20 H    0.943
                            21 H    0.936
    11   6 C    3.955 --    12 O    1.676    13 N    1.155     9 N    1.043
    12   8 O    1.989 --    11 C    1.676    13 N    0.137
    13   7 N    3.307 --    11 C    1.155    14 C    0.997     5 C    0.919
                            12 O    0.137
    14   6 C    3.876 --    13 N    0.997    24 H    0.954    22 H    0.947
                            23 H    0.935
    15   1 H    0.981 --     1 C    0.959
    16   1 H    0.968 --     1 C    0.933
    17   1 H    0.978 --     1 C    0.953
    18   1 H    0.981 --     3 C    0.944
    19   1 H    0.979 --    10 C    0.962
    20   1 H    0.960 --    10 C    0.943
    21   1 H    0.954 --    10 C    0.936
    22   1 H    0.962 --    14 C    0.947
    23   1 H    0.949 --    14 C    0.935
    24   1 H    0.976 --    14 C    0.954
    25   1 H    0.950 --     5 C    0.907
 ---------------------------------------------------------------------------

molecular dipole:
                 x           y           z       tot (Debye)
 q only:        1.695      -0.792      -0.199
   full:        1.968      -0.659      -0.323       5.339

           -------------------------------------------------
          | TOTAL ENERGY              -49.890988905615 Eh   |
          | GRADIENT NORM               0.002338798878 Eh/α |
          | HOMO-LUMO GAP               1.377078731818 eV   |
           -------------------------------------------------

 * finished run on 2024/06/05 at 20:00:27.349
