   * xtb version 6.6.1 (8d0f1dd) compiled by 'conda@1efc2f54142f' on 2023-08-01
          program call               : xtb struc.xyz --opt loose --input .xc1 --gfn2

   ID    Z sym.   atoms
    1    6 C      1, 3, 5-7, 10, 11, 14
    2    7 N      2, 4, 9, 13
    3    8 O      8, 12
    4    1 H      15-25
constraining bond 13 22 to    4.0600000 Å, actual value:    2.0980043 Å

          :  Hamiltonian                  GFN2-xTB          :
 * total energy  :   -35.3745826 Eh     change       -0.6650680E-10 Eh
 * total energy  :   -38.3980053 Eh     change       -0.3023423E+01 Eh
 * total energy  :   -40.5835130 Eh     change       -0.2185508E+01 Eh
 * total energy  :   -41.5986724 Eh     change       -0.1015159E+01 Eh
 * total energy  :   -41.8702026 Eh     change       -0.2715302E+00 Eh
 * total energy  :   -41.8993631 Eh     change       -0.2916051E-01 Eh
 * total energy  :   -41.9139872 Eh     change       -0.1462412E-01 Eh
 * total energy  :   -41.9425144 Eh     change       -0.2852720E-01 Eh
 * total energy  :   -41.9637300 Eh     change       -0.2121559E-01 Eh
 * total energy  :   -41.9746492 Eh     change       -0.1091921E-01 Eh
 * total energy  :   -42.1012149 Eh     change       -0.1464499E-02 Eh
 * total energy  :   -42.1023268 Eh     change       -0.1111899E-02 Eh
 * total energy  :   -42.1028594 Eh     change       -0.5326000E-03 Eh
 * total energy  :   -42.1031429 Eh     change       -0.2834639E-03 Eh
 * total energy  :   -42.1031301 Eh     change        0.1273361E-04 Eh
 * total energy  :   -42.1033976 Eh     change       -0.2674831E-03 Eh
 * total energy  :   -42.1034509 Eh     change       -0.5325408E-04 Eh
 * total energy  :   -42.1035292 Eh     change       -0.7837064E-04 Eh
 * total energy  :   -42.1035556 Eh     change       -0.2641191E-04 Eh
   *** GEOMETRY OPTIMIZATION CONVERGED AFTER 32 ITERATIONS ***

 final structure:
================
25
 xtb: 6.6.1 (8d0f1dd)
C            3.23083959291638        1.18707362199844        0.04540057830237
N            2.27577962827463        0.11211770177614       -0.02412353234154
C            2.54346015320907       -1.18760061624704       -0.07121925655812
N            1.39584868378898       -1.89568681134409       -0.12604804913481
C            0.35193406081303       -1.00433945625689       -0.10832559635987
C            0.91024816610081        0.26646272519145       -0.04354662639860
C            0.10274797422261        1.46741802462287       -0.02892451462521
O            0.52020485140515        2.60239594796883       -0.01556544430325
N           -1.26182567416640        1.15773245107146       -0.03500973710737
C           -2.19883825605698        2.27761018788075        0.00782954637719
C           -1.85875780588324       -0.07103229632382       -0.06847963842817
O           -3.04216404366257       -0.24203001740590       -0.04720464169006
N           -0.98227285324074       -1.23637430131789       -0.14618483253557
C           -1.56212272594736       -2.44072968958014       -0.24889812625943
H            3.71882766222556        1.19810332711035        1.02149455795923
H            3.99109397393749        1.06724119830470       -0.72558010359230
H            2.70686388003670        2.13187058437207       -0.09590686666524
H            3.52485733082593       -1.62118001172095       -0.06841958029504
H           -1.62216513440828        3.19875730816532        0.01427586932962
H           -2.85089415453443        2.24493817629674       -0.86369506336966
H           -2.81355068399979        2.20680830400526        0.90395620843031
H           -1.64252362047571       -4.89371886316979        1.48703195462491
H           -0.97246545941116       -3.33404601796258       -0.31652011789920
H           -2.63457949941046       -2.46991608419006       -0.25774361480424
H            1.32988546754086       -2.90363685164532       -0.15742175475598

          :  Hamiltonian                  GFN2-xTB          :
         :: total energy             -42.103555642340 Eh    ::
         :: gradient norm              0.003085381494 Eh/a0 ::
         :: HOMO-LUMO gap              0.290912222323 eV    ::
         :: SCC energy               -42.626892091215 Eh    ::
         :: -> dispersion             -0.022713766383 Eh    ::
         :: repulsion energy           0.523241506648 Eh    ::

    * Orbital Energies and Occupations

         #    Occupation            Energy/Eh            Energy/eV
      -------------------------------------------------------------
         1        2.0000           -0.9211368             -25.0654
       ...           ...                  ...                  ...
        25        2.0000           -0.6724939             -18.2995
        26        2.0000           -0.6724079             -18.2972
        27        2.0000           -0.6632311             -18.0474
        28        1.9999           -0.6390873             -17.3905
        29        1.9998           -0.6352577             -17.2862
        30        1.9998           -0.6314656             -17.1831
        31        1.9996           -0.6230238             -16.9533
        32        1.9985           -0.6020232             -16.3819
        33        1.9975           -0.5938510             -16.1595
        34        1.9966           -0.5890020             -16.0276
        35        1.9874           -0.5681965             -15.4614
        36        1.9859           -0.5664394             -15.4136
        37        1.1330           -0.4922809             -13.3956 (HOMO)
        38        0.7990           -0.4815900             -13.1047 (LUMO)
        39        0.0919           -0.4400105             -11.9733
        40        0.0094           -0.4032052             -10.9718
        41        0.0018           -0.3774030             -10.2697
        42        0.0000           -0.2926914              -7.9645
        43                         -0.2173962              -5.9157
        44                         -0.2048732              -5.5749
        45                         -0.1546374              -4.2079
        46                         -0.1390897              -3.7848
        47                         -0.0716287              -1.9491
        48                         -0.0436252              -1.1871
       ...                                ...                  ...
        67                          0.5539327              15.0733
      -------------------------------------------------------------
                  HL-Gap            0.0106908 Eh            0.2909 eV

     #   Z          covCN         q      C6AA      α(0)
     1   6 C        3.691    -0.097    22.546     6.795
     2   7 N        2.831     0.087    19.736     6.598
     3   6 C        3.052     0.055    26.710     8.476
     4   7 N        2.789    -0.055    22.303     7.014
     5   6 C        3.039     0.094    25.886     8.345
     6   6 C        3.113    -0.015    28.237     8.705
     7   6 C        2.763     0.268    22.482     7.765
     8   8 O        0.858    -0.362    20.934     6.134
     9   7 N        2.744    -0.077    22.743     7.083
    10   6 C        3.714    -0.065    21.880     6.683
    11   6 C        2.734     0.311    21.711     7.629
    12   8 O        0.859    -0.334    20.396     6.055
    13   7 N        2.735     0.010    21.083     6.820
    14   6 C        2.798    -0.053    29.298     8.867
    15   1 H        0.924     0.112     1.682     2.028
    16   1 H        0.925     0.108     1.714     2.047
    17   1 H        0.925     0.140     1.463     1.891
    18   1 H        0.926     0.130     1.537     1.939
    19   1 H        0.925     0.117     1.637     2.001
    20   1 H        0.925     0.100     1.786     2.090
    21   1 H        0.925     0.100     1.784     2.089
    22   1 H        0.000    -0.036     9.406     5.608
    23   1 H        0.926     0.095     1.835     2.118
    24   1 H        0.926     0.137     1.480     1.903
    25   1 H        0.860     0.232     0.958     1.533

Wiberg/Mayer (AO) data.
largest (>0.10) Wiberg bond orders for each atom

     #   Z sym  total        # sym  WBO       # sym  WBO       # sym  WBO
 ---------------------------------------------------------------------------
     1   6 C    3.911 --     2 N    0.984    16 H    0.962    17 H    0.959
                            15 H    0.954
     2   7 N    3.676 --     3 C    1.388     6 C    1.166     1 C    0.984
     3   6 C    3.847 --     2 N    1.388     4 N    1.290    18 H    0.951
     4   7 N    3.558 --     3 C    1.290     5 C    1.168    25 H    0.917
     5   6 C    3.888 --     6 C    1.342     4 N    1.168    13 N    1.162
     6   6 C    3.859 --     5 C    1.342     2 N    1.166     7 C    1.072
     7   6 C    3.917 --     8 O    1.678     9 N    1.082     6 C    1.072
     8   8 O    1.992 --     7 C    1.678     9 N    0.138
     9   7 N    3.569 --    11 C    1.171     7 C    1.082    10 C    0.962
                            12 O    0.151     8 O    0.138
    10   6 C    3.909 --    19 H    0.967    20 H    0.966    21 H    0.965
                             9 N    0.962
    11   6 C    3.925 --    12 O    1.732     9 N    1.171    13 N    0.929
    12   8 O    2.061 --    11 C    1.732     9 N    0.151
    13   7 N    3.624 --    14 C    1.308     5 C    1.162    11 C    0.929
    14   6 C    3.356 --    13 N    1.308    23 H    0.965    24 H    0.957
    15   1 H    0.984 --     1 C    0.954
    16   1 H    0.985 --     1 C    0.962
    17   1 H    0.980 --     1 C    0.959
    18   1 H    0.982 --     3 C    0.951
    19   1 H    0.985 --    10 C    0.967
    20   1 H    0.986 --    10 C    0.966
    21   1 H    0.986 --    10 C    0.965
    22   1 H    0.027
    23   1 H    0.990 --    14 C    0.965
    24   1 H    0.980 --    14 C    0.957
    25   1 H    0.946 --     4 N    0.917
 ---------------------------------------------------------------------------

molecular dipole:
                 x           y           z       tot (Debye)
 q only:        2.637      -1.453      -0.271
   full:        2.899      -2.047      -0.273       9.047

           -------------------------------------------------
          | TOTAL ENERGY              -42.103555642340 Eh   |
          | GRADIENT NORM               0.003085381494 Eh/α |
          | HOMO-LUMO GAP               0.290912222323 eV   |
           -------------------------------------------------

 * finished run on 2024/06/05 at 19:58:00.906
