   * xtb version 6.6.1 (8d0f1dd) compiled by 'conda@1efc2f54142f' on 2023-08-01
          program call               : xtb struc.xyz --opt loose --input .xc1 --gfn2

   ID    Z sym.   atoms
    1    7 N      1, 17
    2    6 C      2-6, 8, 9, 11-16, 18-23, 25, 26, 28-33
    3    8 O      7, 10, 24, 27
    4    1 H      34-72
constraining bond 49 51 to    4.2800000 Å, actual value:    3.0570648 Å

          :  Hamiltonian                  GFN2-xTB          :
 * total energy  :   -99.1370920 Eh     change       -0.4035485E-08 Eh
 * total energy  :   -99.2643067 Eh     change       -0.1272147E+00 Eh
 * total energy  :   -99.3047509 Eh     change       -0.4044421E-01 Eh
 * total energy  :   -99.3092551 Eh     change       -0.4504276E-02 Eh
 * total energy  :   -99.3096514 Eh     change       -0.3962716E-03 Eh
 * total energy  :   -99.3101407 Eh     change       -0.4893313E-03 Eh
 * total energy  :   -99.3103090 Eh     change       -0.1682382E-03 Eh
 * total energy  :   -99.3105292 Eh     change       -0.2202164E-03 Eh
 * total energy  :   -99.3106956 Eh     change       -0.1663867E-03 Eh
 * total energy  :   -99.3108098 Eh     change       -0.1141937E-03 Eh
 * total energy  :   -99.3108899 Eh     change       -0.8015190E-04 Eh
 * total energy  :   -99.3109646 Eh     change       -0.7464859E-04 Eh
 * total energy  :   -99.3110425 Eh     change       -0.7789293E-04 Eh
 * total energy  :   -99.3111003 Eh     change       -0.5781612E-04 Eh
 * total energy  :   -99.3111315 Eh     change       -0.3117720E-04 Eh
   *** GEOMETRY OPTIMIZATION CONVERGED AFTER 15 ITERATIONS ***

 final structure:
================
72
 xtb: 6.6.1 (8d0f1dd)
N           -1.89501695167206        2.79252928819341        2.24226716468374
C           -1.83281985109807        2.11674298773273        1.19424853534304
C           -2.97821766686478        1.90871798054805        0.24127978258170
C           -3.46081308693361        0.46751187597165        0.32277743376556
C           -4.41706473940172        0.00508282122288       -0.58433400669981
C           -4.89757098192167       -1.29263277527516       -0.53136616453789
O           -5.82872751572229       -1.81655958681561       -1.35447102253176
C           -6.46534738574176       -0.98889992139954       -2.29926469410826
C           -4.39678368118700       -2.18504236869410        0.45512085839858
O           -4.91033702843677       -3.43090580557124        0.42328334031554
C           -4.51852700434203       -4.35821431286033        1.40824495468776
C           -3.44942201677637       -1.72012768020815        1.35254377633975
C           -2.99148171130903       -0.40953623825284        1.28804428974792
C           -2.41809013553888        2.19072721970974       -1.17768383888294
C           -1.47792240719834        1.09816807515268       -1.72220152190492
C           -0.14902000844847        1.08655359675671       -1.06883193240599
N            0.49673073808204        0.00592563326734       -0.64390478292146
C            1.85552447128459        0.08391017365276       -0.17745813980130
C            2.87893745541976       -0.33043727695497       -1.48801931857604
C            4.27535837986283       -0.12814673616260       -0.98572810225716
C            4.92284643849118        1.08299124427771       -1.18180630462245
C            6.21121018804284        1.28871223964347       -0.71408309825837
C            6.88303640176373        0.28458248728775       -0.03132230565013
O            8.13412486773145        0.36622802193226        0.45742829874752
C            8.88307641862932        1.54032551522556        0.24184297983167
C            6.22552558054126       -0.95792213111619        0.18687025448693
O            6.95162741324792       -1.87926888317235        0.85127280422381
C            6.40342848881690       -3.15475246159181        1.08256241664869
C            4.93533022773108       -1.13794627851261       -0.28568271094335
C           -0.10850091844518       -1.30533289064944       -0.68315547377997
C           -4.18564819167860        2.84888129883786        0.53414240404925
C           -4.83035255844893        2.52509831761207        1.88006213131879
C           -3.82075305418431        4.32980849057449        0.47733944359032
H           -4.80382904952735        0.67552170388712       -1.33375697390479
H           -6.97345188087064       -0.14768159698300       -1.81832814124281
H           -7.20286511763920       -1.62177819481681       -2.78921415171451
H           -5.75978998180529       -0.61332178465198       -3.04738345946559
H           -4.75767472380876       -3.99990781902136        2.41380838871778
H           -5.08870597248803       -5.26185428459833        1.20221703210719
H           -3.44893445123028       -4.58295529675922        1.34440056580102
H           -3.06623318775436       -2.36860380422727        2.12365761798669
H           -2.27822587860875       -0.07553163737008        2.02578483809588
H           -3.25460434266324        2.28944865780089       -1.86866541980860
H           -1.88661960931842        3.14300003816464       -1.16520611419083
H           -1.96886432396218        0.12866370083069       -1.65885917900652
H           -1.31857996108595        1.32328018032997       -2.78489605418481
H           -0.90669591074232        1.63116939340706        0.82886396387883
H            0.40548672199686        2.01368548812690       -1.05986031694276
H            1.79720967711852       -0.42965984882194        1.01459079038819
H            2.10619871438089        1.12695819872348        0.02562369937531
H            2.89259040322311        0.17153751507735       -2.67288294666026
H            2.69034480023382       -1.38909107319467       -1.66646013544097
H            4.42509444434528        1.87754903770101       -1.71706604464090
H            6.68951791076741        2.23759219466939       -0.89439756964054
H            8.42450533091699        2.40452230789068        0.73201329998195
H            9.00463323785445        1.74678366046792       -0.82560169170146
H            9.85820849109711        1.34962102530977        0.68590137187710
H            7.17905863648587       -3.71544317494230        1.60058422284040
H            5.51244281532604       -3.09978379969031        1.71620659050397
H            6.15566331837046       -3.66175153545194        0.14478135140446
H            4.43213006127631       -2.07902626651794       -0.12961210388063
H           -0.27167434551087       -1.63169700841412       -1.71195834274095
H           -1.06857945132682       -1.29987615551227       -0.15977939105511
H            0.55320455966496       -2.01482903158703       -0.19332514520885
H           -4.92792720047279        2.65633426658869       -0.24851141617759
H           -4.12717751171592        2.71321911429320        2.68478235453442
H           -5.14746738857127        1.48603021524896        1.92393976734762
H           -5.70257632663825        3.15646773719338        2.02710272706161
H           -3.05236555105112        4.56071647554323        1.20867463002985
H           -3.47720477236518        4.62534635488648       -0.51059663993243
H           -4.70085913263927        4.92179509592308        0.71411123187018
H           -1.05320762855648        2.89091755263424        2.80056418545979

          :  Hamiltonian                  GFN2-xTB          :
         :: total energy             -99.311131473640 Eh    ::
         :: gradient norm              0.002178674883 Eh/a0 ::
         :: HOMO-LUMO gap              1.664026527926 eV    ::
         :: SCC energy              -100.681727901218 Eh    ::
         :: -> dispersion             -0.074993437947 Eh    ::
         :: repulsion energy           1.342593739629 Eh    ::

    * Orbital Energies and Occupations

         #    Occupation            Energy/Eh            Energy/eV
      -------------------------------------------------------------
         1        2.0000           -0.8085672             -22.0022
       ...           ...                  ...                  ...
        78        1.9983           -0.5285187             -14.3817
        79        1.9982           -0.5278855             -14.3645
        80        1.9979           -0.5253345             -14.2951
        81        1.9975           -0.5226044             -14.2208
        82        1.9970           -0.5193090             -14.1311
        83        1.9960           -0.5149290             -14.0119
        84        1.9952           -0.5121142             -13.9353
        85        1.9944           -0.5093775             -13.8609
        86        1.9812           -0.4901924             -13.3388
        87        1.9778           -0.4875998             -13.2683
        88        1.9385           -0.4711290             -12.8201
        89        1.8737           -0.4591843             -12.4950
        90        1.8418           -0.4553460             -12.3906 (HOMO)
        91        0.3932           -0.3941942             -10.7266 (LUMO)
        92        0.0154           -0.3395949              -9.2408
        93        0.0036           -0.3163447              -8.6082
        94        0.0033           -0.3152786              -8.5792
        95        0.0030           -0.3133644              -8.5271
        96        0.0024           -0.3100636              -8.4373
        97        0.0002           -0.2728920              -7.4258
        98        0.0000           -0.1906871              -5.1889
        99        0.0000           -0.1881745              -5.1205
       100                         -0.1399930              -3.8094
       101                         -0.1300976              -3.5401
       ...                                ...                  ...
       171                          0.5753171              15.6552
      -------------------------------------------------------------
                  HL-Gap            0.0611518 Eh            1.6640 eV

     #   Z          covCN         q      C6AA      α(0)
     1   7 N        1.774    -0.267    27.762     7.802
     2   6 C        2.826     0.101    25.753     8.315
     3   6 C        3.907     0.006    20.413     6.422
     4   6 C        2.973     0.003    27.956     8.673
     5   6 C        2.920    -0.079    29.985     8.980
     6   6 C        2.862     0.130    25.153     8.221
     7   8 O        1.706    -0.230    17.807     5.697
     8   6 C        3.644     0.027    20.453     6.501
     9   6 C        2.864     0.129    25.181     8.225
    10   8 O        1.706    -0.228    17.787     5.694
    11   6 C        3.645     0.027    20.454     6.500
    12   6 C        2.914    -0.075    29.872     8.962
    13   6 C        2.921    -0.054    29.333     8.882
    14   6 C        3.812    -0.065    21.737     6.636
    15   6 C        3.802    -0.069    21.817     6.650
    16   6 C        2.843     0.007    27.858     8.650
    17   7 N        2.727     0.011    21.064     6.816
    18   6 C        3.543    -0.015    21.930     6.858
    19   6 C        3.618    -0.055    22.056     6.774
    20   6 C        2.965    -0.001    28.046     8.687
    21   6 C        2.922    -0.049    29.209     8.863
    22   6 C        2.913    -0.068    29.682     8.934
    23   6 C        2.864     0.134    25.076     8.208
    24   8 O        1.706    -0.221    17.673     5.676
    25   6 C        3.645     0.025    20.492     6.506
    26   6 C        2.862     0.133    25.087     8.210
    27   8 O        1.706    -0.225    17.729     5.685
    28   6 C        3.645     0.027    20.456     6.501
    29   6 C        2.919    -0.079    29.986     8.980
    30   6 C        3.701    -0.070    22.013     6.709
    31   6 C        3.853    -0.007    20.675     6.467
    32   6 C        3.756    -0.119    22.842     6.815
    33   6 C        3.755    -0.118    22.816     6.811
    34   1 H        0.926     0.052     2.293     2.368
    35   1 H        0.924     0.054     2.271     2.357
    36   1 H        0.925     0.081     1.965     2.192
    37   1 H        0.924     0.048     2.349     2.397
    38   1 H        0.924     0.055     2.259     2.350
    39   1 H        0.925     0.081     1.967     2.193
    40   1 H        0.924     0.048     2.349     2.397
    41   1 H        0.926     0.051     2.302     2.373
    42   1 H        0.926     0.037     2.487     2.466
    43   1 H        0.925     0.060     2.194     2.316
    44   1 H        0.924     0.054     2.276     2.359
    45   1 H        0.925     0.066     2.132     2.283
    46   1 H        0.924     0.079     1.985     2.203
    47   1 H        0.922     0.006     2.955     2.689
    48   1 H        0.926     0.068     2.102     2.267
    49   1 H        0.770     0.058     2.286     2.381
    50   1 H        0.924     0.064     2.148     2.292
    51   1 H        0.791     0.053     2.328     2.399
    52   1 H        0.925     0.055     2.261     2.351
    53   1 H        0.926     0.046     2.376     2.411
    54   1 H        0.926     0.059     2.215     2.328
    55   1 H        0.924     0.055     2.263     2.353
    56   1 H        0.924     0.056     2.248     2.345
    57   1 H        0.925     0.083     1.953     2.185
    58   1 H        0.925     0.082     1.958     2.188
    59   1 H        0.924     0.049     2.337     2.391
    60   1 H        0.924     0.052     2.292     2.367
    61   1 H        0.926     0.047     2.352     2.398
    62   1 H        0.924     0.076     2.019     2.222
    63   1 H        0.924     0.079     1.988     2.205
    64   1 H        0.925     0.081     1.967     2.193
    65   1 H        0.924     0.038     2.482     2.464
    66   1 H        0.925     0.070     2.081     2.256
    67   1 H        0.925     0.036     2.509     2.477
    68   1 H        0.925     0.051     2.306     2.375
    69   1 H        0.925     0.059     2.216     2.328
    70   1 H        0.925     0.034     2.525     2.485
    71   1 H        0.925     0.055     2.261     2.352
    72   1 H        0.860     0.157     1.355     1.824

Wiberg/Mayer (AO) data.
largest (>0.10) Wiberg bond orders for each atom

     #   Z sym  total        # sym  WBO       # sym  WBO       # sym  WBO
 ---------------------------------------------------------------------------
     1   7 N    3.042 --     2 C    1.957    72 H    0.942
     2   6 C    3.927 --     1 N    1.957     3 C    0.995    47 H    0.897
     3   6 C    3.976 --     2 C    0.995     4 C    0.968    14 C    0.958
                            31 C    0.942
     4   6 C    3.950 --    13 C    1.415     5 C    1.368     3 C    0.968
     5   6 C    3.962 --     6 C    1.402     4 C    1.368    34 H    0.958
     6   6 C    3.906 --     5 C    1.402     9 C    1.221     7 O    1.100
     7   8 O    2.255 --     6 C    1.100     8 C    0.978
     8   6 C    3.932 --     7 O    0.978    36 H    0.977    35 H    0.974
                            37 H    0.973
     9   6 C    3.902 --    12 C    1.393     6 C    1.221    10 O    1.102
    10   8 O    2.253 --     9 C    1.102    11 C    0.978
    11   6 C    3.931 --    10 O    0.978    39 H    0.977    40 H    0.974
                            38 H    0.973
    12   6 C    3.963 --    13 C    1.401     9 C    1.393    41 H    0.964
    13   6 C    3.955 --     4 C    1.415    12 C    1.401    42 H    0.963
    14   6 C    3.971 --    15 C    0.980    44 H    0.972    43 H    0.969
                             3 C    0.958
    15   6 C    3.987 --    16 C    1.059    14 C    0.980    45 H    0.962
                            46 H    0.929
    16   6 C    3.597 --    17 N    1.395    15 C    1.059    48 H    0.957
    17   7 N    3.489 --    16 C    1.395    18 C    1.010    30 C    0.996
    18   6 C    3.926 --    17 N    1.010    50 H    0.973    49 H    0.948
                            19 C    0.910
    19   6 C    3.948 --    20 C    1.030    52 H    0.977    51 H    0.960
                            18 C    0.910
    20   6 C    3.944 --    21 C    1.401    29 C    1.371    19 C    1.030
    21   6 C    3.948 --    22 C    1.420    20 C    1.401    53 H    0.968
    22   6 C    3.959 --    21 C    1.420    23 C    1.381    54 H    0.963
    23   6 C    3.893 --    22 C    1.381    26 C    1.218    24 O    1.111
    24   8 O    2.255 --    23 C    1.111    25 C    0.976
    25   6 C    3.928 --    57 H    0.977    24 O    0.976    56 H    0.973
                            55 H    0.972
    26   6 C    3.899 --    29 C    1.398    23 C    1.218    27 O    1.103
    27   8 O    2.253 --    26 C    1.103    28 C    0.979
    28   6 C    3.932 --    27 O    0.979    58 H    0.977    59 H    0.973
                            60 H    0.973
    29   6 C    3.957 --    26 C    1.398    20 C    1.371    61 H    0.962
    30   6 C    3.957 --    17 N    0.996    64 H    0.978    62 H    0.967
                            63 H    0.960
    31   6 C    3.972 --    33 C    1.009    32 C    1.008    65 H    0.960
                             3 C    0.942
    32   6 C    3.978 --    31 C    1.008    67 H    0.982    68 H    0.981
                            66 H    0.973
    33   6 C    3.984 --    31 C    1.009    70 H    0.983    71 H    0.980
                            69 H    0.977
    34   1 H    0.996 --     5 C    0.958
    35   1 H    0.993 --     8 C    0.974
    36   1 H    0.993 --     8 C    0.977
    37   1 H    0.994 --     8 C    0.973
    38   1 H    0.993 --    11 C    0.973
    39   1 H    0.993 --    11 C    0.977
    40   1 H    0.993 --    11 C    0.974
    41   1 H    0.996 --    12 C    0.964
    42   1 H    0.998 --    13 C    0.963
    43   1 H    0.995 --    14 C    0.969
    44   1 H    0.996 --    14 C    0.972
    45   1 H    0.995 --    15 C    0.962
    46   1 H    0.971 --    15 C    0.929
    47   1 H    0.987 --     2 C    0.897
    48   1 H    0.995 --    16 C    0.957
    49   1 H    0.991 --    18 C    0.948
    50   1 H    0.995 --    18 C    0.973
    51   1 H    0.995 --    19 C    0.960
    52   1 H    0.996 --    19 C    0.977
    53   1 H    0.997 --    21 C    0.968
    54   1 H    0.995 --    22 C    0.963
    55   1 H    0.991 --    25 C    0.972
    56   1 H    0.992 --    25 C    0.973
    57   1 H    0.992 --    25 C    0.977
    58   1 H    0.993 --    28 C    0.977
    59   1 H    0.993 --    28 C    0.973
    60   1 H    0.993 --    28 C    0.973
    61   1 H    0.996 --    29 C    0.962
    62   1 H    0.985 --    30 C    0.967
    63   1 H    0.987 --    30 C    0.960
    64   1 H    0.993 --    30 C    0.978
    65   1 H    0.992 --    31 C    0.960
    66   1 H    0.991 --    32 C    0.973
    67   1 H    0.997 --    32 C    0.982
    68   1 H    0.994 --    32 C    0.981
    69   1 H    0.994 --    33 C    0.977
    70   1 H    0.997 --    33 C    0.983
    71   1 H    0.994 --    33 C    0.980
    72   1 H    0.970 --     1 N    0.942
 ---------------------------------------------------------------------------

molecular dipole:
                 x           y           z       tot (Debye)
 q only:        0.721      -0.079      -0.847
   full:        1.024      -0.106      -1.022       3.687

           -------------------------------------------------
          | TOTAL ENERGY              -99.311131473640 Eh   |
          | GRADIENT NORM               0.002178674883 Eh/α |
          | HOMO-LUMO GAP               1.664026527926 eV   |
           -------------------------------------------------

 * finished run on 2024/04/06 at 11:15:07.217
