   * xtb version 6.6.1 (8d0f1dd) compiled by 'conda@1efc2f54142f' on 2023-08-01
          program call               : xtb xtbopt.xyz --opt crude --input .xc2 --gfn2

   ID    Z sym.   atoms
    1    7 N      1, 17
    2    6 C      2-6, 8, 9, 11-16, 18-23, 25, 26, 28-33
    3    8 O      7, 10, 24, 27
    4    1 H      34-72
########################################################################
[WARNING] Please study the warnings concerning your input carefully
-1- readin_getIntValue: could not parse ''
########################################################################

          :  Hamiltonian                  GFN2-xTB          :
 * total energy  :   -99.3378144 Eh     change        0.3410605E-12 Eh
 * total energy  :   -99.3858532 Eh     change       -0.4803876E-01 Eh
 * total energy  :   -99.4000287 Eh     change       -0.1417555E-01 Eh
 * total energy  :   -99.4051467 Eh     change       -0.5118000E-02 Eh
 * total energy  :   -99.4065349 Eh     change       -0.1388193E-02 Eh
 * total energy  :   -99.4065988 Eh     change       -0.6382250E-04 Eh
   *** GEOMETRY OPTIMIZATION CONVERGED AFTER 6 ITERATIONS ***

 final structure:
================
72
 xtb: 6.6.1 (8d0f1dd)
N           -1.89009499290345        2.79218707797018        2.23883446575240
C           -1.83495869311522        2.11689355677983        1.19014642909636
C           -2.98376124723188        1.91123215842733        0.24166605577753
C           -3.46284571399995        0.46898382967937        0.32413797411223
C           -4.41602838276303        0.00437344708324       -0.58468337200591
C           -4.89451653567916       -1.29393498396815       -0.53193027073885
O           -5.82347188287989       -1.81765797183019       -1.35757348644226
C           -6.45855946697574       -0.98642383687131       -2.30033197845521
C           -4.39452661284695       -2.18487939042159        0.45631102005989
O           -4.90755808917770       -3.43092098576532        0.42504540368386
C           -4.51837910048896       -4.35774451729679        1.41150562454424
C           -3.44879132858689       -1.71805186173540        1.35461409019982
C           -2.99297626180247       -0.40667161761841        1.29050510190685
C           -2.42798070029546        2.19659443094953       -1.17789835876873
C           -1.49078970013725        1.10478227625116       -1.72525179244227
C           -0.15611633088730        1.09869570252649       -1.08680884153009
N            0.50634036633350        0.01885565139008       -0.68895360678049
C            1.88675259272362        0.11881545432227       -0.28152179694122
C            2.84834132858927       -0.34851763468143       -1.38673697508301
C            4.26885611311196       -0.13917171033180       -0.94389876027852
C            4.91069936391907        1.06897966275128       -1.16147123467303
C            6.20645341091746        1.27480401139407       -0.71305602449315
C            6.88665689834581        0.27511283794396       -0.03232207690431
O            8.14002494740536        0.36299790949056        0.44943113830687
C            8.88031234914442        1.54312165701706        0.23720493604934
C            6.23648454960175       -0.96957394285923        0.19431799918317
O            6.96738192856311       -1.88931631988588        0.85493409621151
C            6.41658896540662       -3.16335366983080        1.08868616768635
C            4.94049281225964       -1.15062752731623       -0.26114380557713
C           -0.09226063879537       -1.29438630821416       -0.70195166498164
C           -4.19202178642279        2.84980283744264        0.53513894752182
C           -4.83731080038457        2.52516047021408        1.88023169446498
C           -3.82711255841122        4.33071860107502        0.47918585218154
H           -4.80161526639607        0.67373046757071       -1.33553641139071
H           -6.96431558225221       -0.14519885085337       -1.81687228416818
H           -7.19765533831465       -1.61600319169046       -2.79195647360764
H           -5.75214424156143       -0.61032529712013       -3.04746226719131
H           -4.76046737849802       -3.99949284772517        2.41637814404600
H           -5.08799632535379       -5.26137096438666        1.20378208703147
H           -3.44861968292962       -4.58256586313230        1.35099787174846
H           -3.06542536505426       -2.36544511331962        2.12656698850892
H           -2.28164216599629       -0.07118585850917        2.02941214124080
H           -3.26559636982650        2.29791103533841       -1.86681543628182
H           -1.89543770528802        3.14821351949408       -1.16401955169923
H           -1.97774350449111        0.13377834834515       -1.65418690372892
H           -1.33947816215614        1.32610579139970       -2.78999661997955
H           -0.91185707211550        1.62695154063233        0.82222085458694
H            0.39348606543769        2.02871391589231       -1.07667687632772
H            2.04854515473090       -0.49189774796986        0.61314288997628
H            2.11651507873023        1.15801324472545       -0.03610516153686
H            2.65747501747953        0.21394245799009       -2.29300330151847
H            2.67364715638097       -1.40365430758316       -1.59920753013516
H            4.40787208520651        1.86113285790372       -1.69528354068442
H            6.68240917860199        2.22301211181822       -0.90225223806682
H            8.41394256065267        2.40305283084098        0.72770757157509
H            9.00332977570617        1.75242574914798       -0.82948918973826
H            9.85560839065185        1.35911813044745        0.68381420790638
H            7.19002282167068       -3.72641127852660        1.60695916706296
H            5.52610219371045       -3.10503185498404        1.72298995831718
H            6.16663225490590       -3.66983037521614        0.15122428702713
H            4.43870633166758       -2.09208130037439       -0.10166452054183
H           -0.26489212951362       -1.64052603022362       -1.72308455042855
H           -1.04660657735078       -1.28278471078013       -0.16901086174596
H            0.57317354725469       -1.99612062337770       -0.20577807454158
H           -4.93339090123162        2.65667949299787       -0.24832777715866
H           -4.13593982494301        2.71742584901792        2.68552405421431
H           -5.14982059060301        1.48470688041814        1.92489214650158
H           -5.71268064945639        3.15262740019750        2.02517404667710
H           -3.06244766056799        4.56099503016380        1.21460741338666
H           -3.47804233010858        4.62579363605664       -0.50693074289022
H           -4.70802559237464        4.92349485319839        0.71071386546801
H           -1.04443640194049        2.88536130059375        2.79245451004375

          :  Hamiltonian                  GFN2-xTB          :
         :: total energy             -99.406598756198 Eh    ::
         :: gradient norm              0.006987039460 Eh/a0 ::
         :: HOMO-LUMO gap              1.672707953191 eV    ::
         :: SCC energy              -100.787020531387 Eh    ::
         :: -> dispersion             -0.075079686542 Eh    ::
         :: repulsion energy           1.379181226476 Eh    ::

    * Orbital Energies and Occupations

         #    Occupation            Energy/Eh            Energy/eV
      -------------------------------------------------------------
         1        2.0000           -0.8088768             -22.0107
       ...           ...                  ...                  ...
        78        1.9983           -0.5290250             -14.3955
        79        1.9983           -0.5287334             -14.3876
        80        1.9982           -0.5281418             -14.3715
        81        1.9975           -0.5229190             -14.2293
        82        1.9971           -0.5201555             -14.1542
        83        1.9960           -0.5151698             -14.0185
        84        1.9952           -0.5123570             -13.9419
        85        1.9943           -0.5097029             -13.8697
        86        1.9810           -0.4905138             -13.3476
        87        1.9786           -0.4885613             -13.2944
        88        1.9387           -0.4716072             -12.8331
        89        1.8726           -0.4594734             -12.5029
        90        1.8441           -0.4560345             -12.4093 (HOMO)
        91        0.3919           -0.3945636             -10.7366 (LUMO)
        92        0.0151           -0.3396889              -9.2434
        93        0.0035           -0.3166028              -8.6152
        94        0.0029           -0.3136844              -8.5358
        95        0.0027           -0.3124721              -8.5028
        96        0.0024           -0.3101638              -8.4400
        97        0.0000           -0.1909485              -5.1960
        98        0.0000           -0.1876041              -5.1050
        99                         -0.1359664              -3.6998
       100                         -0.0686215              -1.8673
       101                         -0.0643540              -1.7512
       ...                                ...                  ...
       171                          0.5767701              15.6947
      -------------------------------------------------------------
                  HL-Gap            0.0614709 Eh            1.6727 eV

     #   Z          covCN         q      C6AA      α(0)
     1   7 N        1.774    -0.267    27.762     7.802
     2   6 C        2.826     0.101    25.752     8.315
     3   6 C        3.907     0.006    20.412     6.422
     4   6 C        2.974     0.003    27.959     8.673
     5   6 C        2.920    -0.080    29.989     8.980
     6   6 C        2.862     0.130    25.154     8.221
     7   8 O        1.706    -0.230    17.806     5.697
     8   6 C        3.644     0.027    20.451     6.500
     9   6 C        2.864     0.129    25.179     8.225
    10   8 O        1.706    -0.228    17.786     5.694
    11   6 C        3.645     0.027    20.456     6.500
    12   6 C        2.914    -0.075    29.869     8.962
    13   6 C        2.921    -0.054    29.335     8.882
    14   6 C        3.812    -0.065    21.738     6.636
    15   6 C        3.802    -0.069    21.817     6.650
    16   6 C        2.844     0.007    27.845     8.648
    17   7 N        2.729     0.011    21.064     6.816
    18   6 C        3.757    -0.016    20.914     6.520
    19   6 C        3.809    -0.071    21.851     6.654
    20   6 C        2.970    -0.001    28.039     8.686
    21   6 C        2.922    -0.049    29.212     8.863
    22   6 C        2.914    -0.067    29.679     8.933
    23   6 C        2.864     0.133    25.079     8.209
    24   8 O        1.706    -0.222    17.680     5.677
    25   6 C        3.645     0.025    20.491     6.506
    26   6 C        2.863     0.133    25.087     8.210
    27   8 O        1.706    -0.224    17.724     5.684
    28   6 C        3.646     0.027    20.450     6.499
    29   6 C        2.920    -0.080    29.997     8.981
    30   6 C        3.699    -0.071    22.022     6.711
    31   6 C        3.853    -0.007    20.674     6.467
    32   6 C        3.756    -0.119    22.837     6.814
    33   6 C        3.755    -0.118    22.817     6.811
    34   1 H        0.926     0.052     2.293     2.368
    35   1 H        0.924     0.054     2.271     2.357
    36   1 H        0.925     0.081     1.965     2.192
    37   1 H        0.924     0.048     2.349     2.397
    38   1 H        0.924     0.055     2.258     2.350
    39   1 H        0.925     0.081     1.966     2.193
    40   1 H        0.924     0.048     2.348     2.396
    41   1 H        0.926     0.052     2.300     2.372
    42   1 H        0.926     0.038     2.478     2.462
    43   1 H        0.925     0.060     2.197     2.318
    44   1 H        0.924     0.054     2.276     2.359
    45   1 H        0.925     0.066     2.131     2.283
    46   1 H        0.923     0.080     1.979     2.200
    47   1 H        0.922     0.007     2.943     2.683
    48   1 H        0.926     0.070     2.091     2.261
    49   1 H        0.924     0.067     2.116     2.275
    50   1 H        0.924     0.067     2.114     2.274
    51   1 H        0.925     0.056     2.243     2.342
    52   1 H        0.924     0.055     2.258     2.350
    53   1 H        0.926     0.045     2.381     2.413
    54   1 H        0.926     0.059     2.216     2.328
    55   1 H        0.924     0.054     2.266     2.354
    56   1 H        0.924     0.056     2.247     2.344
    57   1 H        0.925     0.082     1.954     2.186
    58   1 H        0.925     0.082     1.959     2.189
    59   1 H        0.924     0.048     2.340     2.392
    60   1 H        0.924     0.053     2.288     2.366
    61   1 H        0.926     0.047     2.357     2.401
    62   1 H        0.924     0.076     2.018     2.221
    63   1 H        0.924     0.080     1.980     2.200
    64   1 H        0.925     0.080     1.982     2.201
    65   1 H        0.924     0.037     2.484     2.465
    66   1 H        0.925     0.070     2.085     2.258
    67   1 H        0.925     0.036     2.508     2.477
    68   1 H        0.925     0.051     2.306     2.375
    69   1 H        0.925     0.059     2.212     2.326
    70   1 H        0.925     0.034     2.525     2.485
    71   1 H        0.925     0.055     2.262     2.352
    72   1 H        0.860     0.157     1.354     1.822

Wiberg/Mayer (AO) data.
largest (>0.10) Wiberg bond orders for each atom

     #   Z sym  total        # sym  WBO       # sym  WBO       # sym  WBO
 ---------------------------------------------------------------------------
     1   7 N    3.043 --     2 C    1.957    72 H    0.942
     2   6 C    3.927 --     1 N    1.957     3 C    0.995    47 H    0.897
     3   6 C    3.976 --     2 C    0.995     4 C    0.968    14 C    0.958
                            31 C    0.942
     4   6 C    3.949 --    13 C    1.415     5 C    1.368     3 C    0.968
     5   6 C    3.962 --     6 C    1.402     4 C    1.368    34 H    0.958
     6   6 C    3.906 --     5 C    1.402     9 C    1.221     7 O    1.100
     7   8 O    2.255 --     6 C    1.100     8 C    0.978
     8   6 C    3.932 --     7 O    0.978    36 H    0.977    35 H    0.974
                            37 H    0.973
     9   6 C    3.902 --    12 C    1.393     6 C    1.221    10 O    1.102
    10   8 O    2.253 --     9 C    1.102    11 C    0.978
    11   6 C    3.931 --    10 O    0.978    39 H    0.977    40 H    0.974
                            38 H    0.973
    12   6 C    3.962 --    13 C    1.402     9 C    1.393    41 H    0.964
    13   6 C    3.955 --     4 C    1.415    12 C    1.402    42 H    0.962
    14   6 C    3.972 --    15 C    0.981    44 H    0.972    43 H    0.969
                             3 C    0.958
    15   6 C    3.987 --    16 C    1.060    14 C    0.981    45 H    0.962
                            46 H    0.927
    16   6 C    3.597 --    17 N    1.400    15 C    1.060    48 H    0.957
    17   7 N    3.480 --    16 C    1.400    30 C    0.998    18 C    0.989
    18   6 C    3.956 --    17 N    0.989    50 H    0.967    19 C    0.967
                            49 H    0.963
    19   6 C    3.977 --    20 C    1.007    51 H    0.972    52 H    0.972
                            18 C    0.967
    20   6 C    3.944 --    21 C    1.410    29 C    1.380    19 C    1.007
    21   6 C    3.950 --    22 C    1.416    20 C    1.410    53 H    0.968
    22   6 C    3.959 --    21 C    1.416    23 C    1.383    54 H    0.963
    23   6 C    3.895 --    22 C    1.383    26 C    1.219    24 O    1.110
    24   8 O    2.255 --    23 C    1.110    25 C    0.976
    25   6 C    3.928 --    57 H    0.977    24 O    0.976    56 H    0.973
                            55 H    0.972
    26   6 C    3.899 --    29 C    1.395    23 C    1.219    27 O    1.104
    27   8 O    2.254 --    26 C    1.104    28 C    0.979
    28   6 C    3.932 --    27 O    0.979    58 H    0.977    59 H    0.973
                            60 H    0.973
    29   6 C    3.959 --    26 C    1.395    20 C    1.380    61 H    0.962
    30   6 C    3.957 --    17 N    0.998    64 H    0.978    62 H    0.966
                            63 H    0.960
    31   6 C    3.972 --    33 C    1.009    32 C    1.008    65 H    0.960
                             3 C    0.942
    32   6 C    3.978 --    31 C    1.008    67 H    0.982    68 H    0.981
                            66 H    0.973
    33   6 C    3.984 --    31 C    1.009    70 H    0.983    71 H    0.980
                            69 H    0.977
    34   1 H    0.996 --     5 C    0.958
    35   1 H    0.993 --     8 C    0.974
    36   1 H    0.993 --     8 C    0.977
    37   1 H    0.994 --     8 C    0.973
    38   1 H    0.993 --    11 C    0.973
    39   1 H    0.993 --    11 C    0.977
    40   1 H    0.993 --    11 C    0.974
    41   1 H    0.996 --    12 C    0.964
    42   1 H    0.998 --    13 C    0.962
    43   1 H    0.995 --    14 C    0.969
    44   1 H    0.996 --    14 C    0.972
    45   1 H    0.995 --    15 C    0.962
    46   1 H    0.970 --    15 C    0.927
    47   1 H    0.987 --     2 C    0.897
    48   1 H    0.995 --    16 C    0.957
    49   1 H    0.990 --    18 C    0.963
    50   1 H    0.994 --    18 C    0.967
    51   1 H    0.996 --    19 C    0.972
    52   1 H    0.996 --    19 C    0.972
    53   1 H    0.997 --    21 C    0.968
    54   1 H    0.995 --    22 C    0.963
    55   1 H    0.991 --    25 C    0.972
    56   1 H    0.992 --    25 C    0.973
    57   1 H    0.992 --    25 C    0.977
    58   1 H    0.993 --    28 C    0.977
    59   1 H    0.993 --    28 C    0.973
    60   1 H    0.993 --    28 C    0.973
    61   1 H    0.997 --    29 C    0.962
    62   1 H    0.985 --    30 C    0.966
    63   1 H    0.987 --    30 C    0.960
    64   1 H    0.993 --    30 C    0.978
    65   1 H    0.992 --    31 C    0.960
    66   1 H    0.991 --    32 C    0.973
    67   1 H    0.997 --    32 C    0.982
    68   1 H    0.994 --    32 C    0.981
    69   1 H    0.994 --    33 C    0.977
    70   1 H    0.997 --    33 C    0.983
    71   1 H    0.994 --    33 C    0.980
    72   1 H    0.970 --     1 N    0.942
 ---------------------------------------------------------------------------

molecular dipole:
                 x           y           z       tot (Debye)
 q only:        0.668      -0.056      -0.821
   full:        0.970      -0.103      -1.000       3.552

           -------------------------------------------------
          | TOTAL ENERGY              -99.406598756198 Eh   |
          | GRADIENT NORM               0.006987039460 Eh/α |
          | HOMO-LUMO GAP               1.672707953191 eV   |
           -------------------------------------------------

 * finished run on 2024/04/06 at 11:15:08.499
