   * xtb version 6.6.1 (8d0f1dd) compiled by 'conda@1efc2f54142f' on 2023-08-01
          program call               : xtb xtbopt.xyz --opt crude --input .xc2 --gfn2

   ID    Z sym.   atoms
    1    6 C      1, 3, 5-7, 10, 11, 14
    2    7 N      2, 4, 9, 13
    3    8 O      8, 12
    4    1 H      15-25
########################################################################
[WARNING] Please study the warnings concerning your input carefully
-1- readin_getIntValue: could not parse ''
########################################################################

          :  Hamiltonian                  GFN2-xTB          :
 * total energy  :   -42.2093412 Eh     change       -0.3687717E-11 Eh
   *** GEOMETRY OPTIMIZATION CONVERGED AFTER 1 ITERATIONS ***

 final structure:
================
25
 xtb: 6.6.1 (8d0f1dd)
C            3.11090373566036        1.21881086367214        0.07813704636913
N            2.17712651713647        0.12733471711128        0.04488500676095
C            2.50473800223056       -1.18335777270927        0.04551365416163
N            1.37311583076082       -1.93640256828159        0.02312119289730
C            0.30430932351938       -1.09363372032258        0.01147739940760
C            0.80036911785850        0.21853253466556        0.02740846342899
C           -0.08583596134850        1.29083180363803        0.01390586017516
O            0.32024425414764        2.56939910651486       -0.04092366508109
N           -1.43873300062140        0.99837306270211        0.02694337293701
C           -2.36541030947879        1.98365686635500        0.08472285437386
C           -1.94933123909324       -0.33511841245646       -0.06382819513403
O           -3.13442378593755       -0.53726298269852       -0.13665529505934
N           -1.02259229538883       -1.36962741323052       -0.04515925587862
C           -1.49990811040770       -2.73627100099847       -0.09860296437023
H            3.66062090930642        1.22104616189222        1.02082388793367
H            3.82476138476053        1.13041233973400       -0.74158788145729
H            2.56679799506989        2.15453826368073       -0.01742232547143
H            3.50159493354094       -1.56835847321338        0.05245418580495
H           -0.43821781665028        3.14378170775968       -0.23892364089914
H           -3.38568087503508        1.71049751890876       -0.07002794631808
H           -2.11044454373124        2.98028148381737        0.38044504592780
H           -1.17147963505553       -3.28643715654875        0.78346112550343
H           -1.13977186615766       -3.22917981952849       -1.00218620465674
H           -2.58807675455700       -2.70968674116082       -0.11831075240454
H            1.34575570357159       -2.94392182770279        0.01150064894915

          :  Hamiltonian                  GFN2-xTB          :
         :: total energy             -42.209341197716 Eh    ::
         :: gradient norm              0.005542009065 Eh/a0 ::
         :: HOMO-LUMO gap              1.476562974799 eV    ::
         :: SCC energy               -42.725423044998 Eh    ::
         :: -> dispersion             -0.022932100474 Eh    ::
         :: repulsion energy           0.515966157475 Eh    ::

    * Orbital Energies and Occupations

         #    Occupation            Energy/Eh            Energy/eV
      -------------------------------------------------------------
         1        2.0000           -0.8868953             -24.1336
       ...           ...                  ...                  ...
        25        1.9998           -0.6670251             -18.1507
        26        1.9997           -0.6613917             -17.9974
        27        1.9996           -0.6572628             -17.8850
        28        1.9994           -0.6461453             -17.5825
        29        1.9987           -0.6266263             -17.0514
        30        1.9983           -0.6206181             -16.8879
        31        1.9980           -0.6162045             -16.7678
        32        1.9975           -0.6105463             -16.6138
        33        1.9969           -0.6061591             -16.4944
        34        1.9964           -0.6025676             -16.3967
        35        1.9862           -0.5703399             -15.5197
        36        1.9684           -0.5503654             -14.9762
        37        1.4541           -0.4755300             -12.9398 (HOMO)
        38        0.4267           -0.4212673             -11.4633 (LUMO)
        39        0.1272           -0.3883830             -10.5684
        40        0.0521           -0.3662620              -9.9665
        41        0.0016           -0.2833583              -7.7106
        42        0.0000           -0.1970254              -5.3613
        43        0.0000           -0.1817706              -4.9462
        44        0.0000           -0.1412921              -3.8448
        45        0.0000           -0.1259821              -3.4281
        46        0.0000           -0.1069895              -2.9113
        47        0.0000           -0.0618374              -1.6827
        48                         -0.0412427              -1.1223
       ...                                ...                  ...
        67                          0.5241268              14.2622
      -------------------------------------------------------------
                  HL-Gap            0.0542627 Eh            1.4766 eV

     #   Z          covCN         q      C6AA      α(0)
     1   6 C        3.690    -0.087    22.359     6.767
     2   7 N        2.816     0.047    20.421     6.712
     3   6 C        3.024     0.026    27.389     8.584
     4   7 N        2.772    -0.064    22.478     7.041
     5   6 C        3.035     0.085    26.068     8.375
     6   6 C        3.077     0.001    27.927     8.664
     7   6 C        2.784     0.158    24.569     8.119
     8   8 O        1.659    -0.356    20.012     6.039
     9   7 N        2.741    -0.019    21.614     6.905
    10   6 C        2.811    -0.082    30.031     8.978
    11   6 C        2.737     0.298    21.936     7.668
    12   8 O        0.859    -0.362    20.936     6.135
    13   7 N        2.736    -0.051    22.221     7.001
    14   6 C        3.700    -0.071    22.029     6.712
    15   1 H        0.924     0.098     1.804     2.100
    16   1 H        0.924     0.097     1.811     2.104
    17   1 H        0.925     0.117     1.634     1.999
    18   1 H        0.927     0.111     1.689     2.033
    19   1 H        0.804     0.345     0.600     1.217
    20   1 H        0.927     0.115     1.653     2.011
    21   1 H        0.926     0.080     1.980     2.200
    22   1 H        0.924     0.083     1.949     2.183
    23   1 H        0.924     0.083     1.944     2.180
    24   1 H        0.925     0.125     1.573     1.961
    25   1 H        0.860     0.221     1.007     1.572

Wiberg/Mayer (AO) data.
largest (>0.10) Wiberg bond orders for each atom

     #   Z sym  total        # sym  WBO       # sym  WBO       # sym  WBO
 ---------------------------------------------------------------------------
     1   6 C    3.927 --     2 N    0.993    17 H    0.967    16 H    0.964
                            15 H    0.961
     2   7 N    3.549 --     3 C    1.282     6 C    1.132     1 C    0.993
     3   6 C    3.645 --     2 N    1.282     4 N    1.235    18 H    0.958
     4   7 N    3.521 --     3 C    1.235     5 C    1.191    25 H    0.923
     5   6 C    3.800 --     6 C    1.254     4 N    1.191    13 N    1.164
     6   6 C    3.910 --     7 C    1.276     5 C    1.254     2 N    1.132
     7   6 C    3.671 --     6 C    1.276     9 N    1.117     8 O    1.110
     8   8 O    2.096 --     7 C    1.110    19 H    0.834
     9   7 N    3.584 --    10 C    1.258     7 C    1.117    11 C    0.999
    10   6 C    3.368 --     9 N    1.258    20 H    0.962    21 H    0.957
    11   6 C    3.865 --    12 O    1.675    13 N    1.095     9 N    0.999
    12   8 O    1.980 --    11 C    1.675    13 N    0.131
    13   7 N    3.500 --     5 C    1.164    11 C    1.095    14 C    0.975
                            12 O    0.131
    14   6 C    3.923 --    13 N    0.975    22 H    0.970    23 H    0.969
                            24 H    0.964
    15   1 H    0.981 --     1 C    0.961
    16   1 H    0.983 --     1 C    0.964
    17   1 H    0.985 --     1 C    0.967
    18   1 H    0.987 --     3 C    0.958
    19   1 H    0.880 --     8 O    0.834
    20   1 H    0.984 --    10 C    0.962
    21   1 H    0.991 --    10 C    0.957
    22   1 H    0.987 --    14 C    0.970
    23   1 H    0.987 --    14 C    0.969
    24   1 H    0.983 --    14 C    0.964
    25   1 H    0.951 --     4 N    0.923
 ---------------------------------------------------------------------------

molecular dipole:
                 x           y           z       tot (Debye)
 q only:        2.139      -0.635      -0.027
   full:        2.249      -0.764      -0.022       6.037

           -------------------------------------------------
          | TOTAL ENERGY              -42.209341197716 Eh   |
          | GRADIENT NORM               0.005542009065 Eh/α |
          | HOMO-LUMO GAP               1.476562974799 eV   |
           -------------------------------------------------

 * finished run on 2024/06/05 at 19:58:56.081
