   * xtb version 6.6.1 (8d0f1dd) compiled by 'conda@1efc2f54142f' on 2023-08-01
          program call               : xtb struc.xyz --opt loose --input .xc1 --gfn2

   ID    Z sym.   atoms
    1    6 C      1, 3, 5-7, 10, 11, 14
    2    7 N      2, 4, 9, 13
    3    8 O      8, 12
    4    1 H      15-25
constraining bond 6 17 to    5.1400000 Å, actual value:    2.5833586 Å

          :  Hamiltonian                  GFN2-xTB          :
 * total energy  :   -18.9059012 Eh     change       -0.6650680E-10 Eh
 * total energy  :   -28.7399935 Eh     change       -0.9834092E+01 Eh
 * total energy  :   -35.1827388 Eh     change       -0.6442745E+01 Eh
 * total energy  :   -39.2172652 Eh     change       -0.4034526E+01 Eh
 * total energy  :   -41.1713833 Eh     change       -0.1954118E+01 Eh
 * total energy  :   -41.6258316 Eh     change       -0.4544483E+00 Eh
 * total energy  :   -41.7007691 Eh     change       -0.7493754E-01 Eh
 * total energy  :   -41.7220625 Eh     change       -0.2129336E-01 Eh
 * total energy  :   -41.7835597 Eh     change       -0.6149721E-01 Eh
 * total energy  :   -41.8081280 Eh     change       -0.2456828E-01 Eh
 * total energy  :   -42.1074368 Eh     change       -0.3318049E-03 Eh
 * total energy  :   -42.1077917 Eh     change       -0.3549134E-03 Eh
 * total energy  :   -42.1079970 Eh     change       -0.2053624E-03 Eh
 * total energy  :   -42.1081368 Eh     change       -0.1398016E-03 Eh
 * total energy  :   -42.1082586 Eh     change       -0.1217592E-03 Eh
 * total energy  :   -42.1083241 Eh     change       -0.6546843E-04 Eh
 * total energy  :   -42.1084073 Eh     change       -0.8322516E-04 Eh
 * total energy  :   -42.1084564 Eh     change       -0.4911244E-04 Eh
 * total energy  :   -42.1084937 Eh     change       -0.3730838E-04 Eh
   *** GEOMETRY OPTIMIZATION CONVERGED AFTER 44 ITERATIONS ***

 final structure:
================
25
 xtb: 6.6.1 (8d0f1dd)
C            3.16413271426331        0.87229462860911        0.16845967763794
N            2.26809510875776       -0.10319722593048        0.09268651461248
C            2.49027533507695       -1.43623197129169        0.03571311177192
N            1.30325438476346       -2.10175472325199       -0.01840351076041
C            0.30091991030093       -1.18357351634532        0.00363239732002
C            0.88581665908434        0.06962345873321        0.06735790212657
C            0.09950224977379        1.28093043126802        0.11137627595415
O            0.53565755689110        2.40551759240638        0.18100539983022
N           -1.26670381270724        0.99697967374869        0.05985752277206
C           -2.18709546617330        2.12480560889151        0.09104225808566
C           -1.87499865783851       -0.24341419925869       -0.00177461220518
O           -3.06627728710026       -0.37430275691202       -0.03389580685686
N           -1.02796855012708       -1.37313383089007       -0.02647290642733
C           -1.62222620875033       -2.69513382179862       -0.06469539720247
H            2.81338117958826        1.88716026356535        0.22149453993233
H            4.20955910254161        0.63027380510095        0.17867485885790
H            4.08331120390372        3.92463897021166       -1.08810984819588
H            3.45240696917251       -1.90479939271183        0.03796834513795
H           -1.60060898802138        3.03874162972024        0.14608369186859
H           -2.80455373073606        2.12338182168141       -0.80709126421112
H           -2.84322467061067        2.04270983628712        0.95742640697688
H           -1.31710800740460       -3.27451436767402        0.80702718962002
H           -1.34045673076196       -3.21582785039187       -0.98022354164564
H           -2.70398046504072       -2.56729066525167       -0.04742547140751
H            1.20932171525442       -3.10564485691560       -0.06054211569239

          :  Hamiltonian                  GFN2-xTB          :
         :: total energy             -42.108493708458 Eh    ::
         :: gradient norm              0.001568608415 Eh/a0 ::
         :: HOMO-LUMO gap              0.276276953563 eV    ::
         :: SCC energy               -42.632250092321 Eh    ::
         :: -> dispersion             -0.022712762622 Eh    ::
         :: repulsion energy           0.523660882163 Eh    ::

    * Orbital Energies and Occupations

         #    Occupation            Energy/Eh            Energy/eV
      -------------------------------------------------------------
         1        2.0000           -0.9086612             -24.7259
       ...           ...                  ...                  ...
        25        1.9999           -0.6665588             -18.1380
        26        1.9999           -0.6660805             -18.1250
        27        1.9999           -0.6571399             -17.8817
        28        1.9996           -0.6351888             -17.2844
        29        1.9994           -0.6310176             -17.1709
        30        1.9992           -0.6256426             -17.0246
        31        1.9987           -0.6174998             -16.8030
        32        1.9958           -0.5992267             -16.3058
        33        1.9855           -0.5796587             -15.7733
        34        1.9584           -0.5627851             -15.3142
        35        1.9535           -0.5609853             -15.2652
        36        1.9467           -0.5587827             -15.2053
        37        1.2352           -0.5093871             -13.8611 (HOMO)
        38        0.9192           -0.4992341             -13.5849 (LUMO)
        39        0.0057           -0.4090982             -11.1321
        40        0.0031           -0.3996164             -10.8741
        41        0.0004           -0.3665445              -9.9742
        42        0.0000           -0.2848258              -7.7505
        43                         -0.2053096              -5.5868
        44                         -0.1839733              -5.0062
        45                         -0.1426704              -3.8823
        46                         -0.1136689              -3.0931
        47                         -0.0801893              -2.1821
        48                         -0.0484700              -1.3189
       ...                                ...                  ...
        67                          0.5555305              15.1168
      -------------------------------------------------------------
                  HL-Gap            0.0101530 Eh            0.2763 eV

     #   Z          covCN         q      C6AA      α(0)
     1   6 C        2.790    -0.071    29.755     8.935
     2   7 N        2.809     0.130    19.025     6.478
     3   6 C        3.039     0.024    27.421     8.589
     4   7 N        2.780    -0.059    22.386     7.027
     5   6 C        3.023     0.119    25.351     8.259
     6   6 C        3.111    -0.039    28.811     8.793
     7   6 C        2.764     0.275    22.356     7.743
     8   8 O        0.858    -0.362    20.933     6.134
     9   7 N        2.746    -0.082    22.833     7.097
    10   6 C        3.710    -0.062    21.831     6.678
    11   6 C        2.728     0.318    21.593     7.607
    12   8 O        0.860    -0.351    20.729     6.104
    13   7 N        2.738    -0.054    22.284     7.011
    14   6 C        3.696    -0.073    22.067     6.720
    15   1 H        0.926     0.136     1.491     1.910
    16   1 H        0.926     0.107     1.721     2.052
    17   1 H        0.000     0.076     5.031     4.101
    18   1 H        0.927     0.121     1.609     1.984
    19   1 H        0.925     0.115     1.653     2.011
    20   1 H        0.925     0.102     1.764     2.077
    21   1 H        0.925     0.102     1.764     2.077
    22   1 H        0.924     0.084     1.933     2.174
    23   1 H        0.924     0.086     1.920     2.167
    24   1 H        0.925     0.129     1.545     1.944
    25   1 H        0.860     0.227     0.976     1.548

Wiberg/Mayer (AO) data.
largest (>0.10) Wiberg bond orders for each atom

     #   Z sym  total        # sym  WBO       # sym  WBO       # sym  WBO
 ---------------------------------------------------------------------------
     1   6 C    3.403 --     2 N    1.334    16 H    0.967    15 H    0.955
     2   7 N    3.766 --     1 C    1.334     3 C    1.247     6 C    1.088
     3   6 C    3.639 --     2 N    1.247     4 N    1.238    18 H    0.955
     4   7 N    3.526 --     3 C    1.238     5 C    1.195    25 H    0.920
     5   6 C    3.938 --     6 C    1.349    13 N    1.217     4 N    1.195
     6   6 C    3.846 --     5 C    1.349     2 N    1.088     7 C    1.086
     7   6 C    3.959 --     8 O    1.683     9 N    1.094     6 C    1.086
     8   8 O    2.019 --     7 C    1.683     9 N    0.139
     9   7 N    3.533 --    11 C    1.125     7 C    1.094    10 C    0.972
                             8 O    0.139    12 O    0.134
    10   6 C    3.901 --     9 N    0.972    19 H    0.966    20 H    0.959
                            21 H    0.959
    11   6 C    3.958 --    12 O    1.706     9 N    1.125    13 N    1.036
    12   8 O    2.047 --    11 C    1.706     9 N    0.134    13 N    0.118
    13   7 N    3.532 --     5 C    1.217    11 C    1.036    14 C    0.975
                            12 O    0.118
    14   6 C    3.920 --    13 N    0.975    22 H    0.969    23 H    0.968
                            24 H    0.963
    15   1 H    0.981 --     1 C    0.955
    16   1 H    0.987 --     1 C    0.967
    17   1 H    0.003
    18   1 H    0.984 --     3 C    0.955
    19   1 H    0.984 --    10 C    0.966
    20   1 H    0.978 --    10 C    0.959
    21   1 H    0.978 --    10 C    0.959
    22   1 H    0.987 --    14 C    0.969
    23   1 H    0.986 --    14 C    0.968
    24   1 H    0.983 --    14 C    0.963
    25   1 H    0.948 --     4 N    0.920
 ---------------------------------------------------------------------------

molecular dipole:
                 x           y           z       tot (Debye)
 q only:        2.419      -1.810      -0.115
   full:        2.686      -2.288      -0.125       8.973

           -------------------------------------------------
          | TOTAL ENERGY              -42.108493708458 Eh   |
          | GRADIENT NORM               0.001568608415 Eh/α |
          | HOMO-LUMO GAP               0.276276953563 eV   |
           -------------------------------------------------

 * finished run on 2024/06/05 at 19:59:14.240
