   * xtb version 6.6.1 (8d0f1dd) compiled by 'conda@1efc2f54142f' on 2023-08-01
          program call               : xtb struc.xyz --opt loose --input .xc1 --gfn2

   ID    Z sym.   atoms
    1    7 N      1, 17
    2    6 C      2-6, 8, 9, 11-16, 18-23, 25, 26, 28-33
    3    8 O      7, 10, 24, 27
    4    1 H      34-72
constraining bond 35 36 to    3.2800000 Å, actual value:    1.7794252 Å

          :  Hamiltonian                  GFN2-xTB          :
 * total energy  :   -99.0020782 Eh     change       -0.4035485E-08 Eh
 * total energy  :   -99.1623478 Eh     change       -0.1602696E+00 Eh
 * total energy  :   -99.2362585 Eh     change       -0.7391070E-01 Eh
 * total energy  :   -99.2542691 Eh     change       -0.1801064E-01 Eh
 * total energy  :   -99.2572517 Eh     change       -0.2982532E-02 Eh
 * total energy  :   -99.2580483 Eh     change       -0.7966139E-03 Eh
 * total energy  :   -99.2587989 Eh     change       -0.7506157E-03 Eh
 * total energy  :   -99.2593020 Eh     change       -0.5030958E-03 Eh
 * total energy  :   -99.2601523 Eh     change       -0.8502701E-03 Eh
 * total energy  :   -99.2619853 Eh     change       -0.1833070E-02 Eh
 * total energy  :   -99.3329252 Eh     change       -0.2033993E-03 Eh
 * total energy  :   -99.3330580 Eh     change       -0.1328463E-03 Eh
 * total energy  :   -99.3332068 Eh     change       -0.1487746E-03 Eh
 * total energy  :   -99.3332685 Eh     change       -0.6168618E-04 Eh
 * total energy  :   -99.3333682 Eh     change       -0.9974969E-04 Eh
 * total energy  :   -99.3334578 Eh     change       -0.8953817E-04 Eh
 * total energy  :   -99.3335326 Eh     change       -0.7485060E-04 Eh
 * total energy  :   -99.3335949 Eh     change       -0.6226435E-04 Eh
 * total energy  :   -99.3336415 Eh     change       -0.4659592E-04 Eh
   *** GEOMETRY OPTIMIZATION CONVERGED AFTER 51 ITERATIONS ***

 final structure:
================
72
 xtb: 6.6.1 (8d0f1dd)
N           -2.08456150483963        2.74112037528893        2.23138507519523
C           -1.95055148755512        2.10387379848598        1.16496540335820
C           -3.04723050632051        1.88248754705385        0.15737387382067
C           -3.50839048214623        0.43778768680593        0.22014846234867
C           -4.52309151174929       -0.01685072611242       -0.78299977181855
C           -5.03048557921342       -1.39877603682768       -0.54454020818022
O           -6.14281371068137       -1.74942626029562       -1.16210625009064
C           -6.72874536311138       -1.00873766513297       -2.05954258844364
C           -4.46531970864080       -2.27041911169800        0.40881126753573
O           -4.99921419170344       -3.50978677387625        0.44703457926239
C           -4.51987692089757       -4.42712818069952        1.40337844234660
C           -3.45511097137488       -1.79194642219416        1.22256778654542
C           -3.03688958330332       -0.44152116191038        1.13709993001266
C           -2.42087408262591        2.18332143992128       -1.23067256316428
C           -1.41536976409128        1.12738465490191       -1.72545221390990
C           -0.11688747158621        1.13843992799721       -1.01076560702327
N            0.54247895145177        0.05050424831807       -0.61224526735219
C            1.92431844215788        0.13924665683897       -0.20558972405444
C            2.87767512432881       -0.29614914177549       -1.33588311447663
C            4.30433073234500       -0.10987221147957       -0.90302565547759
C            4.95479327127690        1.09338039505007       -1.11825668057341
C            6.26114727018466        1.27988361922809       -0.69296370189874
C            6.94195794680245        0.26450580710752       -0.03779010659810
O            8.20783761558016        0.33423243539813        0.41761913106501
C            8.94240311844051        1.52013048183705        0.22041006488158
C            6.28192903596664       -0.97395713034262        0.18933746550443
O            7.01793853914592       -1.90754971705015        0.82748058458142
C            6.45914162905587       -3.17587350075820        1.07068008133373
C            4.97564465679654       -1.13658583158152       -0.24273103068467
C           -0.04026032748473       -1.26753596351358       -0.68086958908412
C           -4.27719434931078        2.81435510095689        0.38927850642027
C           -5.00984179050856        2.45100776618494        1.67906339726288
C           -3.91978677991468        4.29781881615612        0.40120262150827
H           -4.11274174683441        0.06466853552263       -1.80246243064126
H           -5.44491006569092        0.59757136577070       -0.79655591275842
H           -7.72040808798776       -1.30084193943751       -2.30664797118089
H           -6.29749932873929       -0.13157185281030       -2.50269623351557
H           -4.67535870087200       -4.06124094510091        2.42174414763399
H           -5.10014676694407       -5.33515174656320        1.25211411641274
H           -3.45910223766774       -4.64435594788822        1.24915878548440
H           -3.01077589007496       -2.41818009687424        1.97658136070042
H           -2.31577447425815       -0.11114584755566        1.87007977101991
H           -3.22196685989761        2.26306214250159       -1.96558738849892
H           -1.92034969070366        3.15092531555235       -1.18485699082596
H           -1.86551510977910        0.13778667828206       -1.69188971014419
H           -1.20828888748350        1.36493706870681       -2.77772527059337
H           -0.99135743893300        1.66643825220531        0.82231800683823
H            0.42641444492956        2.07051547623303       -0.97154990111191
H            2.08404301846300       -0.49613857428136        0.66970299011553
H            2.15446086155542        1.16919607854931        0.07398145639736
H            2.67360057040761        0.31257276173963       -2.21848048698490
H            2.69351755423166       -1.34156561225104       -1.58646627284382
H            4.44960725297230        1.89635680483434       -1.63333958865817
H            6.74352647356381        2.22464650536978       -0.88224360063234
H            8.47268754297626        2.37092370520665        0.72356115984956
H            9.06198537165056        1.74497296990744       -0.84372625702163
H            9.91963389385478        1.33489204058503        0.66199206471546
H            7.23859610843848       -3.74740148324002        1.57081035146549
H            5.58365191300370       -3.11064620556080        1.72497664959077
H            6.18366866883574       -3.67909693694149        0.13849171358460
H            4.46782397435694       -2.07472068333654       -0.08158940080139
H           -0.14125497804819       -1.60561905294664       -1.71526429272312
H           -1.02578301700507       -1.27320118680986       -0.20949981386515
H            0.59970357639915       -1.96820704889284       -0.15021632404559
H           -4.95732420242634        2.65062196424542       -0.45471607405495
H           -4.36923733586105        2.64681570144744        2.53250174567952
H           -5.29556319242781        1.40188439008592        1.69310866124827
H           -5.90907640414851        3.05406050246951        1.77246887186277
H           -3.21962978433988        4.51533265887327        1.20162566495480
H           -3.49541335031277        4.62027672777923       -0.54630068912051
H           -4.82297456828209        4.87712215545425        0.57463521149998
H           -1.26505375638498        2.85027995939499        2.82082412341800

          :  Hamiltonian                  GFN2-xTB          :
         :: total energy             -99.333641488751 Eh    ::
         :: gradient norm              0.002402546828 Eh/a0 ::
         :: HOMO-LUMO gap              1.158870833368 eV    ::
         :: SCC energy              -100.698298831021 Eh    ::
         :: -> dispersion             -0.075190602057 Eh    ::
         :: repulsion energy           1.363112093821 Eh    ::

    * Orbital Energies and Occupations

         #    Occupation            Energy/Eh            Energy/eV
      -------------------------------------------------------------
         1        2.0000           -0.8504159             -23.1410
       ...           ...                  ...                  ...
        78        1.9991           -0.5301047             -14.4249
        79        1.9989           -0.5274469             -14.3526
        80        1.9988           -0.5266410             -14.3306
        81        1.9986           -0.5235874             -14.2475
        82        1.9976           -0.5154672             -14.0266
        83        1.9975           -0.5147204             -14.0063
        84        1.9972           -0.5128548             -13.9555
        85        1.9969           -0.5114493             -13.9172
        86        1.9815           -0.4828795             -13.1398
        87        1.9793           -0.4810376             -13.0897
        88        1.9569           -0.4692969             -12.7702
        89        1.8656           -0.4505121             -12.2591
        90        1.6146           -0.4315447             -11.7429 (HOMO)
        91        0.4429           -0.3889569             -10.5841 (LUMO)
        92        0.1498           -0.3690664             -10.0428
        93        0.0208           -0.3367607              -9.1637
        94        0.0036           -0.3086942              -8.4000
        95        0.0032           -0.3067132              -8.3461
        96        0.0027           -0.3042146              -8.2781
        97        0.0000           -0.2279989              -6.2042
        98        0.0000           -0.1816101              -4.9419
        99                         -0.1300577              -3.5390
       100                         -0.0760027              -2.0681
       101                         -0.0669369              -1.8214
       ...                                ...                  ...
       171                          0.5827641              15.8578
      -------------------------------------------------------------
                  HL-Gap            0.0425877 Eh            1.1589 eV

     #   Z          covCN         q      C6AA      α(0)
     1   7 N        1.773    -0.272    27.877     7.819
     2   6 C        2.826     0.098    25.824     8.327
     3   6 C        3.906     0.006    20.426     6.424
     4   6 C        2.959    -0.007    28.194     8.709
     5   6 C        3.809    -0.072    21.874     6.657
     6   6 C        2.884     0.082    26.178     8.388
     7   8 O        1.711    -0.080    15.550     5.324
     8   6 C        2.758    -0.003    28.070     8.676
     9   6 C        2.850     0.133    25.080     8.208
    10   8 O        1.706    -0.241    17.990     5.727
    11   6 C        3.646     0.027    20.447     6.498
    12   6 C        2.912    -0.091    30.272     9.022
    13   6 C        2.906    -0.049    29.226     8.864
    14   6 C        3.811    -0.066    21.754     6.639
    15   6 C        3.802    -0.068    21.794     6.647
    16   6 C        2.841    -0.000    28.030     8.676
    17   7 N        2.729     0.003    21.209     6.840
    18   6 C        3.755    -0.015    20.903     6.519
    19   6 C        3.808    -0.070    21.833     6.652
    20   6 C        2.969    -0.001    28.061     8.689
    21   6 C        2.922    -0.050    29.233     8.867
    22   6 C        2.914    -0.068    29.698     8.936
    23   6 C        2.865     0.132    25.104     8.213
    24   8 O        1.706    -0.225    17.736     5.686
    25   6 C        3.645     0.026    20.470     6.502
    26   6 C        2.863     0.132    25.112     8.214
    27   8 O        1.706    -0.228    17.780     5.693
    28   6 C        3.645     0.028    20.433     6.497
    29   6 C        2.920    -0.080    30.002     8.982
    30   6 C        3.699    -0.069    21.993     6.707
    31   6 C        3.852    -0.007    20.673     6.467
    32   6 C        3.756    -0.120    22.862     6.818
    33   6 C        3.755    -0.118    22.814     6.811
    34   1 H        0.923     0.062     2.180     2.309
    35   1 H        0.922     0.074     2.045     2.237
    36   1 H        0.927     0.083     1.943     2.180
    37   1 H        0.926     0.055     2.261     2.351
    38   1 H        0.924     0.055     2.256     2.349
    39   1 H        0.925     0.080     1.975     2.198
    40   1 H        0.924     0.049     2.336     2.390
    41   1 H        0.926     0.050     2.319     2.381
    42   1 H        0.926     0.041     2.436     2.441
    43   1 H        0.925     0.055     2.261     2.352
    44   1 H        0.924     0.054     2.266     2.354
    45   1 H        0.925     0.061     2.185     2.312
    46   1 H        0.923     0.074     2.039     2.233
    47   1 H        0.922     0.009     2.910     2.668
    48   1 H        0.926     0.065     2.137     2.286
    49   1 H        0.924     0.065     2.141     2.288
    50   1 H        0.924     0.066     2.128     2.281
    51   1 H        0.924     0.053     2.280     2.362
    52   1 H        0.924     0.054     2.273     2.357
    53   1 H        0.926     0.043     2.404     2.424
    54   1 H        0.926     0.057     2.237     2.339
    55   1 H        0.924     0.053     2.288     2.365
    56   1 H        0.924     0.054     2.267     2.355
    57   1 H        0.925     0.081     1.971     2.196
    58   1 H        0.925     0.080     1.977     2.199
    59   1 H        0.924     0.047     2.359     2.402
    60   1 H        0.924     0.051     2.310     2.377
    61   1 H        0.926     0.045     2.380     2.413
    62   1 H        0.924     0.072     2.068     2.249
    63   1 H        0.924     0.078     1.996     2.209
    64   1 H        0.925     0.077     2.008     2.216
    65   1 H        0.924     0.031     2.569     2.506
    66   1 H        0.925     0.071     2.071     2.250
    67   1 H        0.925     0.034     2.531     2.488
    68   1 H        0.925     0.049     2.329     2.386
    69   1 H        0.925     0.060     2.204     2.322
    70   1 H        0.925     0.034     2.533     2.489
    71   1 H        0.925     0.054     2.272     2.357
    72   1 H        0.860     0.156     1.359     1.826

Wiberg/Mayer (AO) data.
largest (>0.10) Wiberg bond orders for each atom

     #   Z sym  total        # sym  WBO       # sym  WBO       # sym  WBO
 ---------------------------------------------------------------------------
     1   7 N    3.039 --     2 C    1.955    72 H    0.942
     2   6 C    3.921 --     1 N    1.955     3 C    0.992    47 H    0.896
     3   6 C    3.978 --     2 C    0.992     4 C    0.979    14 C    0.955
                            31 C    0.938
     4   6 C    3.838 --    13 C    1.636     5 C    1.022     3 C    0.979
     5   6 C    3.987 --     6 C    1.023     4 C    1.022    34 H    0.924
                            35 H    0.916
     6   6 C    3.777 --     9 C    1.248     7 O    1.167     5 C    1.023
                             8 C    0.216
     7   8 O    2.545 --     8 C    1.262     6 C    1.167
     8   6 C    3.575 --     7 O    1.262    36 H    0.970    37 H    0.966
                             6 C    0.216
     9   6 C    3.895 --    12 C    1.398     6 C    1.248    10 O    1.094
    10   8 O    2.254 --     9 C    1.094    11 C    0.975
    11   6 C    3.932 --    39 H    0.977    10 O    0.975    40 H    0.975
                            38 H    0.975
    12   6 C    3.811 --     9 C    1.398    13 C    1.250    41 H    0.966
    13   6 C    3.968 --     4 C    1.636    12 C    1.250    42 H    0.959
    14   6 C    3.968 --    15 C    0.984    44 H    0.972    43 H    0.971
                             3 C    0.955
    15   6 C    3.988 --    16 C    1.055    14 C    0.984    45 H    0.962
                            46 H    0.931
    16   6 C    3.562 --    17 N    1.375    15 C    1.055    48 H    0.958
    17   7 N    3.454 --    16 C    1.375    30 C    1.000    18 C    0.990
    18   6 C    3.956 --    17 N    0.990    50 H    0.968    19 C    0.966
                            49 H    0.965
    19   6 C    3.976 --    20 C    1.008    51 H    0.972    52 H    0.972
                            18 C    0.966
    20   6 C    3.949 --    21 C    1.413    29 C    1.378    19 C    1.008
    21   6 C    3.954 --    22 C    1.415    20 C    1.413    53 H    0.968
    22   6 C    3.962 --    21 C    1.415    23 C    1.387    54 H    0.963
    23   6 C    3.900 --    22 C    1.387    26 C    1.223    24 O    1.106
    24   8 O    2.255 --    23 C    1.106    25 C    0.977
    25   6 C    3.930 --    57 H    0.977    24 O    0.977    55 H    0.973
                            56 H    0.973
    26   6 C    3.903 --    29 C    1.398    23 C    1.223    27 O    1.099
    27   8 O    2.254 --    26 C    1.099    28 C    0.980
    28   6 C    3.934 --    27 O    0.980    58 H    0.977    59 H    0.974
                            60 H    0.974
    29   6 C    3.961 --    26 C    1.398    20 C    1.378    61 H    0.963
    30   6 C    3.960 --    17 N    1.000    64 H    0.977    62 H    0.967
                            63 H    0.961
    31   6 C    3.972 --    33 C    1.010    32 C    1.009    65 H    0.960
                             3 C    0.938
    32   6 C    3.982 --    31 C    1.009    68 H    0.982    67 H    0.982
                            66 H    0.975
    33   6 C    3.986 --    31 C    1.010    70 H    0.983    71 H    0.980
                            69 H    0.978
    34   1 H    0.971 --     5 C    0.924
    35   1 H    0.975 --     5 C    0.916
    36   1 H    0.992 --     8 C    0.970
    37   1 H    0.997 --     8 C    0.966
    38   1 H    0.994 --    11 C    0.975
    39   1 H    0.993 --    11 C    0.977
    40   1 H    0.995 --    11 C    0.975
    41   1 H    0.996 --    12 C    0.966
    42   1 H    0.998 --    13 C    0.959
    43   1 H    0.996 --    14 C    0.971
    44   1 H    0.996 --    14 C    0.972
    45   1 H    0.996 --    15 C    0.962
    46   1 H    0.969 --    15 C    0.931
    47   1 H    0.990 --     2 C    0.896
    48   1 H    0.995 --    16 C    0.958
    49   1 H    0.991 --    18 C    0.965
    50   1 H    0.994 --    18 C    0.968
    51   1 H    0.996 --    19 C    0.972
    52   1 H    0.996 --    19 C    0.972
    53   1 H    0.998 --    21 C    0.968
    54   1 H    0.995 --    22 C    0.963
    55   1 H    0.993 --    25 C    0.973
    56   1 H    0.992 --    25 C    0.973
    57   1 H    0.993 --    25 C    0.977
    58   1 H    0.993 --    28 C    0.977
    59   1 H    0.994 --    28 C    0.974
    60   1 H    0.994 --    28 C    0.974
    61   1 H    0.997 --    29 C    0.963
    62   1 H    0.984 --    30 C    0.967
    63   1 H    0.987 --    30 C    0.961
    64   1 H    0.994 --    30 C    0.977
    65   1 H    0.995 --    31 C    0.960
    66   1 H    0.992 --    32 C    0.975
    67   1 H    0.998 --    32 C    0.982
    68   1 H    0.995 --    32 C    0.982
    69   1 H    0.994 --    33 C    0.978
    70   1 H    0.998 --    33 C    0.983
    71   1 H    0.994 --    33 C    0.980
    72   1 H    0.971 --     1 N    0.942
 ---------------------------------------------------------------------------

molecular dipole:
                 x           y           z       tot (Debye)
 q only:       -0.349      -0.288      -0.912
   full:       -0.047      -0.352      -1.147       3.053

           -------------------------------------------------
          | TOTAL ENERGY              -99.333641488751 Eh   |
          | GRADIENT NORM               0.002402546828 Eh/α |
          | HOMO-LUMO GAP               1.158870833368 eV   |
           -------------------------------------------------

 * finished run on 2024/04/06 at 11:15:04.150
