   * xtb version 6.6.1 (8d0f1dd) compiled by 'conda@1efc2f54142f' on 2023-08-01
          program call               : xtb xtbopt.xyz --opt crude --input .xc2 --gfn2

   ID    Z sym.   atoms
    1    7 N      1, 17
    2    6 C      2-6, 8, 9, 11-16, 18-23, 25, 26, 28-33
    3    8 O      7, 10, 24, 27
    4    1 H      34-72
########################################################################
[WARNING] Please study the warnings concerning your input carefully
-1- readin_getIntValue: could not parse ''
########################################################################

          :  Hamiltonian                  GFN2-xTB          :
 * total energy  :   -99.3340192 Eh     change       -0.2192735E-10 Eh
 * total energy  :   -99.3358541 Eh     change       -0.1834844E-02 Eh
 * total energy  :   -99.3367284 Eh     change       -0.8742951E-03 Eh
 * total energy  :   -99.3371519 Eh     change       -0.4235568E-03 Eh
   *** GEOMETRY OPTIMIZATION CONVERGED AFTER 4 ITERATIONS ***

 final structure:
================
72
 xtb: 6.6.1 (8d0f1dd)
N           -2.07636431360195        2.74084175338555        2.23952396548312
C           -1.93713488962669        2.10864522031196        1.17089795732578
C           -3.03283441692324        1.88740788271915        0.16255688724342
C           -3.48900906612983        0.44092641845957        0.22497108424772
C           -4.53430646990080        0.01368573945316       -0.76340121105315
C           -5.07348684903586       -1.36282582417668       -0.52990945248606
O           -6.15102910598402       -1.77846863785846       -1.17577785317819
C           -6.79688319260618       -1.11830454873681       -2.09389058686287
C           -4.49082484204974       -2.24438102224870        0.41013450505896
O           -5.01674855383103       -3.48839211155698        0.43683674739251
C           -4.53688303177520       -4.41012322249590        1.39083780168048
C           -3.46520025998997       -1.78727774365141        1.21505487873837
C           -3.02316904611612       -0.44332840850104        1.13679163027372
C           -2.41210313903464        2.18621098217854       -1.22843278817914
C           -1.41432051328395        1.12465486063582       -1.72560114901525
C           -0.11377659360238        1.13663807243558       -1.01555215081407
N            0.54614677501145        0.05081696089617       -0.61293834953745
C            1.92768611516807        0.14316765824028       -0.20665810320960
C            2.88111386491290       -0.29427402712811       -1.33586583763103
C            4.30745157485119       -0.10779073585514       -0.90232356922048
C            4.95769701705072        1.09579367250952       -1.11588908922856
C            6.26403868393354        1.28178256476468       -0.69033056417510
C            6.94471643561001        0.26572632819496       -0.03615417468245
O            8.21088486851862        0.33475267273030        0.41882532978373
C            8.94593870648009        1.52018160051559        0.22085536949150
C            6.28444202962809       -0.97264526793464        0.19028366119211
O            7.01986080319313       -1.90670584519500        0.82860237132328
C            6.46051495648952       -3.17509702840446        1.07015719547074
C            4.97847389082343       -1.13496711028824       -0.24254591551663
C           -0.03355624076610       -1.26860736882414       -0.68121689342131
C           -4.26076212250343        2.82338552317955        0.39632730263308
C           -5.00029783260644        2.46029869506040        1.68225425062901
C           -3.89996419594432        4.30570393547117        0.41132643434008
H           -4.14763045600169        0.08682473570088       -1.79238604330159
H           -5.37591828765864        0.72125689920164       -0.71286071425765
H           -7.71177253477756       -1.57714938719366       -2.44034450652941
H           -6.46880246621003       -0.16005758869596       -2.47386767833545
H           -4.69103815049718       -4.04625612533382        2.41062091809583
H           -5.11852119250884       -5.31693099870959        1.23868927023706
H           -3.47608941904750       -4.63057915707622        1.23627336863201
H           -3.01606049912478       -2.42831730140812        1.95340899141021
H           -2.29185239553887       -0.12880280495825        1.86693112477178
H           -3.21658852864242        2.26833117957044       -1.95949596802088
H           -1.90746265888904        3.15178100744129       -1.18659849229688
H           -1.86857325102472        0.13694621018063       -1.68482638287595
H           -1.21184382582429        1.35592245356287       -2.78026898524155
H           -0.97792107579174        1.67170405354265        0.83006934033127
H            0.42737656553858        2.06996444362757       -0.97684039545078
H            2.08859155268601       -0.48891364621659        0.67083825341679
H            2.15584707191240        1.17456177108577        0.06921927952632
H            2.67760615385718        0.31301219149268       -2.21958717099639
H            2.69671739424912       -1.34008302708083       -1.58457503907649
H            4.45247458091246        1.89941217279998       -1.62995590686253
H            6.74646776102242        2.22668940068792       -0.87873633908340
H            8.47740327512283        2.37121980918060        0.72465895697758
H            9.06436475698811        1.74505552200591       -0.84340629651501
H            9.92357937094063        1.33426219526945        0.66120433977107
H            7.23957060735690       -3.74749976890828        1.56987210504173
H            5.58483088121009       -3.11029164565733        1.72426795536236
H            6.18509469308715       -3.67714205121921        0.13733298827552
H            4.47048650701642       -2.07318890599096       -0.08238410189254
H           -0.13239468366536       -1.60759457310062       -1.71531959813035
H           -1.01968456384085       -1.27614773861797       -0.21135320040802
H            0.60711864125795       -1.96712216792028       -0.14881986504381
H           -4.93918209762748        2.67066919803134       -0.45110814042931
H           -4.36338322702014        2.65389547432834        2.53862113693458
H           -5.29045942435079        1.41241080612589        1.69624571960412
H           -5.89789522032836        3.06685622148244        1.77145702692925
H           -3.20442182047524        4.52150767129532        1.21556352807010
H           -3.47065513807955        4.62728366823832       -0.53376564920562
H           -4.80367416504573        4.88594573778979        0.57964962704504
H           -1.25950018053589        2.84727194966852        2.83309170202706

          :  Hamiltonian                  GFN2-xTB          :
         :: total energy             -99.337151926428 Eh    ::
         :: gradient norm              0.008702818166 Eh/a0 ::
         :: HOMO-LUMO gap              1.140924243467 eV    ::
         :: SCC energy              -100.697132783825 Eh    ::
         :: -> dispersion             -0.075112756317 Eh    ::
         :: repulsion energy           1.358834684063 Eh    ::

    * Orbital Energies and Occupations

         #    Occupation            Energy/Eh            Energy/eV
      -------------------------------------------------------------
         1        2.0000           -0.8492186             -23.1084
       ...           ...                  ...                  ...
        78        1.9991           -0.5298209             -14.4172
        79        1.9989           -0.5270563             -14.3419
        80        1.9988           -0.5260588             -14.3148
        81        1.9986           -0.5231249             -14.2350
        82        1.9978           -0.5156514             -14.0316
        83        1.9975           -0.5142685             -13.9940
        84        1.9974           -0.5130835             -13.9617
        85        1.9971           -0.5115595             -13.9202
        86        1.9818           -0.4823821             -13.1263
        87        1.9804           -0.4812463             -13.0954
        88        1.9580           -0.4689640             -12.7612
        89        1.8675           -0.4500233             -12.2458
        90        1.6038           -0.4302711             -11.7083 (HOMO)
        91        0.4455           -0.3883429             -10.5673 (LUMO)
        92        0.1524           -0.3686193             -10.0306
        93        0.0212           -0.3362904              -9.1509
        94        0.0035           -0.3078144              -8.3761
        95        0.0032           -0.3061836              -8.3317
        96        0.0027           -0.3036881              -8.2638
        97        0.0000           -0.2269544              -6.1757
        98        0.0000           -0.1810577              -4.9268
        99                         -0.1293501              -3.5198
       100                         -0.0772080              -2.1009
       101                         -0.0678078              -1.8451
       ...                                ...                  ...
       171                          0.5833922              15.8749
      -------------------------------------------------------------
                  HL-Gap            0.0419282 Eh            1.1409 eV

     #   Z          covCN         q      C6AA      α(0)
     1   7 N        1.774    -0.272    27.889     7.820
     2   6 C        2.826     0.098    25.824     8.327
     3   6 C        3.906     0.005    20.432     6.425
     4   6 C        2.959    -0.008    28.216     8.713
     5   6 C        3.809    -0.074    21.901     6.662
     6   6 C        2.866     0.081    26.184     8.388
     7   8 O        1.711    -0.077    15.509     5.317
     8   6 C        2.741     0.001    27.979     8.661
     9   6 C        2.850     0.134    25.074     8.207
    10   8 O        1.706    -0.242    18.002     5.729
    11   6 C        3.645     0.027    20.453     6.500
    12   6 C        2.911    -0.090    30.271     9.022
    13   6 C        2.905    -0.049    29.218     8.863
    14   6 C        3.811    -0.066    21.754     6.639
    15   6 C        3.802    -0.068    21.793     6.646
    16   6 C        2.842    -0.001    28.035     8.677
    17   7 N        2.729     0.003    21.209     6.840
    18   6 C        3.756    -0.015    20.902     6.519
    19   6 C        3.808    -0.070    21.833     6.651
    20   6 C        2.969    -0.002    28.063     8.689
    21   6 C        2.922    -0.050    29.235     8.867
    22   6 C        2.914    -0.068    29.700     8.936
    23   6 C        2.865     0.132    25.106     8.213
    24   8 O        1.706    -0.226    17.741     5.687
    25   6 C        3.645     0.026    20.468     6.502
    26   6 C        2.863     0.132    25.114     8.214
    27   8 O        1.706    -0.228    17.784     5.694
    28   6 C        3.645     0.028    20.431     6.497
    29   6 C        2.920    -0.080    30.004     8.983
    30   6 C        3.699    -0.069    21.992     6.707
    31   6 C        3.852    -0.007    20.672     6.467
    32   6 C        3.756    -0.120    22.862     6.817
    33   6 C        3.755    -0.118    22.814     6.811
    34   1 H        0.923     0.062     2.177     2.308
    35   1 H        0.923     0.076     2.021     2.223
    36   1 H        0.926     0.085     1.923     2.169
    37   1 H        0.925     0.053     2.283     2.363
    38   1 H        0.924     0.055     2.256     2.349
    39   1 H        0.925     0.080     1.977     2.199
    40   1 H        0.924     0.049     2.337     2.391
    41   1 H        0.926     0.050     2.321     2.382
    42   1 H        0.926     0.040     2.444     2.445
    43   1 H        0.925     0.054     2.265     2.354
    44   1 H        0.924     0.054     2.269     2.355
    45   1 H        0.925     0.061     2.183     2.310
    46   1 H        0.923     0.074     2.040     2.234
    47   1 H        0.922     0.008     2.919     2.672
    48   1 H        0.926     0.065     2.138     2.287
    49   1 H        0.924     0.065     2.142     2.289
    50   1 H        0.924     0.066     2.129     2.282
    51   1 H        0.924     0.053     2.281     2.362
    52   1 H        0.924     0.054     2.274     2.358
    53   1 H        0.926     0.043     2.406     2.426
    54   1 H        0.926     0.057     2.239     2.340
    55   1 H        0.924     0.052     2.289     2.366
    56   1 H        0.924     0.054     2.269     2.356
    57   1 H        0.925     0.081     1.973     2.197
    58   1 H        0.925     0.080     1.978     2.200
    59   1 H        0.924     0.047     2.360     2.402
    60   1 H        0.924     0.051     2.312     2.378
    61   1 H        0.926     0.045     2.382     2.413
    62   1 H        0.924     0.072     2.068     2.249
    63   1 H        0.924     0.078     1.996     2.209
    64   1 H        0.925     0.077     2.008     2.216
    65   1 H        0.924     0.031     2.574     2.509
    66   1 H        0.925     0.071     2.069     2.249
    67   1 H        0.925     0.034     2.533     2.489
    68   1 H        0.925     0.049     2.333     2.388
    69   1 H        0.925     0.060     2.202     2.320
    70   1 H        0.925     0.034     2.531     2.488
    71   1 H        0.925     0.054     2.275     2.359
    72   1 H        0.860     0.156     1.361     1.827

Wiberg/Mayer (AO) data.
largest (>0.10) Wiberg bond orders for each atom

     #   Z sym  total        # sym  WBO       # sym  WBO       # sym  WBO
 ---------------------------------------------------------------------------
     1   7 N    3.038 --     2 C    1.955    72 H    0.943
     2   6 C    3.922 --     1 N    1.955     3 C    0.993    47 H    0.897
     3   6 C    3.979 --     2 C    0.993     4 C    0.979    14 C    0.955
                            31 C    0.938
     4   6 C    3.838 --    13 C    1.642     5 C    1.020     3 C    0.979
     5   6 C    3.987 --     4 C    1.020     6 C    1.018    34 H    0.926
                            35 H    0.922
     6   6 C    3.769 --     9 C    1.243     7 O    1.167     5 C    1.018
                             8 C    0.221
     7   8 O    2.552 --     8 C    1.272     6 C    1.167
     8   6 C    3.571 --     7 O    1.272    37 H    0.968    36 H    0.968
                             6 C    0.221
     9   6 C    3.894 --    12 C    1.403     6 C    1.243    10 O    1.094
    10   8 O    2.253 --     9 C    1.094    11 C    0.975
    11   6 C    3.932 --    39 H    0.977    10 O    0.975    40 H    0.975
                            38 H    0.975
    12   6 C    3.808 --     9 C    1.403    13 C    1.244    41 H    0.966
    13   6 C    3.967 --     4 C    1.642    12 C    1.244    42 H    0.959
    14   6 C    3.968 --    15 C    0.984    44 H    0.972    43 H    0.971
                             3 C    0.955
    15   6 C    3.988 --    16 C    1.055    14 C    0.984    45 H    0.962
                            46 H    0.931
    16   6 C    3.560 --    17 N    1.375    15 C    1.055    48 H    0.958
    17   7 N    3.453 --    16 C    1.375    30 C    1.000    18 C    0.990
    18   6 C    3.957 --    17 N    0.990    50 H    0.968    19 C    0.966
                            49 H    0.965
    19   6 C    3.976 --    20 C    1.008    51 H    0.972    52 H    0.972
                            18 C    0.966
    20   6 C    3.949 --    21 C    1.413    29 C    1.378    19 C    1.008
    21   6 C    3.954 --    22 C    1.415    20 C    1.413    53 H    0.968
    22   6 C    3.963 --    21 C    1.415    23 C    1.387    54 H    0.963
    23   6 C    3.900 --    22 C    1.387    26 C    1.224    24 O    1.106
    24   8 O    2.255 --    23 C    1.106    25 C    0.977
    25   6 C    3.930 --    57 H    0.977    24 O    0.977    55 H    0.973
                            56 H    0.973
    26   6 C    3.904 --    29 C    1.398    23 C    1.224    27 O    1.099
    27   8 O    2.254 --    26 C    1.099    28 C    0.980
    28   6 C    3.934 --    27 O    0.980    58 H    0.977    59 H    0.974
                            60 H    0.974
    29   6 C    3.962 --    26 C    1.398    20 C    1.378    61 H    0.963
    30   6 C    3.960 --    17 N    1.000    64 H    0.978    62 H    0.967
                            63 H    0.961
    31   6 C    3.971 --    33 C    1.010    32 C    1.009    65 H    0.957
                             3 C    0.938
    32   6 C    3.983 --    31 C    1.009    68 H    0.983    67 H    0.982
                            66 H    0.975
    33   6 C    3.987 --    31 C    1.010    70 H    0.983    71 H    0.980
                            69 H    0.978
    34   1 H    0.971 --     5 C    0.926
    35   1 H    0.974 --     5 C    0.922
    36   1 H    0.992 --     8 C    0.968
    37   1 H    0.997 --     8 C    0.968
    38   1 H    0.994 --    11 C    0.975
    39   1 H    0.993 --    11 C    0.977
    40   1 H    0.995 --    11 C    0.975
    41   1 H    0.996 --    12 C    0.966
    42   1 H    0.998 --    13 C    0.959
    43   1 H    0.996 --    14 C    0.971
    44   1 H    0.996 --    14 C    0.972
    45   1 H    0.996 --    15 C    0.962
    46   1 H    0.969 --    15 C    0.931
    47   1 H    0.990 --     2 C    0.897
    48   1 H    0.995 --    16 C    0.958
    49   1 H    0.991 --    18 C    0.965
    50   1 H    0.995 --    18 C    0.968
    51   1 H    0.996 --    19 C    0.972
    52   1 H    0.996 --    19 C    0.972
    53   1 H    0.998 --    21 C    0.968
    54   1 H    0.995 --    22 C    0.963
    55   1 H    0.993 --    25 C    0.973
    56   1 H    0.992 --    25 C    0.973
    57   1 H    0.993 --    25 C    0.977
    58   1 H    0.993 --    28 C    0.977
    59   1 H    0.994 --    28 C    0.974
    60   1 H    0.994 --    28 C    0.974
    61   1 H    0.997 --    29 C    0.963
    62   1 H    0.984 --    30 C    0.967
    63   1 H    0.987 --    30 C    0.961
    64   1 H    0.994 --    30 C    0.978
    65   1 H    0.995 --    31 C    0.957
    66   1 H    0.992 --    32 C    0.975
    67   1 H    0.998 --    32 C    0.982
    68   1 H    0.995 --    32 C    0.983
    69   1 H    0.994 --    33 C    0.978
    70   1 H    0.998 --    33 C    0.983
    71   1 H    0.994 --    33 C    0.980
    72   1 H    0.971 --     1 N    0.943
 ---------------------------------------------------------------------------

molecular dipole:
                 x           y           z       tot (Debye)
 q only:       -0.460      -0.328      -0.945
   full:       -0.166      -0.373      -1.178       3.169

           -------------------------------------------------
          | TOTAL ENERGY              -99.337151926428 Eh   |
          | GRADIENT NORM               0.008702818166 Eh/α |
          | HOMO-LUMO GAP               1.140924243467 eV   |
           -------------------------------------------------

 * finished run on 2024/04/06 at 11:15:05.128
