   * xtb version 6.6.1 (8d0f1dd) compiled by 'conda@1efc2f54142f' on 2023-08-01
          program call               : xtb struc.xyz --opt loose --input .xc1 --gfn2

   ID    Z sym.   atoms
    1    7 N      1, 17
    2    6 C      2-6, 8, 9, 11-16, 18-23, 25, 26, 28-33
    3    8 O      7, 10, 24, 27
    4    1 H      34-72
constraining bond 16 50 to    3.7133300 Å, actual value:    2.5083486 Å

          :  Hamiltonian                  GFN2-xTB          :
 * total energy  :   -99.6633866 Eh     change       -0.4035485E-08 Eh
 * total energy  :   -99.9606342 Eh     change       -0.2972476E+00 Eh
 * total energy  :  -100.2959885 Eh     change       -0.3353543E+00 Eh
 * total energy  :  -100.3807163 Eh     change       -0.8472786E-01 Eh
 * total energy  :  -100.4683570 Eh     change       -0.8764068E-01 Eh
 * total energy  :  -100.5322341 Eh     change       -0.6387710E-01 Eh
 * total energy  :  -100.5564645 Eh     change       -0.2423034E-01 Eh
 * total energy  :  -100.6269751 Eh     change       -0.7051064E-01 Eh
 * total energy  :  -100.6626817 Eh     change       -0.3570665E-01 Eh
 * total energy  :  -100.7029002 Eh     change       -0.4021847E-01 Eh
 * total energy  :  -100.8287777 Eh     change       -0.2283029E-03 Eh
 * total energy  :  -100.8289768 Eh     change       -0.1991189E-03 Eh
 * total energy  :  -100.8291107 Eh     change       -0.1339324E-03 Eh
 * total energy  :  -100.8292529 Eh     change       -0.1421698E-03 Eh
 * total energy  :  -100.8293712 Eh     change       -0.1183145E-03 Eh
 * total energy  :  -100.8294870 Eh     change       -0.1157480E-03 Eh
 * total energy  :  -100.8295805 Eh     change       -0.9351396E-04 Eh
 * total energy  :  -100.8296516 Eh     change       -0.7107820E-04 Eh
 * total energy  :  -100.8296965 Eh     change       -0.4498291E-04 Eh
   *** GEOMETRY OPTIMIZATION CONVERGED AFTER 105 ITERATIONS ***

 final structure:
================
72
 xtb: 6.6.1 (8d0f1dd)
N           -0.55041693236211        2.35253054621341        1.68502160588981
C           -1.79956742477381        2.24869617135107        1.62389258982375
C           -2.51784399832997        1.90226345644684        0.34814724656142
C           -3.20390380679079        0.55297915935860        0.47840994492985
C           -4.03608987720695        0.10160781502898       -0.54906260119445
C           -4.66590264543233       -1.12931131189963       -0.48385666514073
O           -5.47956009432669       -1.63979421929259       -1.43089910612762
C           -5.78430831115750       -0.86450280833931       -2.56652055415241
C           -4.46375496752684       -1.95805243207339        0.65328407718362
O           -5.11717100523401       -3.13816562206922        0.63229799825934
C           -5.02968256806039       -3.99097484572626        1.74934024152354
C           -3.62763968229268       -1.51054066379589        1.66299722477112
C           -3.00083672367651       -0.27344047956547        1.57215505558784
C           -1.54867450979102        1.89054443660430       -0.86341351430410
C           -0.84269277648824        0.56424835962366       -1.15254930716975
C            0.23061903845622        0.24440591337320       -0.08472997312975
N            0.72742285652622       -1.11964034879752       -0.27252978825716
C            1.66555312346234       -1.46942231106790       -1.12277701118095
C            2.43530554311279       -0.54815827795598       -1.99033437972828
C            3.70864916297126       -0.12920703029944       -1.27308976772448
C            3.88756262773189        1.17128152921158       -0.83773046763835
C            5.06342258605942        1.54772393112964       -0.20358411272812
C            6.07491995998512        0.62637796956867        0.02114078893809
O            7.25370019562386        0.88356558115810        0.61681524474374
C            7.54240148035742        2.20123976098166        1.02716137339239
C            5.88943772804175       -0.71738272577686       -0.40856886888913
O            6.91441440911033       -1.55267648998433       -0.14700504413920
C            6.83060663239383       -2.89611230126673       -0.55896147459856
C            4.71315513762233       -1.06929793642924       -1.04955662425798
C            0.08789952467342       -2.08972623328005        0.58132325734553
C           -3.59794597180728        3.01339333748269        0.12582386620763
C           -4.71399450850825        2.97648928701502        1.17135047545377
C           -2.97220092220041        4.40686152613524        0.08944137712615
H           -4.18997178697435        0.72807448954888       -1.41134123978561
H           -6.27177053038595        0.07582182440985       -2.29110353930593
H           -6.47278433000866       -1.46742249723031       -3.15532951353750
H           -4.88965846804388       -0.65347668432102       -3.16166578329902
H           -5.40980328569034       -3.50742466360319        2.65395979815098
H           -5.65387728751606       -4.84944401984421        1.51043965727039
H           -4.00216148023261       -4.32768848324935        1.91980512661096
H           -3.46034110558246       -2.11720182370365        2.53820158031185
H           -2.35205387758721        0.03677178604392        2.37700394766139
H           -2.11356495350920        2.16008610064917       -1.75635912419561
H           -0.79278900635272        2.65626619998036       -0.69364437936695
H           -1.57108869425990       -0.24821518737706       -1.17922092440105
H           -0.38645533601779        0.62599699610770       -2.14157287650452
H           -2.46623426442905        2.42563860216439        2.47451220636200
H            1.07274049065354        0.93197061815065       -0.24416632428098
H            1.94607091109788       -2.51219685180672       -1.12446299297072
H           -0.07271421414092        0.31885551749464        0.63665139395901
H            1.86434256825247        0.33904290633126       -2.25683347741227
H            2.70725431802779       -1.07639481027792       -2.90684956736892
H            3.12834359819337        1.91871142605993       -1.01217053725462
H            5.18117827055880        2.57325107628478        0.10532209105091
H            6.83964591401536        2.54552513001390        1.79190485891235
H            7.53179403086392        2.89425923154887        0.18080983453092
H            8.54451562534567        2.16230387329830        1.44937969556034
H            7.76605094566041       -3.35641276719126       -0.24682979886816
H            5.99510160328037       -3.41290540166561       -0.07548617550757
H            6.73298730584520       -2.97803940937038       -1.64594152039538
H            4.57319158266552       -2.07867447228750       -1.40183353823554
H            0.34653893724763       -3.10256650817711        0.28211310202068
H           -0.99502171489108       -1.96493099817697        0.53223978186604
H            0.40159094761062       -1.93604535520322        1.61677962223501
H           -4.05568348407080        2.82461630554612       -0.84952882172190
H           -4.37965193764231        3.37607978984960        2.12591357246882
H           -5.08279204982088        1.96478962927255        1.32505132841722
H           -5.54467897849833        3.59214169401799        0.83353388931964
H           -2.43866404800398        4.61763247162777        1.01367167459723
H           -2.27762201313120        4.51156330645274       -0.73967265823050
H           -3.75447347756312        5.15376137021628       -0.02740627034671
H           -0.16385840809621        2.63221636788377        2.58195763683883

          :  Hamiltonian                  GFN2-xTB          :
         :: total energy            -100.829696549253 Eh    ::
         :: gradient norm              0.003133444373 Eh/a0 ::
         :: HOMO-LUMO gap              1.803859402377 eV    ::
         :: SCC energy              -100.816759306216 Eh    ::
         :: -> dispersion             -0.075950590732 Eh    ::
         :: repulsion energy           1.515332249382 Eh    ::

    * Orbital Energies and Occupations

         #    Occupation            Energy/Eh            Energy/eV
      -------------------------------------------------------------
         1        2.0000           -0.8086490             -22.0045
       ...           ...                  ...                  ...
        78        1.9989           -0.5361932             -14.5906
        79        1.9985           -0.5303486             -14.4315
        80        1.9983           -0.5284355             -14.3795
        81        1.9979           -0.5253608             -14.2958
        82        1.9975           -0.5228674             -14.2279
        83        1.9968           -0.5187437             -14.1157
        84        1.9959           -0.5148703             -14.0103
        85        1.9943           -0.5093809             -13.8610
        86        1.9816           -0.4908439             -13.3565
        87        1.9802           -0.4897032             -13.3255
        88        1.9479           -0.4741031             -12.9010
        89        1.8720           -0.4592369             -12.4965
        90        1.8687           -0.4588037             -12.4847 (HOMO)
        91        0.3556           -0.3925131             -10.6808 (LUMO)
        92        0.0115           -0.3351684              -9.1204
        93        0.0034           -0.3159816              -8.5983
        94        0.0033           -0.3152494              -8.5784
        95        0.0028           -0.3127958              -8.5116
        96        0.0026           -0.3117153              -8.4822
        97        0.0000           -0.1900870              -5.1725
        98        0.0000           -0.1888443              -5.1387
        99                         -0.1385212              -3.7694
       100                         -0.0715564              -1.9471
       101                         -0.0645356              -1.7561
       ...                                ...                  ...
       171                          1.1246899              30.6044
      -------------------------------------------------------------
                  HL-Gap            0.0662906 Eh            1.8039 eV

     #   Z          covCN         q      C6AA      α(0)
     1   7 N        1.775    -0.311    28.868     7.956
     2   6 C        2.826     0.102    25.733     8.312
     3   6 C        3.907     0.003    20.466     6.430
     4   6 C        2.972     0.004    27.919     8.667
     5   6 C        2.921    -0.079    29.964     8.977
     6   6 C        2.862     0.129    25.166     8.223
     7   8 O        1.706    -0.231    17.822     5.700
     8   6 C        3.645     0.028    20.445     6.499
     9   6 C        2.864     0.128    25.200     8.229
    10   8 O        1.706    -0.230    17.818     5.699
    11   6 C        3.645     0.027    20.447     6.499
    12   6 C        2.914    -0.076    29.890     8.965
    13   6 C        2.921    -0.055    29.360     8.886
    14   6 C        3.806    -0.071    21.859     6.656
    15   6 C        3.799    -0.065    21.756     6.641
    16   6 C        3.753    -0.054    21.602     6.628
    17   7 N        2.728     0.026    20.797     6.773
    18   6 C        2.845     0.017    27.634     8.615
    19   6 C        3.809    -0.072    21.866     6.656
    20   6 C        2.973     0.004    27.934     8.669
    21   6 C        2.920    -0.050    29.240     8.867
    22   6 C        2.915    -0.068    29.701     8.937
    23   6 C        2.864     0.133    25.084     8.209
    24   8 O        1.706    -0.223    17.697     5.680
    25   6 C        3.645     0.025    20.493     6.506
    26   6 C        2.863     0.133    25.084     8.210
    27   8 O        1.706    -0.225    17.739     5.686
    28   6 C        3.645     0.027    20.456     6.501
    29   6 C        2.919    -0.081    30.028     8.986
    30   6 C        3.708    -0.076    22.103     6.720
    31   6 C        3.856    -0.013    20.768     6.481
    32   6 C        3.754    -0.110    22.665     6.789
    33   6 C        3.755    -0.112    22.696     6.793
    34   1 H        0.926     0.054     2.272     2.357
    35   1 H        0.924     0.054     2.276     2.359
    36   1 H        0.925     0.081     1.973     2.196
    37   1 H        0.924     0.048     2.346     2.395
    38   1 H        0.924     0.055     2.264     2.353
    39   1 H        0.925     0.081     1.972     2.196
    40   1 H        0.924     0.047     2.357     2.401
    41   1 H        0.926     0.050     2.317     2.380
    42   1 H        0.926     0.036     2.499     2.472
    43   1 H        0.924     0.053     2.288     2.365
    44   1 H        0.925     0.071     2.079     2.255
    45   1 H        0.924     0.046     2.372     2.409
    46   1 H        0.924     0.046     2.374     2.409
    47   1 H        0.924     0.025     2.666     2.553
    48   1 H        0.923     0.083     1.944     2.180
    49   1 H        0.926     0.072     2.062     2.245
    50   1 H        0.930     0.130     1.537     1.939
    51   1 H        0.925     0.072     2.059     2.244
    52   1 H        0.924     0.079     1.990     2.206
    53   1 H        0.926     0.046     2.367     2.406
    54   1 H        0.926     0.060     2.202     2.320
    55   1 H        0.924     0.054     2.274     2.358
    56   1 H        0.924     0.056     2.247     2.344
    57   1 H        0.925     0.083     1.952     2.185
    58   1 H        0.925     0.082     1.955     2.187
    59   1 H        0.924     0.048     2.344     2.394
    60   1 H        0.924     0.053     2.281     2.362
    61   1 H        0.926     0.049     2.326     2.385
    62   1 H        0.925     0.079     1.994     2.208
    63   1 H        0.924     0.085     1.931     2.173
    64   1 H        0.924     0.082     1.956     2.187
    65   1 H        0.924     0.041     2.442     2.444
    66   1 H        0.925     0.043     2.413     2.429
    67   1 H        0.925     0.039     2.463     2.454
    68   1 H        0.925     0.049     2.328     2.386
    69   1 H        0.925     0.039     2.462     2.454
    70   1 H        0.925     0.043     2.413     2.429
    71   1 H        0.925     0.053     2.280     2.361
    72   1 H        0.860     0.151     1.391     1.848

Wiberg/Mayer (AO) data.
largest (>0.10) Wiberg bond orders for each atom

     #   Z sym  total        # sym  WBO       # sym  WBO       # sym  WBO
 ---------------------------------------------------------------------------
     1   7 N    2.997 --     2 C    1.939    72 H    0.946
     2   6 C    3.938 --     1 N    1.939     3 C    0.998    47 H    0.935
     3   6 C    3.980 --     2 C    0.998     4 C    0.973    14 C    0.967
                            31 C    0.933
     4   6 C    3.950 --    13 C    1.418     5 C    1.365     3 C    0.973
     5   6 C    3.962 --     6 C    1.403     4 C    1.365    34 H    0.958
     6   6 C    3.906 --     5 C    1.403     9 C    1.221     7 O    1.099
     7   8 O    2.254 --     6 C    1.099     8 C    0.978
     8   6 C    3.932 --     7 O    0.978    36 H    0.977    37 H    0.973
                            35 H    0.973
     9   6 C    3.901 --    12 C    1.394     6 C    1.221    10 O    1.099
    10   8 O    2.250 --     9 C    1.099    11 C    0.978
    11   6 C    3.932 --    10 O    0.978    39 H    0.977    40 H    0.974
                            38 H    0.973
    12   6 C    3.962 --    13 C    1.402     9 C    1.394    41 H    0.964
    13   6 C    3.954 --     4 C    1.418    12 C    1.402    42 H    0.963
    14   6 C    3.983 --    15 C    1.006    43 H    0.970    44 H    0.968
                             3 C    0.967
    15   6 C    3.978 --    14 C    1.006    46 H    0.976    16 C    0.976
                            45 H    0.969
    16   6 C    3.936 --    15 C    0.976    17 N    0.966    50 H    0.963
                            48 H    0.960
    17   7 N    3.513 --    18 C    1.473    30 C    1.002    16 C    0.966
    18   6 C    3.618 --    17 N    1.473    19 C    1.046    49 H    0.957
    19   6 C    3.986 --    18 C    1.046    51 H    0.960    20 C    0.954
                            52 H    0.951
    20   6 C    3.924 --    21 C    1.418    29 C    1.372    19 C    0.954
    21   6 C    3.952 --    20 C    1.418    22 C    1.406    53 H    0.965
    22   6 C    3.961 --    21 C    1.406    23 C    1.389    54 H    0.963
    23   6 C    3.901 --    22 C    1.389    26 C    1.218    24 O    1.110
    24   8 O    2.258 --    23 C    1.110    25 C    0.975
    25   6 C    3.928 --    57 H    0.977    24 O    0.975    56 H    0.973
                            55 H    0.973
    26   6 C    3.906 --    29 C    1.401    23 C    1.218    27 O    1.104
    27   8 O    2.258 --    26 C    1.104    28 C    0.978
    28   6 C    3.932 --    27 O    0.978    58 H    0.977    59 H    0.974
                            60 H    0.973
    29   6 C    3.960 --    26 C    1.401    20 C    1.372    61 H    0.963
    30   6 C    3.956 --    17 N    1.002    62 H    0.977    63 H    0.964
                            64 H    0.963
    31   6 C    3.983 --    33 C    1.009    32 C    1.009    65 H    0.960
                             3 C    0.933
    32   6 C    3.989 --    31 C    1.009    68 H    0.983    67 H    0.981
                            66 H    0.981
    33   6 C    3.989 --    31 C    1.009    70 H    0.983    71 H    0.982
                            69 H    0.982
    34   1 H    0.996 --     5 C    0.958
    35   1 H    0.993 --     8 C    0.973
    36   1 H    0.993 --     8 C    0.977
    37   1 H    0.994 --     8 C    0.973
    38   1 H    0.993 --    11 C    0.973
    39   1 H    0.993 --    11 C    0.977
    40   1 H    0.994 --    11 C    0.974
    41   1 H    0.996 --    12 C    0.964
    42   1 H    0.998 --    13 C    0.963
    43   1 H    0.996 --    14 C    0.970
    44   1 H    0.994 --    14 C    0.968
    45   1 H    0.997 --    15 C    0.969
    46   1 H    0.997 --    15 C    0.976
    47   1 H    0.987 --     2 C    0.935
    48   1 H    0.990 --    16 C    0.960
    49   1 H    0.994 --    18 C    0.957
    50   1 H    0.982 --    16 C    0.963
    51   1 H    0.991 --    19 C    0.960
    52   1 H    0.985 --    19 C    0.951
    53   1 H    0.997 --    21 C    0.965
    54   1 H    0.994 --    22 C    0.963
    55   1 H    0.992 --    25 C    0.973
    56   1 H    0.992 --    25 C    0.973
    57   1 H    0.992 --    25 C    0.977
    58   1 H    0.993 --    28 C    0.977
    59   1 H    0.994 --    28 C    0.974
    60   1 H    0.993 --    28 C    0.973
    61   1 H    0.996 --    29 C    0.963
    62   1 H    0.993 --    30 C    0.977
    63   1 H    0.987 --    30 C    0.964
    64   1 H    0.984 --    30 C    0.963
    65   1 H    0.996 --    31 C    0.960
    66   1 H    0.997 --    32 C    0.981
    67   1 H    0.998 --    32 C    0.981
    68   1 H    0.996 --    32 C    0.983
    69   1 H    0.997 --    33 C    0.982
    70   1 H    0.997 --    33 C    0.983
    71   1 H    0.995 --    33 C    0.982
    72   1 H    0.972 --     1 N    0.946
 ---------------------------------------------------------------------------

molecular dipole:
                 x           y           z       tot (Debye)
 q only:        0.798      -0.748      -0.386
   full:        0.493      -0.674      -0.035       2.125

           -------------------------------------------------
          | TOTAL ENERGY             -100.829696549253 Eh   |
          | GRADIENT NORM               0.003133444373 Eh/α |
          | HOMO-LUMO GAP               1.803859402377 eV   |
           -------------------------------------------------

 * finished run on 2024/04/06 at 11:16:49.698
