   * xtb version 6.6.1 (8d0f1dd) compiled by 'conda@1efc2f54142f' on 2023-08-01
          program call               : xtb xtbopt.xyz --opt crude --input .xc2 --gfn2

   ID    Z sym.   atoms
    1    7 N      1, 17
    2    6 C      2-6, 8, 9, 11-16, 18-23, 25, 26, 28-33
    3    8 O      7, 10, 24, 27
    4    1 H      34-72
########################################################################
[WARNING] Please study the warnings concerning your input carefully
-1- readin_getIntValue: could not parse ''
########################################################################

          :  Hamiltonian                  GFN2-xTB          :
 * total energy  :   -99.2997266 Eh     change       -0.5968559E-12 Eh
 * total energy  :   -99.4082792 Eh     change       -0.1085526E+00 Eh
 * total energy  :   -99.4096208 Eh     change       -0.1341625E-02 Eh
 * total energy  :   -99.4102614 Eh     change       -0.6405953E-03 Eh
 * total energy  :   -99.4103682 Eh     change       -0.1067291E-03 Eh
   *** GEOMETRY OPTIMIZATION CONVERGED AFTER 5 ITERATIONS ***

 final structure:
================
72
 xtb: 6.6.1 (8d0f1dd)
N           -0.56075919071373        2.38440112462816        1.69914708072755
C           -1.80898283182941        2.26209421781780        1.63174384115399
C           -2.51624180686545        1.90527751025254        0.35147659280005
C           -3.20144050078251        0.55550325736775        0.48168443145430
C           -4.03308797973364        0.10317673113373       -0.54589631461811
C           -4.66285113742825       -1.12784452070784       -0.48087064180281
O           -5.47776868129885       -1.63811064215016       -1.42756466564835
C           -5.78627463285806       -0.86331475517109       -2.56223585820593
C           -4.45974855318785       -1.95840641521039        0.65450462819283
O           -5.11464452485399       -3.13719247896878        0.63536850052234
C           -5.02714708590254       -3.98850329091255        1.75380074887952
C           -3.62121917357683       -1.51184865625788        1.66282616617121
C           -2.99760808607694       -0.27303440762185        1.57355695755047
C           -1.54319305251405        1.89045648431721       -0.85698728299317
C           -0.84570189053487        0.56164449905140       -1.15931987672518
C            0.25202211426728        0.22931496885671       -0.14079324482037
N            0.73409971941023       -1.12600427926849       -0.29188274211697
C            1.67519301818664       -1.47901378198250       -1.14032766010924
C            2.44398513863865       -0.55442819715695       -2.00597884459192
C            3.71307404112216       -0.13423068683531       -1.28190075688967
C            3.88764894688637        1.16636139380403       -0.84468891824123
C            5.05979134246904        1.54341440670569       -0.20399391174236
C            6.07178216021374        0.62312814576086        0.02281274894114
O            7.24864520512019        0.88074655607525        0.62240984230545
C            7.53783803767653        2.19778454764062        1.03195970387460
C            5.89108200672952       -0.72047020276117       -0.40927530770316
O            6.91895552915011       -1.55147834466064       -0.14774659779336
C            6.83972496645260       -2.89528571458843       -0.56036912181547
C            4.71708358630883       -1.07349924438267       -1.05377108713976
C            0.09242530612716       -2.09608037818993        0.55651512782423
C           -3.59647328920299        3.01450083049723        0.12262259823386
C           -4.71534326112534        2.97927964535308        1.16481908299462
C           -2.97450824663513        4.40938474152020        0.08089970167978
H           -4.18967924691762        0.72804515531868       -1.40891694591322
H           -6.27346954911319        0.07667223730778       -2.28620478779828
H           -6.47601078508709       -1.46721590073806       -3.14856569074320
H           -4.89368564348275       -0.65233095330749       -3.16018681469336
H           -5.40081380679195       -3.50045697271333        2.65885926287520
H           -5.65724097398562       -4.84414195933062        1.51905447239579
H           -4.00049501575080       -4.33040335509845        1.92033904957670
H           -3.44907246799947       -2.11972738492212        2.53639396906364
H           -2.35205676984190        0.03526464196557        2.38168487273770
H           -2.10727058382958        2.16868688503841       -1.74809639152009
H           -0.78237351169166        2.65001760084849       -0.68318880492841
H           -1.57667322711037       -0.24839628249584       -1.17875927416395
H           -0.40967681299728        0.62790049795458       -2.15906992664303
H           -2.48301461821658        2.42327577751665        2.47915371750053
H            1.07898559878579        0.93202284805633       -0.23744949845258
H            1.96182082395032       -2.52024753213409       -1.13824027942986
H           -0.15946225182673        0.33193428994552        0.86047475351123
H            1.86970737691135        0.33097604711390       -2.26995946494838
H            2.72065054424393       -1.07813349572791       -2.92367221545962
H            3.12875838572651        1.91323625598201       -1.02219987901662
H            5.17589346839169        2.56806087225631        0.10853987986824
H            6.83554888020518        2.54364493129193        1.79646609822700
H            7.52824330345460        2.89091365826416        0.18546133010752
H            8.53995420449732        2.15832715882454        1.45442993816054
H            7.77672479214957       -3.35236393994257       -0.24869921977632
H            6.00612093018751       -3.41470813117595       -0.07672333376624
H            6.74198760355973       -2.97652727167495       -1.64729197652814
H            4.57918308708872       -2.08320912695192       -1.40592688559924
H            0.35079878873377       -3.10940452393714        0.25812484030187
H           -0.99084379968464       -1.97216198034676        0.50492351656204
H            0.40291870094304       -1.94397819220221        1.59328681791773
H           -4.05238571872637        2.82148104291433       -0.85315874686246
H           -4.38319163192766        3.37161548854542        2.12249920935458
H           -5.08865591079273        1.96863082597639        1.31235571586828
H           -5.54123934660845        3.60082186072914        0.82746744404680
H           -2.44991425660162        4.63114488180719        1.00741582592650
H           -2.27304227934227        4.51055351527998       -0.74218584178217
H           -3.75775852622526        5.15209509192452       -0.04987379238755
H           -0.18311135088482        2.66450189641240        2.60015897859350

          :  Hamiltonian                  GFN2-xTB          :
         :: total energy             -99.410368165579 Eh    ::
         :: gradient norm              0.002502848196 Eh/a0 ::
         :: HOMO-LUMO gap              1.801917977682 eV    ::
         :: SCC energy              -100.791791871230 Eh    ::
         :: -> dispersion             -0.075893977327 Eh    ::
         :: repulsion energy           1.379714130871 Eh    ::

    * Orbital Energies and Occupations

         #    Occupation            Energy/Eh            Energy/eV
      -------------------------------------------------------------
         1        2.0000           -0.8086383             -22.0042
       ...           ...                  ...                  ...
        78        1.9989           -0.5360122             -14.5856
        79        1.9985           -0.5302407             -14.4286
        80        1.9982           -0.5281459             -14.3716
        81        1.9979           -0.5252448             -14.2926
        82        1.9975           -0.5227133             -14.2238
        83        1.9967           -0.5182336             -14.1019
        84        1.9959           -0.5145969             -14.0029
        85        1.9942           -0.5092385             -13.8571
        86        1.9816           -0.4907856             -13.3550
        87        1.9802           -0.4895979             -13.3226
        88        1.9477           -0.4739827             -12.8977
        89        1.8721           -0.4591988             -12.4954
        90        1.8684           -0.4587142             -12.4822 (HOMO)
        91        0.3562           -0.3924949             -10.6803 (LUMO)
        92        0.0118           -0.3355792              -9.1316
        93        0.0034           -0.3159724              -8.5980
        94        0.0033           -0.3151444              -8.5755
        95        0.0028           -0.3127347              -8.5099
        96        0.0026           -0.3115921              -8.4789
        97        0.0000           -0.1900508              -5.1715
        98        0.0000           -0.1887268              -5.1355
        99                         -0.1291126              -3.5133
       100                         -0.0690650              -1.8794
       101                         -0.0634565              -1.7267
       ...                                ...                  ...
       171                          0.5758380              15.6693
      -------------------------------------------------------------
                  HL-Gap            0.0662193 Eh            1.8019 eV

     #   Z          covCN         q      C6AA      α(0)
     1   7 N        1.775    -0.309    28.819     7.950
     2   6 C        2.826     0.102    25.735     8.313
     3   6 C        3.907     0.004    20.462     6.430
     4   6 C        2.972     0.005    27.914     8.666
     5   6 C        2.921    -0.078    29.960     8.976
     6   6 C        2.862     0.129    25.170     8.224
     7   8 O        1.706    -0.231    17.827     5.701
     8   6 C        3.644     0.028    20.445     6.499
     9   6 C        2.864     0.128    25.198     8.228
    10   8 O        1.706    -0.230    17.814     5.698
    11   6 C        3.645     0.027    20.448     6.499
    12   6 C        2.914    -0.076    29.896     8.966
    13   6 C        2.921    -0.054    29.352     8.884
    14   6 C        3.805    -0.072    21.865     6.657
    15   6 C        3.800    -0.063    21.709     6.634
    16   6 C        3.754    -0.038    21.307     6.582
    17   7 N        2.729     0.037    20.591     6.739
    18   6 C        2.849     0.016    27.655     8.619
    19   6 C        3.809    -0.072    21.860     6.655
    20   6 C        2.973     0.004    27.930     8.669
    21   6 C        2.920    -0.050    29.236     8.867
    22   6 C        2.915    -0.068    29.701     8.937
    23   6 C        2.864     0.133    25.088     8.210
    24   8 O        1.706    -0.223    17.696     5.680
    25   6 C        3.645     0.025    20.490     6.506
    26   6 C        2.863     0.133    25.084     8.209
    27   8 O        1.706    -0.225    17.737     5.686
    28   6 C        3.645     0.027    20.457     6.500
    29   6 C        2.919    -0.081    30.030     8.986
    30   6 C        3.708    -0.076    22.109     6.721
    31   6 C        3.857    -0.013    20.768     6.481
    32   6 C        3.754    -0.110    22.668     6.789
    33   6 C        3.755    -0.112    22.698     6.793
    34   1 H        0.926     0.054     2.271     2.357
    35   1 H        0.924     0.054     2.277     2.360
    36   1 H        0.925     0.081     1.973     2.196
    37   1 H        0.924     0.048     2.347     2.396
    38   1 H        0.924     0.055     2.263     2.353
    39   1 H        0.925     0.081     1.971     2.195
    40   1 H        0.924     0.047     2.356     2.400
    41   1 H        0.926     0.050     2.317     2.380
    42   1 H        0.926     0.035     2.511     2.478
    43   1 H        0.924     0.053     2.289     2.366
    44   1 H        0.925     0.071     2.073     2.252
    45   1 H        0.924     0.046     2.372     2.409
    46   1 H        0.924     0.046     2.367     2.406
    47   1 H        0.924     0.025     2.656     2.549
    48   1 H        0.925     0.087     1.911     2.162
    49   1 H        0.926     0.072     2.062     2.245
    50   1 H        0.925     0.092     1.855     2.130
    51   1 H        0.925     0.073     2.054     2.241
    52   1 H        0.924     0.079     1.995     2.209
    53   1 H        0.926     0.046     2.365     2.405
    54   1 H        0.926     0.060     2.202     2.321
    55   1 H        0.924     0.054     2.276     2.359
    56   1 H        0.924     0.056     2.249     2.345
    57   1 H        0.925     0.082     1.953     2.186
    58   1 H        0.925     0.082     1.955     2.186
    59   1 H        0.924     0.048     2.343     2.394
    60   1 H        0.924     0.053     2.280     2.361
    61   1 H        0.926     0.049     2.329     2.386
    62   1 H        0.925     0.079     1.990     2.206
    63   1 H        0.924     0.085     1.928     2.172
    64   1 H        0.924     0.082     1.957     2.188
    65   1 H        0.924     0.041     2.441     2.443
    66   1 H        0.925     0.043     2.413     2.429
    67   1 H        0.925     0.039     2.462     2.454
    68   1 H        0.925     0.050     2.324     2.384
    69   1 H        0.925     0.039     2.461     2.453
    70   1 H        0.925     0.043     2.411     2.428
    71   1 H        0.925     0.053     2.280     2.361
    72   1 H        0.860     0.152     1.387     1.845

Wiberg/Mayer (AO) data.
largest (>0.10) Wiberg bond orders for each atom

     #   Z sym  total        # sym  WBO       # sym  WBO       # sym  WBO
 ---------------------------------------------------------------------------
     1   7 N    3.000 --     2 C    1.935    72 H    0.945
     2   6 C    3.937 --     1 N    1.935     3 C    0.998    47 H    0.935
     3   6 C    3.980 --     2 C    0.998     4 C    0.973    14 C    0.967
                            31 C    0.933
     4   6 C    3.950 --    13 C    1.418     5 C    1.364     3 C    0.973
     5   6 C    3.962 --     6 C    1.403     4 C    1.364    34 H    0.958
     6   6 C    3.906 --     5 C    1.403     9 C    1.221     7 O    1.098
     7   8 O    2.253 --     6 C    1.098     8 C    0.978
     8   6 C    3.932 --     7 O    0.978    36 H    0.977    37 H    0.973
                            35 H    0.973
     9   6 C    3.901 --    12 C    1.394     6 C    1.221    10 O    1.100
    10   8 O    2.251 --     9 C    1.100    11 C    0.978
    11   6 C    3.932 --    10 O    0.978    39 H    0.977    40 H    0.974
                            38 H    0.974
    12   6 C    3.962 --    13 C    1.402     9 C    1.394    41 H    0.964
    13   6 C    3.954 --     4 C    1.418    12 C    1.402    42 H    0.963
    14   6 C    3.983 --    15 C    1.006    43 H    0.970    44 H    0.968
                             3 C    0.967
    15   6 C    3.979 --    14 C    1.006    16 C    0.982    46 H    0.973
                            45 H    0.968
    16   6 C    3.945 --    15 C    0.982    17 N    0.977    48 H    0.959
                            50 H    0.954
    17   7 N    3.520 --    18 C    1.469    30 C    1.002    16 C    0.977
    18   6 C    3.617 --    17 N    1.469    19 C    1.045    49 H    0.958
    19   6 C    3.986 --    18 C    1.045    51 H    0.960    20 C    0.954
                            52 H    0.951
    20   6 C    3.924 --    21 C    1.417    29 C    1.372    19 C    0.954
    21   6 C    3.952 --    20 C    1.417    22 C    1.406    53 H    0.966
    22   6 C    3.961 --    21 C    1.406    23 C    1.389    54 H    0.963
    23   6 C    3.901 --    22 C    1.389    26 C    1.218    24 O    1.110
    24   8 O    2.258 --    23 C    1.110    25 C    0.976
    25   6 C    3.929 --    57 H    0.977    24 O    0.976    56 H    0.973
                            55 H    0.973
    26   6 C    3.906 --    29 C    1.400    23 C    1.218    27 O    1.104
    27   8 O    2.258 --    26 C    1.104    28 C    0.978
    28   6 C    3.932 --    27 O    0.978    58 H    0.977    59 H    0.974
                            60 H    0.973
    29   6 C    3.960 --    26 C    1.400    20 C    1.372    61 H    0.963
    30   6 C    3.956 --    17 N    1.002    62 H    0.977    63 H    0.964
                            64 H    0.963
    31   6 C    3.982 --    33 C    1.009    32 C    1.009    65 H    0.960
                             3 C    0.933
    32   6 C    3.989 --    31 C    1.009    68 H    0.983    67 H    0.981
                            66 H    0.981
    33   6 C    3.989 --    31 C    1.009    70 H    0.983    71 H    0.982
                            69 H    0.982
    34   1 H    0.996 --     5 C    0.958
    35   1 H    0.993 --     8 C    0.973
    36   1 H    0.993 --     8 C    0.977
    37   1 H    0.994 --     8 C    0.973
    38   1 H    0.993 --    11 C    0.974
    39   1 H    0.993 --    11 C    0.977
    40   1 H    0.994 --    11 C    0.974
    41   1 H    0.996 --    12 C    0.964
    42   1 H    0.998 --    13 C    0.963
    43   1 H    0.996 --    14 C    0.970
    44   1 H    0.994 --    14 C    0.968
    45   1 H    0.997 --    15 C    0.968
    46   1 H    0.997 --    15 C    0.973
    47   1 H    0.987 --     2 C    0.935
    48   1 H    0.989 --    16 C    0.959
    49   1 H    0.994 --    18 C    0.958
    50   1 H    0.989 --    16 C    0.954
    51   1 H    0.991 --    19 C    0.960
    52   1 H    0.985 --    19 C    0.951
    53   1 H    0.997 --    21 C    0.966
    54   1 H    0.994 --    22 C    0.963
    55   1 H    0.992 --    25 C    0.973
    56   1 H    0.992 --    25 C    0.973
    57   1 H    0.992 --    25 C    0.977
    58   1 H    0.993 --    28 C    0.977
    59   1 H    0.994 --    28 C    0.974
    60   1 H    0.993 --    28 C    0.973
    61   1 H    0.996 --    29 C    0.963
    62   1 H    0.993 --    30 C    0.977
    63   1 H    0.987 --    30 C    0.964
    64   1 H    0.984 --    30 C    0.963
    65   1 H    0.996 --    31 C    0.960
    66   1 H    0.997 --    32 C    0.981
    67   1 H    0.998 --    32 C    0.981
    68   1 H    0.996 --    32 C    0.983
    69   1 H    0.997 --    33 C    0.982
    70   1 H    0.997 --    33 C    0.983
    71   1 H    0.995 --    33 C    0.982
    72   1 H    0.972 --     1 N    0.945
 ---------------------------------------------------------------------------

molecular dipole:
                 x           y           z       tot (Debye)
 q only:        0.804      -0.769      -0.407
   full:        0.496      -0.694      -0.047       2.172

           -------------------------------------------------
          | TOTAL ENERGY              -99.410368165579 Eh   |
          | GRADIENT NORM               0.002502848196 Eh/α |
          | HOMO-LUMO GAP               1.801917977682 eV   |
           -------------------------------------------------

 * finished run on 2024/04/06 at 11:16:50.816
