   * xtb version 6.6.1 (8d0f1dd) compiled by 'conda@1efc2f54142f' on 2023-08-01
          program call               : xtb struc.xyz --opt loose --input .xc1 --gfn2

   ID    Z sym.   atoms
    1    6 C      1, 3, 5-7, 10, 11, 14
    2    7 N      2, 4, 9, 13
    3    8 O      8, 12
    4    1 H      15-25
constraining bond 1 18 to    5.1400000 Å, actual value:    2.8227330 Å

          :  Hamiltonian                  GFN2-xTB          :
 * total energy  :    -3.8965839 Eh     change       -0.6650680E-10 Eh
 * total energy  :   -22.8593964 Eh     change       -0.1896281E+02 Eh
 * total energy  :   -33.7248638 Eh     change       -0.1086547E+02 Eh
 * total energy  :   -39.6657984 Eh     change       -0.5940935E+01 Eh
 * total energy  :   -41.6683070 Eh     change       -0.2002509E+01 Eh
 * total energy  :   -41.8528180 Eh     change       -0.1845110E+00 Eh
 * total energy  :   -41.8575815 Eh     change       -0.4763444E-02 Eh
 * total energy  :   -41.8634580 Eh     change       -0.5876481E-02 Eh
 * total energy  :   -41.8777509 Eh     change       -0.1429290E-01 Eh
 * total energy  :   -41.9302884 Eh     change       -0.5253750E-01 Eh
 * total energy  :   -42.1096968 Eh     change       -0.3370128E-01 Eh
 * total energy  :   -42.1221488 Eh     change       -0.1245198E-01 Eh
 * total energy  :   -42.1287394 Eh     change       -0.6590599E-02 Eh
 * total energy  :   -42.1320856 Eh     change       -0.3346200E-02 Eh
 * total energy  :   -42.1342176 Eh     change       -0.2131981E-02 Eh
 * total energy  :   -42.1345941 Eh     change       -0.3764883E-03 Eh
 * total energy  :   -42.1348174 Eh     change       -0.2233403E-03 Eh
 * total energy  :   -42.1349362 Eh     change       -0.1187633E-03 Eh
 * total energy  :   -42.1349819 Eh     change       -0.4566617E-04 Eh
   *** GEOMETRY OPTIMIZATION CONVERGED AFTER 35 ITERATIONS ***

 final structure:
================
25
 xtb: 6.6.1 (8d0f1dd)
C            3.68150796626786        2.75081395104257        0.03363611060111
N            2.25173451844711       -0.53708752087555       -0.01014387482082
C            2.34797021762707       -1.83245425835546       -0.00714964399559
N            1.12252290389713       -2.44336676287050       -0.00547222884617
C            0.20152622853443       -1.44745708149819       -0.00652933619974
C            0.92747089560685       -0.24842636739550       -0.01012824713262
C            0.24598635415759        1.02524647076466       -0.01583886979362
O            0.76841248939515        2.11685204341545       -0.02998164507670
N           -1.14256908066761        0.87556662744998       -0.00308513014730
C           -1.94837326363668        2.08592751144233        0.00193311976934
C           -1.86705653527648       -0.30347095112034        0.00194027357914
O           -3.06915726235940       -0.31279692733139        0.01055800367742
N           -1.14049985937215       -1.50683703840384       -0.00354367309208
C           -1.86114616761954       -2.76191350619272       -0.00535256607974
H            3.97689100784775        2.46622987910466        1.02503205366655
H            4.32355268843721        2.52920058277816       -0.79734917475014
H            2.73511741578683        3.23147108948350       -0.12497350424488
H            3.27357807330865       -2.37299977945999       -0.00956162076923
H           -1.27551097992606        2.93983628024911        0.01117170107615
H           -2.58382742180879        2.11495796179746       -0.88365146077010
H           -2.59213292017338        2.10053645516593        0.88176477194610
H           -1.61313284468547       -3.34467264597019        0.88269009736547
H           -1.62343730092881       -3.33537254369884       -0.90234865050359
H           -2.92668479160514       -2.53446735407270        0.00205270373128
H            0.94768918284554       -3.43707757384853       -0.00449759129010

          :  Hamiltonian                  GFN2-xTB          :
         :: total energy             -42.134981864100 Eh    ::
         :: gradient norm              0.002845314071 Eh/a0 ::
         :: HOMO-LUMO gap              1.107589904178 eV    ::
         :: SCC energy               -42.661391573146 Eh    ::
         :: -> dispersion             -0.021275088609 Eh    ::
         :: repulsion energy           0.526312017502 Eh    ::

    * Orbital Energies and Occupations

         #    Occupation            Energy/Eh            Energy/eV
      -------------------------------------------------------------
         1        2.0000           -0.8873463             -24.1459
       ...           ...                  ...                  ...
        25        1.9996           -0.6558779             -17.8473
        26        1.9988           -0.6378759             -17.3575
        27        1.9980           -0.6298503             -17.1391
        28        1.9979           -0.6287569             -17.1093
        29        1.9973           -0.6250929             -17.0096
        30        1.9971           -0.6237869             -16.9741
        31        1.9930           -0.6098435             -16.5947
        32        1.9923           -0.6083146             -16.5531
        33        1.9735           -0.5886310             -16.0175
        34        1.9230           -0.5713002             -15.5459
        35        1.9124           -0.5691745             -15.4880
        36        1.8796           -0.5638683             -15.3436
        37        1.7113           -0.5485361             -14.9264 (HOMO)
        38        0.6240           -0.5078329             -13.8188 (LUMO)
        39        0.0021           -0.4115683             -11.1993
        40        0.0006           -0.3923828             -10.6773
        41        0.0001           -0.3631162              -9.8809
        42        0.0000           -0.2819386              -7.6719
        43                         -0.2003129              -5.4508
        44                         -0.1577118              -4.2916
        45                         -0.1329464              -3.6177
        46                         -0.0701111              -1.9078
        47                         -0.0463741              -1.2619
        48                         -0.0303545              -0.8260
       ...                                ...                  ...
        67                          0.5477620              14.9054
      -------------------------------------------------------------
                  HL-Gap            0.0407032 Eh            1.1076 eV

     #   Z          covCN         q      C6AA      α(0)
     1   6 C        2.779    -0.064    29.567     8.906
     2   7 N        1.904    -0.167    25.415     7.474
     3   6 C        3.157     0.106    25.379     8.237
     4   7 N        2.789    -0.080    22.784     7.089
     5   6 C        3.055     0.115    25.415     8.268
     6   6 C        3.204     0.023    26.908     8.449
     7   6 C        2.765     0.274    22.367     7.745
     8   8 O        0.858    -0.339    20.495     6.070
     9   7 N        2.745    -0.074    22.678     7.073
    10   6 C        3.710    -0.062    21.829     6.677
    11   6 C        2.731     0.319    21.581     7.605
    12   8 O        0.860    -0.343    20.581     6.082
    13   7 N        2.737    -0.042    22.062     6.976
    14   6 C        3.697    -0.070    22.024     6.713
    15   1 H        0.926     0.137     1.482     1.904
    16   1 H        0.926     0.138     1.478     1.901
    17   1 H        0.926     0.159     1.330     1.803
    18   1 H        0.926     0.109     1.703     2.041
    19   1 H        0.925     0.117     1.640     2.003
    20   1 H        0.924     0.108     1.711     2.045
    21   1 H        0.924     0.109     1.709     2.044
    22   1 H        0.924     0.092     1.863     2.135
    23   1 H        0.924     0.092     1.862     2.134
    24   1 H        0.925     0.128     1.550     1.947
    25   1 H        0.860     0.216     1.028     1.588

Wiberg/Mayer (AO) data.
largest (>0.10) Wiberg bond orders for each atom

     #   Z sym  total        # sym  WBO       # sym  WBO       # sym  WBO
 ---------------------------------------------------------------------------
     1   6 C    2.936 --    15 H    0.978    16 H    0.978    17 H    0.966
     2   7 N    3.002 --     3 C    1.559     6 C    1.269
     3   6 C    3.850 --     2 N    1.559     4 N    1.214    18 H    0.955
     4   7 N    3.577 --     5 C    1.223     3 C    1.214    25 H    0.924
     5   6 C    3.897 --     6 C    1.277     4 N    1.223    13 N    1.213
     6   6 C    3.834 --     5 C    1.277     2 N    1.269     7 C    1.070
     7   6 C    3.946 --     8 O    1.675     9 N    1.099     6 C    1.070
     8   8 O    1.972 --     7 C    1.675     9 N    0.126
     9   7 N    3.514 --    11 C    1.121     7 C    1.099    10 C    0.975
                             8 O    0.126    12 O    0.123
    10   6 C    3.884 --     9 N    0.975    19 H    0.962    21 H    0.951
                            20 H    0.951
    11   6 C    3.954 --    12 O    1.688     9 N    1.121    13 N    1.052
    12   8 O    1.995 --    11 C    1.688     9 N    0.123    13 N    0.108
    13   7 N    3.495 --     5 C    1.213    11 C    1.052    14 C    0.978
                            12 O    0.108
    14   6 C    3.910 --    13 N    0.978    24 H    0.962    22 H    0.962
                            23 H    0.962
    15   1 H    0.980 --     1 C    0.978
    16   1 H    0.980 --     1 C    0.978
    17   1 H    0.972 --     1 C    0.966
    18   1 H    0.986 --     3 C    0.955
    19   1 H    0.981 --    10 C    0.962
    20   1 H    0.969 --    10 C    0.951
    21   1 H    0.969 --    10 C    0.951
    22   1 H    0.979 --    14 C    0.962
    23   1 H    0.978 --    14 C    0.962
    24   1 H    0.981 --    14 C    0.962
    25   1 H    0.952 --     4 N    0.924
 ---------------------------------------------------------------------------

molecular dipole:
                 x           y           z       tot (Debye)
 q only:        1.888      -1.048       0.019
   full:        1.795      -1.761       0.020       6.391

           -------------------------------------------------
          | TOTAL ENERGY              -42.134981864100 Eh   |
          | GRADIENT NORM               0.002845314071 Eh/α |
          | HOMO-LUMO GAP               1.107589904178 eV   |
           -------------------------------------------------

 * finished run on 2024/06/05 at 20:00:06.217
