   * xtb version 6.6.1 (8d0f1dd) compiled by 'conda@1efc2f54142f' on 2023-08-01
          program call               : xtb struc.xyz --opt loose --input .xc1 --gfn2

   ID    Z sym.   atoms
    1    6 C      1, 3, 5-7, 10, 11, 14
    2    7 N      2, 4, 9, 13
    3    8 O      8, 12
    4    1 H      15-25
constraining bond 6 9 to    4.9200000 Å, actual value:    2.3455329 Å

          :  Hamiltonian                  GFN2-xTB          :
 * total energy  :   -30.4109899 Eh     change       -0.6633627E-10 Eh
 * total energy  :   -34.6080157 Eh     change       -0.4197026E+01 Eh
 * total energy  :   -37.4848806 Eh     change       -0.2876865E+01 Eh
 * total energy  :   -39.2784581 Eh     change       -0.1793577E+01 Eh
 * total energy  :   -40.4926433 Eh     change       -0.1214185E+01 Eh
 * total energy  :   -41.0650128 Eh     change       -0.5723695E+00 Eh
 * total energy  :   -41.2401378 Eh     change       -0.1751250E+00 Eh
 * total energy  :   -41.3714241 Eh     change       -0.1312863E+00 Eh
 * total energy  :   -41.4493613 Eh     change       -0.7793724E-01 Eh
 * total energy  :   -41.4991879 Eh     change       -0.4982651E-01 Eh
 * total energy  :   -42.1413184 Eh     change       -0.2806836E-03 Eh
 * total energy  :   -42.1413959 Eh     change       -0.7752167E-04 Eh
 * total energy  :   -42.1415877 Eh     change       -0.1917336E-03 Eh
 * total energy  :   -42.1416938 Eh     change       -0.1061293E-03 Eh
 * total energy  :   -42.1417712 Eh     change       -0.7741653E-04 Eh
 * total energy  :   -42.1418415 Eh     change       -0.7032087E-04 Eh
 * total energy  :   -42.1419136 Eh     change       -0.7205889E-04 Eh
 * total energy  :   -42.1419563 Eh     change       -0.4268514E-04 Eh
 * total energy  :   -42.1420054 Eh     change       -0.4912942E-04 Eh
   *** GEOMETRY OPTIMIZATION CONVERGED AFTER 134 ITERATIONS ***

 final structure:
================
25
 xtb: 6.6.1 (8d0f1dd)
C            3.53685303160543        0.76542696411556        0.33574285517520
N            2.57616636801792       -0.28727128958534        0.16948521615250
C            2.55424863333465       -1.45193855936021        0.76670123336668
N            1.49476601690172       -2.16778725883010        0.41080468376171
C            0.68375888263022       -1.43256402014284       -0.51078112685740
C            1.44777582916640       -0.18394252044974       -0.66239249931582
C            1.09357527454616        0.88446799478334       -1.35702701802577
O            0.77064572457868        1.77011356097300       -2.00694815197283
N           -2.53352384560017        2.39403704855675        0.64489764099902
C           -3.91983761598816        2.60105889016123        0.52280773288171
C           -1.55160570064957        1.75592579771399        0.74952093994763
O           -0.48646230425716        1.27949117326372        0.83669164764451
N           -0.38812220134303       -1.72747438558126       -1.07210215593445
C           -1.13131289010667       -2.93340872687175       -0.92116734725727
H            3.04522748939588        1.65681547810380        0.73046891994713
H            4.31298987600955        0.44819797396894        1.02950141427051
H            3.99422740472407        1.01567237195670       -0.62300872612035
H            3.31027400610698       -1.78327902769574        1.45872097892487
H           -4.08065165850791        3.65228318622300        0.28661703181743
H           -4.33157995176902        1.98472218330135       -0.27823056957541
H           -4.42184922038926        2.36433503846917        1.46235980419548
H           -0.60417580041843       -3.74939282343048       -0.41730757635733
H           -1.43397873818226       -3.25450342513599       -1.91805110414833
H           -2.04175073849802       -2.69750597428241       -0.36623738650282
H            1.26477364273512       -3.08524110861230        0.76010518084549

          :  Hamiltonian                  GFN2-xTB          :
         :: total energy             -42.142005422935 Eh    ::
         :: gradient norm              0.002637525314 Eh/a0 ::
         :: HOMO-LUMO gap              2.114575547056 eV    ::
         :: SCC energy               -42.775889011608 Eh    ::
         :: -> dispersion             -0.018846255388 Eh    ::
         :: repulsion energy           0.633726531736 Eh    ::

    * Orbital Energies and Occupations

         #    Occupation            Energy/Eh            Energy/eV
      -------------------------------------------------------------
         1        2.0000           -0.9238502             -25.1392
       ...           ...                  ...                  ...
        25        2.0000           -0.6514914             -17.7280
        26        2.0000           -0.6449485             -17.5499
        27        2.0000           -0.6422727             -17.4771
        28        2.0000           -0.6371040             -17.3365
        29        2.0000           -0.6153344             -16.7441
        30        2.0000           -0.6101189             -16.6022
        31        2.0000           -0.6088465             -16.5676
        32        2.0000           -0.6065625             -16.5054
        33        2.0000           -0.5954498             -16.2030
        34        1.9966           -0.5288192             -14.3899
        35        1.9936           -0.5236963             -14.2505
        36        1.9911           -0.5211361             -14.1808
        37        1.9890           -0.5194484             -14.1349 (HOMO)
        38        0.0196           -0.4417392             -12.0203 (LUMO)
        39        0.0100           -0.4363749             -11.8744
        40        0.0000           -0.3710473             -10.0967
        41                         -0.2896414              -7.8815
        42                         -0.2843448              -7.7374
        43                         -0.2694561              -7.3323
        44                         -0.1837308              -4.9996
        45                         -0.1513428              -4.1182
        46                         -0.0956475              -2.6027
        47                         -0.0679816              -1.8499
        48                         -0.0503119              -1.3691
       ...                                ...                  ...
        67                          1.2613089              34.3220
      -------------------------------------------------------------
                  HL-Gap            0.0777092 Eh            2.1146 eV

     #   Z          covCN         q      C6AA      α(0)
     1   6 C        3.692    -0.088    22.368     6.767
     2   7 N        2.803     0.078    19.886     6.623
     3   6 C        2.964     0.095    25.888     8.346
     4   7 N        2.773    -0.089    22.981     7.120
     5   6 C        2.919     0.163    24.478     8.113
     6   6 C        3.050    -0.013    28.284     8.722
     7   6 C        1.844     0.290    24.574     8.008
     8   8 O        0.856    -0.077    16.183     5.394
     9   7 N        1.820    -0.146    24.943     7.400
    10   6 C        3.685    -0.030    21.316     6.610
    11   6 C        1.769     0.302    24.408     7.987
    12   8 O        0.856    -0.351    20.736     6.105
    13   7 N        1.824    -0.214    26.502     7.628
    14   6 C        3.700    -0.035    21.367     6.610
    15   1 H        0.924     0.110     1.696     2.037
    16   1 H        0.925     0.105     1.738     2.061
    17   1 H        0.924     0.103     1.754     2.071
    18   1 H        0.926     0.120     1.612     1.986
    19   1 H        0.925     0.092     1.862     2.134
    20   1 H        0.924     0.076     2.026     2.226
    21   1 H        0.924     0.080     1.979     2.200
    22   1 H        0.924     0.033     2.548     2.496
    23   1 H        0.925     0.091     1.874     2.141
    24   1 H        0.924     0.086     1.921     2.167
    25   1 H        0.860     0.221     1.005     1.571

Wiberg/Mayer (AO) data.
largest (>0.10) Wiberg bond orders for each atom

     #   Z sym  total        # sym  WBO       # sym  WBO       # sym  WBO
 ---------------------------------------------------------------------------
     1   6 C    3.931 --     2 N    0.992    16 H    0.973    17 H    0.963
                            15 H    0.960
     2   7 N    3.693 --     3 C    1.446     6 C    1.039     1 C    0.992
                             4 N    0.136
     3   6 C    3.948 --     2 N    1.446     4 N    1.359    18 H    0.945
     4   7 N    3.579 --     3 C    1.359     5 C    0.993    25 H    0.921
                             2 N    0.136    13 N    0.103
     5   6 C    3.955 --    13 N    1.777     6 C    1.020     4 N    0.993
     6   6 C    3.896 --     7 C    1.504     2 N    1.039     5 C    1.020
                             8 O    0.169
     7   6 C    3.873 --     8 O    2.173     6 C    1.504
     8   8 O    2.502 --     7 C    2.173     6 C    0.169
     9   7 N    3.478 --    11 C    2.081    10 C    1.015    12 O    0.378
    10   6 C    3.946 --     9 N    1.015    19 H    0.966    20 H    0.963
                            21 H    0.962
    11   6 C    3.950 --     9 N    2.081    12 O    1.789
    12   8 O    2.220 --    11 C    1.789     9 N    0.378
    13   7 N    3.139 --     5 C    1.777    14 C    1.031     4 N    0.103
    14   6 C    3.968 --    13 N    1.031    22 H    0.975    23 H    0.959
                            24 H    0.949
    15   1 H    0.988 --     1 C    0.960
    16   1 H    0.989 --     1 C    0.973
    17   1 H    0.989 --     1 C    0.963
    18   1 H    0.984 --     3 C    0.945
    19   1 H    0.990 --    10 C    0.966
    20   1 H    0.992 --    10 C    0.963
    21   1 H    0.991 --    10 C    0.962
    22   1 H    0.997 --    14 C    0.975
    23   1 H    0.988 --    14 C    0.959
    24   1 H    0.988 --    14 C    0.949
    25   1 H    0.950 --     4 N    0.921
 ---------------------------------------------------------------------------

molecular dipole:
                 x           y           z       tot (Debye)
 q only:        2.197      -1.049       0.307
   full:        2.359      -1.480       0.733       7.320

           -------------------------------------------------
          | TOTAL ENERGY              -42.142005422935 Eh   |
          | GRADIENT NORM               0.002637525314 Eh/α |
          | HOMO-LUMO GAP               2.114575547056 eV   |
           -------------------------------------------------

 * finished run on 2024/06/05 at 19:58:02.825
