   * xtb version 6.6.1 (8d0f1dd) compiled by 'conda@1efc2f54142f' on 2023-08-01
          program call               : xtb struc.xyz --opt loose --input .xc1 --gfn2

   ID    Z sym.   atoms
    1    7 N      1, 17
    2    6 C      2-6, 8, 9, 11-16, 18-23, 25, 26, 28-33
    3    8 O      7, 10, 24, 27
    4    1 H      34-72
constraining bond 12 67 to    6.7133300 Å, actual value:    3.6655171 Å

          :  Hamiltonian                  GFN2-xTB          :
 * total energy  :  -101.0627408 Eh     change       -0.4035485E-08 Eh
 * total energy  :  -101.8291047 Eh     change       -0.7663639E+00 Eh
 * total energy  :  -102.6749668 Eh     change       -0.8458620E+00 Eh
 * total energy  :  -103.6367876 Eh     change       -0.9618208E+00 Eh
 * total energy  :  -104.7938557 Eh     change       -0.1157068E+01 Eh
 * total energy  :  -103.3087311 Eh     change        0.1485125E+01 Eh
 * total energy  :  -105.1154991 Eh     change       -0.1806768E+01 Eh
 * total energy  :  -105.1351560 Eh     change       -0.1965686E-01 Eh
 * total energy  :  -105.2675164 Eh     change       -0.1323604E+00 Eh
 * total energy  :  -105.3625313 Eh     change       -0.9501489E-01 Eh
 * total energy  :  -105.5265026 Eh     change       -0.4128740E-03 Eh
 * total energy  :  -105.5268207 Eh     change       -0.3180742E-03 Eh
 * total energy  :  -105.5269953 Eh     change       -0.1746812E-03 Eh
 * total energy  :  -105.5270072 Eh     change       -0.1187686E-04 Eh
 * total energy  :  -105.5271578 Eh     change       -0.1506155E-03 Eh
 * total energy  :  -105.5272312 Eh     change       -0.7337344E-04 Eh
 * total energy  :  -105.5273228 Eh     change       -0.9164172E-04 Eh
 * total energy  :  -105.5273973 Eh     change       -0.7449426E-04 Eh
 * total energy  :  -105.5274261 Eh     change       -0.2876880E-04 Eh
   *** GEOMETRY OPTIMIZATION CONVERGED AFTER 44 ITERATIONS ***

 final structure:
================
72
 xtb: 6.6.1 (8d0f1dd)
N           -1.88835110198241        3.03196504420529        2.20833282137930
C           -1.84898973423158        2.20986634281020        1.26549222055026
C           -2.97329801057176        1.99594263517119        0.28843904702425
C           -3.48627597848793        0.56589340714128        0.40752070933719
C           -4.28442685922279        0.03611843427951       -0.63487504712628
C           -4.82493198743127       -1.24729590456143       -0.55129339846550
O           -5.58814461064040       -1.82380276187072       -1.51632502210878
C           -5.95837713383909       -1.06431647759214       -2.64177070017453
C           -4.60082620065491       -2.04013532392031        0.57243669255971
O           -5.15533381070495       -3.26399924486936        0.57535541357341
C           -5.02939345550848       -4.08540998493121        1.71302813138347
C           -3.78348641431313       -1.56383148886814        1.75244855006888
C           -3.24308483717010       -0.17120285481814        1.51682220779166
C           -2.38341556771909        2.27594597177640       -1.11512254587023
C           -1.46194439825014        1.16934020010679       -1.65958829287454
C           -0.13540205039068        1.12468878377770       -1.00563941670107
N            0.49336717551964        0.01714036208138       -0.60872518804935
C            1.88477914322321        0.06647748181229       -0.22885795211011
C            2.81617997730395       -0.35606367724515       -1.38267419231090
C            4.24801409736281       -0.14920667550401       -0.97515285307826
C            4.86821862788980        1.07150118307361       -1.18018611492212
C            6.17400410514628        1.28325002995821       -0.76443994108206
C            6.88442152190486        0.27627714758394       -0.12870028474175
O            8.15110772536929        0.37287526831394        0.32268369389112
C            8.84555827996473        1.58721936228508        0.15730235075469
C            6.25806887481269       -0.98162390092736        0.08248681069529
O            7.02252773138143       -1.90705581064149        0.70071552613658
C            6.49722330885789       -3.19304975436699        0.92384009878467
C            4.95206537273970       -1.16970118394588       -0.33956663982947
C           -0.13620932970489       -1.27890435325304       -0.67127378772136
C           -4.20536782498459        2.91479493589830        0.54194724396196
C           -4.82258090293381        2.64971468433485        1.85150252994009
C           -3.87256051623899        4.42001971282296        0.43209762517312
H           -4.50202102056048        0.64212369165260       -1.49512238872456
H           -6.52446091401075       -0.17188162218452       -2.35787859604309
H           -6.59440192800586       -1.71835224650719       -3.23506193910716
H           -5.08753965977394       -0.77278105412778       -3.23897411760397
H           -5.46537035907345       -3.61660159141653        2.59990828174144
H           -5.57993344143760       -4.99460538277005        1.47976036488447
H           -3.98451357918461       -4.34029439758558        1.91476620373117
H           -2.88269674204292       -2.23452726842292        1.77367840180252
H           -2.67297059017768        0.23323624059130        2.33794712071265
H           -3.20274857516896        2.41150296829661       -1.82105014663519
H           -1.82644895939181        3.21302317606960       -1.07671309397585
H           -1.97043111614596        0.20843244807503       -1.60248628713745
H           -1.29796301830191        1.39532581676429       -2.72201254613299
H           -0.97044667817310        1.58537337387896        1.02401521992981
H            0.42920226213855        2.04268377922072       -0.95191822113170
H            2.04759066508825       -0.59190778931699        0.62855260551047
H            2.13868220664123        1.08538652532283        0.07053598419785
H            2.58633294541988        0.25351600580016       -2.25828633419047
H            2.63984461296397       -1.40277812762715       -1.63323469939717
H            4.33926202162117        1.86980536286363       -1.67856304769082
H            6.63195187775180        2.24180067265785       -0.94511090625691
H            8.34193655511172        2.41060690172192        0.67320937795328
H            8.96758193157944        1.83879588796601       -0.90061890125807
H            9.82455717130489        1.42684869890264        0.60475468231685
H            7.29501453389507       -3.75513342266274        1.40544429051593
H            5.62670607239425       -3.16203326186523        1.58743071003820
H            6.22483575356750       -3.68458443534483       -0.01543478311608
H            4.46850886233646       -2.12217857002656       -0.18825599062432
H           -0.28344806892821       -1.60344678072684       -1.70431534844047
H           -1.10753493385169       -1.25064952856738       -0.17260926140641
H            0.49402860436942       -2.00728324100664       -0.16692030551954
H           -4.93998374171122        2.69515570933323       -0.24292453614997
H           -4.21246801398524        2.44853317886806        2.70792485740983
H           -4.12267319271790       -1.59474516046774        2.34472034730981
H           -5.86694489143483        2.84888851213837        1.99649126753485
H           -3.08868455858424        4.67388805509177        1.13717292791686
H           -3.56207669478276        4.67510462906949       -0.57702000291483
H           -4.75885622491819        4.99981715075199        0.67367200111642
H           -1.05803879331614        3.11464302797750        2.78753135559526

          :  Hamiltonian                  GFN2-xTB          :
         :: total energy            -105.527426103336 Eh    ::
         :: gradient norm              0.002688492285 Eh/a0 ::
         :: HOMO-LUMO gap              0.153264776694 eV    ::
         :: SCC energy              -100.683984946666 Eh    ::
         :: -> dispersion             -0.074463861587 Eh    ::
         :: repulsion energy           1.647867395124 Eh    ::

    * Orbital Energies and Occupations

         #    Occupation            Energy/Eh            Energy/eV
      -------------------------------------------------------------
         1        2.0000           -0.8220660             -22.3696
       ...           ...                  ...                  ...
        78        1.9993           -0.5303975             -14.4329
        79        1.9993           -0.5300829             -14.4243
        80        1.9990           -0.5246752             -14.2771
        81        1.9989           -0.5238966             -14.2560
        82        1.9987           -0.5209777             -14.1765
        83        1.9985           -0.5182361             -14.1019
        84        1.9980           -0.5135126             -13.9734
        85        1.9978           -0.5120604             -13.9339
        86        1.9834           -0.4800558             -13.0630
        87        1.9683           -0.4696924             -12.7810
        88        1.9670           -0.4690418             -12.7633
        89        1.8794           -0.4478059             -12.1854
        90        0.9379           -0.4023552             -10.9486 (HOMO)
        91        0.7644           -0.3967229             -10.7954 (LUMO)
        92        0.4773           -0.3859586             -10.5025
        93        0.0241           -0.3345783              -9.1043
        94        0.0058           -0.3117766              -8.4839
        95        0.0035           -0.3038407              -8.2679
        96        0.0030           -0.3013513              -8.2002
        97        0.0000           -0.2273382              -6.1862
        98        0.0000           -0.1787376              -4.8637
        99                         -0.1276755              -3.4742
       100                         -0.0869095              -2.3649
       101                         -0.0694334              -1.8894
       ...                                ...                  ...
       171                          1.9807876              53.9000
      -------------------------------------------------------------
                  HL-Gap            0.0056324 Eh            0.1533 eV

     #   Z          covCN         q      C6AA      α(0)
     1   7 N        1.774    -0.284    28.172     7.860
     2   6 C        2.826     0.097    25.843     8.330
     3   6 C        3.911     0.005    20.429     6.424
     4   6 C        2.961     0.005    27.909     8.665
     5   6 C        2.918    -0.092    30.319     9.029
     6   6 C        2.846     0.123    25.298     8.243
     7   8 O        1.706    -0.247    18.090     5.742
     8   6 C        3.643     0.030    20.407     6.494
     9   6 C        2.851     0.111    25.544     8.284
    10   8 O        1.706    -0.207    17.448     5.640
    11   6 C        3.644     0.022    20.550     6.516
    12   6 C        3.806    -0.105    22.503     6.753
    13   6 C        2.908    -0.075    29.879     8.963
    14   6 C        3.811    -0.064    21.723     6.634
    15   6 C        3.802    -0.068    21.804     6.648
    16   6 C        2.843    -0.004    28.106     8.688
    17   7 N        2.729     0.001    21.239     6.845
    18   6 C        3.755    -0.015    20.901     6.519
    19   6 C        3.807    -0.070    21.831     6.651
    20   6 C        2.970    -0.002    28.079     8.692
    21   6 C        2.922    -0.050    29.253     8.870
    22   6 C        2.914    -0.069    29.711     8.938
    23   6 C        2.865     0.131    25.120     8.216
    24   8 O        1.706    -0.227    17.772     5.692
    25   6 C        3.645     0.027    20.458     6.500
    26   6 C        2.863     0.131    25.128     8.217
    27   8 O        1.706    -0.230    17.813     5.698
    28   6 C        3.645     0.029    20.421     6.495
    29   6 C        2.920    -0.080    30.010     8.983
    30   6 C        3.699    -0.066    21.936     6.698
    31   6 C        3.857    -0.001    20.554     6.448
    32   6 C        2.842    -0.091    30.272     9.017
    33   6 C        3.756    -0.114    22.731     6.798
    34   1 H        0.926     0.052     2.300     2.371
    35   1 H        0.924     0.050     2.318     2.381
    36   1 H        0.925     0.079     1.990     2.206
    37   1 H        0.924     0.044     2.397     2.421
    38   1 H        0.924     0.061     2.189     2.314
    39   1 H        0.925     0.087     1.904     2.158
    40   1 H        0.924     0.055     2.254     2.348
    41   1 H        0.919     0.065     2.145     2.291
    42   1 H        0.926     0.039     2.456     2.451
    43   1 H        0.925     0.057     2.233     2.337
    44   1 H        0.924     0.054     2.276     2.359
    45   1 H        0.925     0.065     2.143     2.289
    46   1 H        0.923     0.075     2.035     2.231
    47   1 H        0.923     0.002     3.021     2.718
    48   1 H        0.926     0.064     2.157     2.297
    49   1 H        0.924     0.063     2.159     2.298
    50   1 H        0.924     0.066     2.127     2.281
    51   1 H        0.924     0.053     2.281     2.362
    52   1 H        0.924     0.053     2.284     2.364
    53   1 H        0.926     0.042     2.420     2.433
    54   1 H        0.926     0.056     2.251     2.346
    55   1 H        0.924     0.051     2.304     2.374
    56   1 H        0.924     0.053     2.277     2.360
    57   1 H        0.925     0.080     1.982     2.202
    58   1 H        0.925     0.079     1.987     2.204
    59   1 H        0.924     0.046     2.374     2.409
    60   1 H        0.924     0.050     2.319     2.381
    61   1 H        0.926     0.044     2.391     2.418
    62   1 H        0.924     0.073     2.052     2.240
    63   1 H        0.924     0.072     2.060     2.244
    64   1 H        0.925     0.076     2.018     2.221
    65   1 H        0.924     0.051     2.308     2.376
    66   1 H        0.926     0.068     2.112     2.273
    67   1 H        0.931     0.137     1.481     1.903
    68   1 H        0.926     0.057     2.233     2.337
    69   1 H        0.925     0.071     2.076     2.253
    70   1 H        0.925     0.048     2.350     2.397
    71   1 H        0.925     0.057     2.231     2.336
    72   1 H        0.860     0.153     1.381     1.841

Wiberg/Mayer (AO) data.
largest (>0.10) Wiberg bond orders for each atom

     #   Z sym  total        # sym  WBO       # sym  WBO       # sym  WBO
 ---------------------------------------------------------------------------
     1   7 N    3.021 --     2 C    1.946    72 H    0.945
     2   6 C    3.926 --     1 N    1.946     3 C    0.994    47 H    0.915
     3   6 C    3.975 --     2 C    0.994     4 C    0.964    14 C    0.961
                            31 C    0.939
     4   6 C    3.976 --    13 C    1.629     5 C    1.249     3 C    0.964
     5   6 C    3.710 --     6 C    1.336     4 C    1.249    34 H    0.960
     6   6 C    3.905 --     9 C    1.338     5 C    1.336     7 O    1.073
     7   8 O    2.232 --     6 C    1.073     8 C    0.981
     8   6 C    3.936 --     7 O    0.981    36 H    0.977    35 H    0.975
                            37 H    0.974
     9   6 C    3.646 --     6 C    1.338    10 O    1.135    12 C    1.015
    10   8 O    2.249 --     9 C    1.135    11 C    0.975
    11   6 C    3.926 --    39 H    0.976    10 O    0.975    38 H    0.971
                            40 H    0.970
    12   6 C    3.964 --    13 C    1.023     9 C    1.015    67 H    0.939
                            41 H    0.906
    13   6 C    3.776 --     4 C    1.629    12 C    1.023    42 H    0.963
    14   6 C    3.973 --    15 C    0.983    44 H    0.972    43 H    0.968
                             3 C    0.961
    15   6 C    3.986 --    16 C    1.059    14 C    0.983    45 H    0.960
                            46 H    0.930
    16   6 C    3.530 --    17 N    1.370    15 C    1.059    48 H    0.959
    17   7 N    3.441 --    16 C    1.370    30 C    1.001    18 C    0.990
    18   6 C    3.957 --    17 N    0.990    50 H    0.968    19 C    0.966
                            49 H    0.965
    19   6 C    3.975 --    20 C    1.008    52 H    0.973    51 H    0.972
                            18 C    0.966
    20   6 C    3.952 --    21 C    1.415    29 C    1.377    19 C    1.008
    21   6 C    3.957 --    20 C    1.415    22 C    1.414    53 H    0.968
    22   6 C    3.964 --    21 C    1.414    23 C    1.388    54 H    0.964
    23   6 C    3.903 --    22 C    1.388    26 C    1.226    24 O    1.103
    24   8 O    2.254 --    23 C    1.103    25 C    0.978
    25   6 C    3.932 --    24 O    0.978    57 H    0.977    55 H    0.974
                            56 H    0.973
    26   6 C    3.906 --    29 C    1.400    23 C    1.226    27 O    1.097
    27   8 O    2.253 --    26 C    1.097    28 C    0.980
    28   6 C    3.935 --    27 O    0.980    58 H    0.977    59 H    0.974
                            60 H    0.974
    29   6 C    3.963 --    26 C    1.400    20 C    1.377    61 H    0.963
    30   6 C    3.962 --    17 N    1.001    64 H    0.978    62 H    0.967
                            63 H    0.967
    31   6 C    3.976 --    32 C    1.089    65 H    0.948    33 C    0.943
                             3 C    0.939
    32   6 C    3.102 --    31 C    1.089    68 H    0.981    66 H    0.977
    33   6 C    3.919 --    71 H    0.983    69 H    0.977    70 H    0.977
                            31 C    0.943
    34   1 H    0.996 --     5 C    0.960
    35   1 H    0.995 --     8 C    0.975
    36   1 H    0.993 --     8 C    0.977
    37   1 H    0.996 --     8 C    0.974
    38   1 H    0.989 --    11 C    0.971
    39   1 H    0.992 --    11 C    0.976
    40   1 H    0.991 --    11 C    0.970
    41   1 H    0.946 --    12 C    0.906
    42   1 H    0.998 --    13 C    0.963
    43   1 H    0.995 --    14 C    0.968
    44   1 H    0.996 --    14 C    0.972
    45   1 H    0.995 --    15 C    0.960
    46   1 H    0.968 --    15 C    0.930
    47   1 H    0.992 --     2 C    0.915
    48   1 H    0.996 --    16 C    0.959
    49   1 H    0.991 --    18 C    0.965
    50   1 H    0.994 --    18 C    0.968
    51   1 H    0.996 --    19 C    0.972
    52   1 H    0.996 --    19 C    0.973
    53   1 H    0.998 --    21 C    0.968
    54   1 H    0.995 --    22 C    0.964
    55   1 H    0.993 --    25 C    0.974
    56   1 H    0.993 --    25 C    0.973
    57   1 H    0.993 --    25 C    0.977
    58   1 H    0.993 --    28 C    0.977
    59   1 H    0.994 --    28 C    0.974
    60   1 H    0.994 --    28 C    0.974
    61   1 H    0.997 --    29 C    0.963
    62   1 H    0.984 --    30 C    0.967
    63   1 H    0.988 --    30 C    0.967
    64   1 H    0.994 --    30 C    0.978
    65   1 H    0.983 --    31 C    0.948
    66   1 H    0.994 --    32 C    0.977
    67   1 H    0.968 --    12 C    0.939
    68   1 H    0.995 --    32 C    0.981
    69   1 H    0.994 --    33 C    0.977
    70   1 H    0.990 --    33 C    0.977
    71   1 H    0.995 --    33 C    0.983
    72   1 H    0.973 --     1 N    0.945
 ---------------------------------------------------------------------------

molecular dipole:
                 x           y           z       tot (Debye)
 q only:       -0.689      -0.298      -0.203
   full:       -0.426      -0.376      -0.303       1.636

           -------------------------------------------------
          | TOTAL ENERGY             -105.527426103336 Eh   |
          | GRADIENT NORM               0.002688492285 Eh/α |
          | HOMO-LUMO GAP               0.153264776694 eV   |
           -------------------------------------------------

 * finished run on 2024/04/06 at 11:16:26.683
