   * xtb version 6.6.1 (8d0f1dd) compiled by 'conda@1efc2f54142f' on 2023-08-01
          program call               : xtb xtbopt.xyz --opt crude --input .xc2 --gfn2

   ID    Z sym.   atoms
    1    7 N      1, 17
    2    6 C      2-6, 8, 9, 11-16, 18-23, 25, 26, 28-33
    3    8 O      7, 10, 24, 27
    4    1 H      34-72
########################################################################
[WARNING] Please study the warnings concerning your input carefully
-1- readin_getIntValue: could not parse ''
########################################################################

          :  Hamiltonian                  GFN2-xTB          :
 * total energy  :   -99.0348335 Eh     change       -0.5826450E-11 Eh
 * total energy  :   -99.3024806 Eh     change       -0.2676471E+00 Eh
 * total energy  :   -99.3049218 Eh     change       -0.2441255E-02 Eh
 * total energy  :   -99.3059851 Eh     change       -0.1063237E-02 Eh
 * total energy  :   -99.3062638 Eh     change       -0.2787846E-03 Eh
 * total energy  :   -99.3064618 Eh     change       -0.1979181E-03 Eh
   *** GEOMETRY OPTIMIZATION CONVERGED AFTER 6 ITERATIONS ***

 final structure:
================
72
 xtb: 6.6.1 (8d0f1dd)
N           -1.88839502228448        3.03655662543650        2.20049624976224
C           -1.84307421246524        2.21546309886760        1.25690817053824
C           -2.96470574379599        1.99498516552663        0.27828691291901
C           -3.46818756656755        0.56063864505599        0.39470620557759
C           -4.27953006082776        0.03640481711274       -0.64003993133592
C           -4.82076957913869       -1.24648593889987       -0.55820058254703
O           -5.59836336261135       -1.81542261263077       -1.51517506835243
C           -5.96591533959092       -1.05519252358710       -2.64183852525939
C           -4.58051020903619       -2.04596467586219        0.55980585177157
O           -5.15072525363204       -3.26334978263212        0.56910221700353
C           -5.02712943318467       -4.08983392016714        1.70156945211983
C           -3.73936268921200       -1.56415199804037        1.69294948943551
C           -3.19723588439829       -0.18968421448299        1.49019922942624
C           -2.37582873782310        2.28380052952068       -1.12458892061246
C           -1.45429597564252        1.17991567590331       -1.67216612014568
C           -0.13210856898337        1.13276445102265       -1.01011568859575
N            0.49219853543219        0.02437270945834       -0.60907836554416
C            1.88181031351069        0.07306812037616       -0.22366650458211
C            2.81410782475438       -0.35159125117451       -1.37573344258970
C            4.24580299051692       -0.14629755209825       -0.96834422775733
C            4.86620516927363        1.07443888835327       -1.17252571466451
C            6.17276430086524        1.28484338424680       -0.75878927070217
C            6.88364019072867        0.27612799990169       -0.12631807525857
O            8.15140661500069        0.37055352298586        0.32221827059159
C            8.84850657020456        1.58275074245201        0.15188856517585
C            6.25672381340582       -0.98155747520985        0.08429642990025
O            7.02232244137535       -1.90856288160372        0.69872864247770
C            6.49731976852225       -3.19485896794349        0.92059281647432
C            4.94972120489018       -1.16821768005349       -0.33519357920593
C           -0.13722119663479       -1.27148347462851       -0.67635018371945
C           -4.20282939580646        2.90379550234816        0.53318727865509
C           -4.81905905355933        2.63347311776346        1.84200919397869
C           -3.88273066799742        4.41258268010478        0.42781429182897
H           -4.50464371248432        0.64713791856777       -1.49553318876703
H           -6.52468286944462       -0.15804914252377       -2.35813064629860
H           -6.60888623651498       -1.70536273288222       -3.23195802068140
H           -5.09474561166081       -0.77166363301074       -3.24169058347968
H           -5.46109785976551       -3.62269117554337        2.59061971132013
H           -5.58238651923509       -4.99573376198363        1.46598079194052
H           -3.98330460044901       -4.34836783229518        1.90424730927840
H           -2.90126259846446       -2.26740950995418        1.84675943556687
H           -2.60055338134116        0.19990341819350        2.30014198511901
H           -3.19496194872205        2.42394500381085       -1.82976557421969
H           -1.81889123270258        3.22075496634674       -1.08020253759021
H           -1.96361937659930        0.21921459092869       -1.62051013796758
H           -1.28502578478060        1.40906088809994       -2.73289468709442
H           -0.96073705094399        1.59725194435164        1.01539100348385
H            0.43243650148618        2.05025260549775       -0.95003949561999
H            2.04173123571644       -0.58393956048185        0.63534744995888
H            2.13555867415220        1.09229958008126        0.07480117770908
H            2.58515509351432        0.25794308654997       -2.25168647674978
H            2.63595696212291       -1.39811864958059       -1.62562539170343
H            4.33665547326697        1.87366962284344       -1.66878949074225
H            6.63089746661385        2.24343119891491       -0.93867598677963
H            8.35095164706985        2.40775245981190        0.67119052516811
H            8.96386423588855        1.83375602639805       -0.90692795960172
H            9.83006255985923        1.41932316510932        0.59260794670510
H            7.29567166336327       -3.75736361587543        1.40083211324819
H            5.62726453957547       -3.16507005793482        1.58486508466964
H            6.22429152940386       -3.68529978863104       -0.01915282056812
H            4.46584245497473       -2.12054795797596       -0.18402169726942
H           -0.27135814409733       -1.59830737771343       -1.71052930667879
H           -1.11432835785964       -1.24202551865465       -0.18901395694113
H            0.48708092734988       -1.99861261876702       -0.16259081484848
H           -4.93580006197737        2.68207322593506       -0.25262438405984
H           -4.20847000618788        2.42285732101419        2.69577680614208
H           -4.30727339916591       -1.59597194000933        2.63166811158105
H           -5.86079746980475        2.84355056814000        1.99021630690258
H           -3.10665228536518        4.67272917592265        1.13923909978636
H           -3.56684351957932        4.67289056699451       -0.57836769372352
H           -4.77668455214939        4.98329709864532        0.66364668691896
H           -1.05845057335125        3.12169923674306        2.78002908172250

          :  Hamiltonian                  GFN2-xTB          :
         :: total energy             -99.306461764124 Eh    ::
         :: gradient norm              0.005510194837 Eh/a0 ::
         :: HOMO-LUMO gap              0.145752589958 eV    ::
         :: SCC energy              -100.660349974912 Eh    ::
         :: -> dispersion             -0.074533918260 Eh    ::
         :: repulsion energy           1.352612535259 Eh    ::

    * Orbital Energies and Occupations

         #    Occupation            Energy/Eh            Energy/eV
      -------------------------------------------------------------
         1        2.0000           -0.8211690             -22.3451
       ...           ...                  ...                  ...
        78        1.9993           -0.5301964             -14.4274
        79        1.9993           -0.5296183             -14.4116
        80        1.9990           -0.5244730             -14.2716
        81        1.9990           -0.5239604             -14.2577
        82        1.9987           -0.5207839             -14.1712
        83        1.9985           -0.5180154             -14.0959
        84        1.9980           -0.5132969             -13.9675
        85        1.9978           -0.5119158             -13.9299
        86        1.9835           -0.4799065             -13.0589
        87        1.9682           -0.4693748             -12.7723
        88        1.9666           -0.4686209             -12.7518
        89        1.8799           -0.4476248             -12.1805
        90        0.9336           -0.4019611             -10.9379 (HOMO)
        91        0.7686           -0.3966048             -10.7922 (LUMO)
        92        0.4772           -0.3856937             -10.4953
        93        0.0242           -0.3343570              -9.0983
        94        0.0057           -0.3112035              -8.4683
        95        0.0035           -0.3036477              -8.2627
        96        0.0030           -0.3011725              -8.1953
        97        0.0000           -0.2283076              -6.2126
        98        0.0000           -0.1785150              -4.8576
        99                         -0.1270708              -3.4578
       100                         -0.0813052              -2.2124
       101                         -0.0672966              -1.8312
       ...                                ...                  ...
       171                          0.5858115              15.9407
      -------------------------------------------------------------
                  HL-Gap            0.0053563 Eh            0.1458 eV

     #   Z          covCN         q      C6AA      α(0)
     1   7 N        1.774    -0.284    28.173     7.860
     2   6 C        2.826     0.097    25.842     8.330
     3   6 C        3.910     0.005    20.430     6.424
     4   6 C        2.963     0.006    27.896     8.663
     5   6 C        2.918    -0.092    30.310     9.028
     6   6 C        2.847     0.124    25.277     8.240
     7   8 O        1.706    -0.246    18.074     5.740
     8   6 C        3.643     0.030    20.411     6.495
     9   6 C        2.851     0.116    25.443     8.267
    10   8 O        1.706    -0.206    17.430     5.637
    11   6 C        3.644     0.022    20.540     6.515
    12   6 C        3.808    -0.068    21.798     6.646
    13   6 C        2.908    -0.070    29.741     8.942
    14   6 C        3.811    -0.064    21.720     6.634
    15   6 C        3.802    -0.068    21.798     6.647
    16   6 C        2.843    -0.003    28.104     8.688
    17   7 N        2.729     0.001    21.242     6.845
    18   6 C        3.756    -0.015    20.897     6.518
    19   6 C        3.808    -0.070    21.830     6.651
    20   6 C        2.970    -0.002    28.080     8.692
    21   6 C        2.922    -0.051    29.254     8.870
    22   6 C        2.914    -0.069    29.712     8.938
    23   6 C        2.865     0.131    25.121     8.216
    24   8 O        1.706    -0.228    17.773     5.692
    25   6 C        3.645     0.027    20.457     6.500
    26   6 C        2.863     0.131    25.128     8.217
    27   8 O        1.706    -0.230    17.814     5.699
    28   6 C        3.645     0.029    20.421     6.495
    29   6 C        2.920    -0.080    30.009     8.983
    30   6 C        3.699    -0.066    21.932     6.698
    31   6 C        3.857    -0.001    20.555     6.448
    32   6 C        2.842    -0.091    30.271     9.017
    33   6 C        3.756    -0.114    22.731     6.798
    34   1 H        0.926     0.052     2.301     2.372
    35   1 H        0.924     0.050     2.317     2.381
    36   1 H        0.925     0.079     1.988     2.205
    37   1 H        0.924     0.044     2.393     2.419
    38   1 H        0.924     0.060     2.195     2.317
    39   1 H        0.925     0.088     1.895     2.153
    40   1 H        0.924     0.055     2.260     2.351
    41   1 H        0.922     0.068     2.104     2.268
    42   1 H        0.926     0.040     2.452     2.449
    43   1 H        0.925     0.057     2.233     2.337
    44   1 H        0.924     0.054     2.277     2.360
    45   1 H        0.925     0.065     2.146     2.291
    46   1 H        0.923     0.075     2.036     2.231
    47   1 H        0.923     0.002     3.016     2.716
    48   1 H        0.926     0.064     2.158     2.297
    49   1 H        0.924     0.063     2.160     2.299
    50   1 H        0.924     0.066     2.129     2.282
    51   1 H        0.924     0.053     2.283     2.363
    52   1 H        0.924     0.053     2.285     2.364
    53   1 H        0.926     0.042     2.422     2.433
    54   1 H        0.926     0.056     2.252     2.347
    55   1 H        0.924     0.051     2.304     2.374
    56   1 H        0.924     0.053     2.278     2.360
    57   1 H        0.925     0.080     1.982     2.202
    58   1 H        0.925     0.079     1.987     2.205
    59   1 H        0.924     0.046     2.374     2.410
    60   1 H        0.924     0.050     2.320     2.382
    61   1 H        0.926     0.044     2.391     2.418
    62   1 H        0.924     0.073     2.056     2.242
    63   1 H        0.924     0.073     2.053     2.241
    64   1 H        0.925     0.076     2.021     2.223
    65   1 H        0.924     0.051     2.303     2.373
    66   1 H        0.926     0.067     2.118     2.276
    67   1 H        0.924     0.081     1.964     2.192
    68   1 H        0.926     0.057     2.231     2.336
    69   1 H        0.925     0.071     2.075     2.253
    70   1 H        0.925     0.048     2.349     2.397
    71   1 H        0.925     0.057     2.231     2.336
    72   1 H        0.860     0.153     1.381     1.841

Wiberg/Mayer (AO) data.
largest (>0.10) Wiberg bond orders for each atom

     #   Z sym  total        # sym  WBO       # sym  WBO       # sym  WBO
 ---------------------------------------------------------------------------
     1   7 N    3.021 --     2 C    1.946    72 H    0.945
     2   6 C    3.926 --     1 N    1.946     3 C    0.995    47 H    0.915
     3   6 C    3.975 --     2 C    0.995     4 C    0.965    14 C    0.961
                            31 C    0.940
     4   6 C    3.976 --    13 C    1.622     5 C    1.252     3 C    0.965
     5   6 C    3.716 --     6 C    1.339     4 C    1.252    34 H    0.960
     6   6 C    3.905 --     5 C    1.339     9 C    1.331     7 O    1.075
     7   8 O    2.234 --     6 C    1.075     8 C    0.980
     8   6 C    3.935 --     7 O    0.980    36 H    0.977    37 H    0.975
                            35 H    0.975
     9   6 C    3.652 --     6 C    1.331    10 O    1.133    12 C    1.032
    10   8 O    2.249 --     9 C    1.133    11 C    0.977
    11   6 C    3.926 --    10 O    0.977    39 H    0.976    40 H    0.970
                            38 H    0.969
    12   6 C    3.983 --    13 C    1.038     9 C    1.032    41 H    0.920
                            67 H    0.919
    13   6 C    3.780 --     4 C    1.622    12 C    1.038    42 H    0.963
    14   6 C    3.973 --    15 C    0.983    44 H    0.972    43 H    0.968
                             3 C    0.961
    15   6 C    3.986 --    16 C    1.058    14 C    0.983    45 H    0.960
                            46 H    0.930
    16   6 C    3.530 --    17 N    1.369    15 C    1.058    48 H    0.959
    17   7 N    3.441 --    16 C    1.369    30 C    1.001    18 C    0.990
    18   6 C    3.957 --    17 N    0.990    50 H    0.968    19 C    0.966
                            49 H    0.965
    19   6 C    3.975 --    20 C    1.008    52 H    0.973    51 H    0.972
                            18 C    0.966
    20   6 C    3.952 --    21 C    1.415    29 C    1.377    19 C    1.008
    21   6 C    3.957 --    20 C    1.415    22 C    1.414    53 H    0.968
    22   6 C    3.964 --    21 C    1.414    23 C    1.388    54 H    0.964
    23   6 C    3.903 --    22 C    1.388    26 C    1.226    24 O    1.103
    24   8 O    2.254 --    23 C    1.103    25 C    0.978
    25   6 C    3.932 --    24 O    0.978    57 H    0.977    55 H    0.974
                            56 H    0.973
    26   6 C    3.906 --    29 C    1.400    23 C    1.226    27 O    1.096
    27   8 O    2.253 --    26 C    1.096    28 C    0.980
    28   6 C    3.935 --    27 O    0.980    58 H    0.977    59 H    0.974
                            60 H    0.974
    29   6 C    3.963 --    26 C    1.400    20 C    1.377    61 H    0.963
    30   6 C    3.962 --    17 N    1.001    64 H    0.978    62 H    0.967
                            63 H    0.967
    31   6 C    3.976 --    32 C    1.090    65 H    0.948    33 C    0.942
                             3 C    0.940
    32   6 C    3.102 --    31 C    1.090    68 H    0.981    66 H    0.977
    33   6 C    3.919 --    71 H    0.983    69 H    0.977    70 H    0.977
                            31 C    0.942
    34   1 H    0.996 --     5 C    0.960
    35   1 H    0.995 --     8 C    0.975
    36   1 H    0.993 --     8 C    0.977
    37   1 H    0.996 --     8 C    0.975
    38   1 H    0.989 --    11 C    0.969
    39   1 H    0.992 --    11 C    0.976
    40   1 H    0.991 --    11 C    0.970
    41   1 H    0.954 --    12 C    0.920
    42   1 H    0.998 --    13 C    0.963
    43   1 H    0.995 --    14 C    0.968
    44   1 H    0.996 --    14 C    0.972
    45   1 H    0.995 --    15 C    0.960
    46   1 H    0.968 --    15 C    0.930
    47   1 H    0.992 --     2 C    0.915
    48   1 H    0.996 --    16 C    0.959
    49   1 H    0.991 --    18 C    0.965
    50   1 H    0.994 --    18 C    0.968
    51   1 H    0.996 --    19 C    0.972
    52   1 H    0.996 --    19 C    0.973
    53   1 H    0.998 --    21 C    0.968
    54   1 H    0.995 --    22 C    0.964
    55   1 H    0.993 --    25 C    0.974
    56   1 H    0.993 --    25 C    0.973
    57   1 H    0.993 --    25 C    0.977
    58   1 H    0.993 --    28 C    0.977
    59   1 H    0.994 --    28 C    0.974
    60   1 H    0.994 --    28 C    0.974
    61   1 H    0.997 --    29 C    0.963
    62   1 H    0.984 --    30 C    0.967
    63   1 H    0.988 --    30 C    0.967
    64   1 H    0.994 --    30 C    0.978
    65   1 H    0.982 --    31 C    0.948
    66   1 H    0.994 --    32 C    0.977
    67   1 H    0.953 --    12 C    0.919
    68   1 H    0.995 --    32 C    0.981
    69   1 H    0.994 --    33 C    0.977
    70   1 H    0.990 --    33 C    0.977
    71   1 H    0.995 --    33 C    0.983
    72   1 H    0.973 --     1 N    0.945
 ---------------------------------------------------------------------------

molecular dipole:
                 x           y           z       tot (Debye)
 q only:       -0.707      -0.296      -0.247
   full:       -0.453      -0.390      -0.297       1.695

           -------------------------------------------------
          | TOTAL ENERGY              -99.306461764124 Eh   |
          | GRADIENT NORM               0.005510194837 Eh/α |
          | HOMO-LUMO GAP               0.145752589958 eV   |
           -------------------------------------------------

 * finished run on 2024/04/06 at 11:16:28.001
