   * xtb version 6.6.1 (8d0f1dd) compiled by 'conda@1efc2f54142f' on 2023-08-01
          program call               : xtb struc.xyz --opt loose --input .xc1 --gfn2

   ID    Z sym.   atoms
    1    6 C      1, 3, 5-7, 10, 11, 14
    2    7 N      2, 4, 9, 13
    3    8 O      8, 12
    4    1 H      15-25
constraining bond 7 21 to    3.7133300 Å, actual value:    3.1541658 Å

          :  Hamiltonian                  GFN2-xTB          :
 * total energy  :   -42.8061312 Eh     change       -0.6650680E-10 Eh
 * total energy  :   -45.0651595 Eh     change       -0.2259028E+01 Eh
 * total energy  :   -48.9688547 Eh     change       -0.3903695E+01 Eh
 * total energy  :   -54.7343679 Eh     change       -0.5765513E+01 Eh
 * total energy  :   -57.4459023 Eh     change       -0.2711534E+01 Eh
 * total energy  :   -58.0003419 Eh     change       -0.5544396E+00 Eh
 * total energy  :   -58.8034237 Eh     change       -0.8030818E+00 Eh
 * total energy  :   -58.1057615 Eh     change        0.6976622E+00 Eh
 * total energy  :   -59.2774168 Eh     change       -0.1171655E+01 Eh
 * total energy  :   -59.3708345 Eh     change       -0.9341766E-01 Eh
 * total energy  :   -59.7324622 Eh     change       -0.2245496E-03 Eh
 * total energy  :   -59.7326328 Eh     change       -0.1706740E-03 Eh
 * total energy  :   -59.7328259 Eh     change       -0.1930801E-03 Eh
 * total energy  :   -59.7329849 Eh     change       -0.1589333E-03 Eh
 * total energy  :   -59.7330696 Eh     change       -0.8476529E-04 Eh
 * total energy  :   -59.7331162 Eh     change       -0.4658039E-04 Eh
 * total energy  :   -59.7331458 Eh     change       -0.2960797E-04 Eh
 * total energy  :   -59.7331725 Eh     change       -0.2669370E-04 Eh
 * total energy  :   -59.7331992 Eh     change       -0.2673013E-04 Eh
   *** GEOMETRY OPTIMIZATION CONVERGED AFTER 42 ITERATIONS ***

 final structure:
================
25
 xtb: 6.6.1 (8d0f1dd)
C            3.12699761664992        1.18436627261266        0.22661727777308
N            2.14476464038194        0.13987771766316        0.10428549740603
C            2.37708689422073       -1.12488959744137       -0.21724891927363
N            1.21183852631486       -1.79564379628528       -0.23566454974784
C            0.20576024731093       -0.92220150058944        0.08786812715688
C            0.80364128474361        0.29851312216144        0.31956151887738
C            0.07606314288211        1.61673412922939        0.77938693033568
O            0.45408257496657        2.63166144111344        0.15022645904543
N           -1.59175968408200        1.03226852931197       -0.12331217890527
C           -2.21083827997684        1.98342319135765       -0.69701444869127
C           -2.10964314319148       -0.27664876117409       -0.05435963049303
O           -3.27583086282802       -0.54319064692300       -0.11955079342261
N           -1.12279896795221       -1.24396456457911        0.10160199296554
C           -1.52685934639752       -2.63851754492363        0.13040802205840
H            3.51478834807513        1.22156745173751        1.24641467874184
H            3.95085849126067        1.00312104631292       -0.46064608307349
H            2.65729331377704        2.14088310080384       -0.00556888436671
H            3.33700941070581       -1.55114760024007       -0.43029479711776
H           -1.73337487488306        2.95604651408767       -0.68159927449949
H           -3.15742799509190        1.84437088010914       -1.20471104995684
H           -0.13003492252383        1.59124741880212        1.14934261600806
H           -1.02624498613104       -3.15643676923798        0.94796505462672
H           -1.31438608414242       -3.13341533235613       -0.81959833946560
H           -2.60298308239354       -2.66545242213958        0.29697140343957
H            1.10242925240370       -2.77433373781305       -0.45990901152279

          :  Hamiltonian                  GFN2-xTB          :
         :: total energy             -59.733199240707 Eh    ::
         :: gradient norm              0.003646647584 Eh/a0 ::
         :: HOMO-LUMO gap              2.337379776993 eV    ::
         :: SCC energy               -42.687373164221 Eh    ::
         :: -> dispersion             -0.023101855568 Eh    ::
         :: repulsion energy           2.269902997042 Eh    ::

    * Orbital Energies and Occupations

         #    Occupation            Energy/Eh            Energy/eV
      -------------------------------------------------------------
         1        2.0000           -0.9090142             -24.7355
       ...           ...                  ...                  ...
        25        2.0000           -0.6720784             -18.2882
        26        2.0000           -0.6658922             -18.1198
        27        2.0000           -0.6589205             -17.9301
        28        1.9998           -0.6346629             -17.2701
        29        1.9998           -0.6345600             -17.2673
        30        1.9997           -0.6282732             -17.0962
        31        1.9996           -0.6240864             -16.9823
        32        1.9993           -0.6164365             -16.7741
        33        1.9991           -0.6120677             -16.6552
        34        1.9962           -0.5891380             -16.0313
        35        1.9798           -0.5623447             -15.3022
        36        1.9431           -0.5456780             -14.8487
        37        1.8994           -0.5363042             -14.5936 (HOMO)
        38        0.1536           -0.4504071             -12.2562 (LUMO)
        39        0.0224           -0.4188192             -11.3967
        40        0.0080           -0.4024080             -10.9501
        41        0.0003           -0.3505424              -9.5387
        42        0.0001           -0.3281883              -8.9305
        43                         -0.1928612              -5.2480
        44                         -0.1865564              -5.0765
        45                         -0.1563891              -4.2556
        46                         -0.1003319              -2.7302
        47                         -0.0675184              -1.8373
        48                         -0.0503251              -1.3694
       ...                                ...                  ...
        67                         10.5002557             285.7265
      -------------------------------------------------------------
                  HL-Gap            0.0858971 Eh            2.3374 eV

     #   Z          covCN         q      C6AA      α(0)
     1   6 C        3.693    -0.094    22.485     6.785
     2   7 N        2.852     0.090    19.686     6.590
     3   6 C        3.048     0.049    26.857     8.500
     4   7 N        2.810    -0.058    22.357     7.023
     5   6 C        3.033     0.106    25.631     8.304
     6   6 C        3.098    -0.022    28.418     8.736
     7   6 C        3.136     0.154    24.456     8.094
     8   8 O        0.863    -0.392    21.517     6.219
     9   7 N        2.208    -0.153    24.737     7.381
    10   6 C        2.791     0.054    26.768     8.475
    11   6 C        2.729     0.330    21.394     7.572
    12   8 O        0.858    -0.340    20.515     6.073
    13   7 N        2.738    -0.060    22.398     7.029
    14   6 C        3.700    -0.072    22.044     6.714
    15   1 H        0.924     0.108     1.712     2.046
    16   1 H        0.925     0.103     1.758     2.073
    17   1 H        0.924     0.137     1.480     1.902
    18   1 H        0.926     0.123     1.586     1.969
    19   1 H        0.925     0.139     1.469     1.895
    20   1 H        0.925     0.119     1.625     1.994
    21   1 H        0.939     0.166     1.286     1.773
    22   1 H        0.925     0.081     1.971     2.195
    23   1 H        0.924     0.078     1.999     2.211
    24   1 H        0.925     0.123     1.592     1.973
    25   1 H        0.860     0.229     0.967     1.541

Wiberg/Mayer (AO) data.
largest (>0.10) Wiberg bond orders for each atom

     #   Z sym  total        # sym  WBO       # sym  WBO       # sym  WBO
 ---------------------------------------------------------------------------
     1   6 C    3.916 --     2 N    0.985    16 H    0.970    17 H    0.956
                            15 H    0.955
     2   7 N    3.718 --     3 C    1.387     6 C    1.204     1 C    0.985
     3   6 C    3.897 --     2 N    1.387     4 N    1.300    18 H    0.952
     4   7 N    3.603 --     3 C    1.300     5 C    1.181    25 H    0.917
     5   6 C    3.933 --     6 C    1.431     4 N    1.181    13 N    1.139
     6   6 C    3.869 --     5 C    1.431     2 N    1.204     7 C    0.907
     7   6 C    3.912 --     8 O    1.670    21 H    0.948     6 C    0.907
                             9 N    0.310
     8   8 O    1.946 --     7 C    1.670     9 N    0.129
     9   7 N    3.366 --    10 C    1.783    11 C    1.013     7 C    0.310
                             8 O    0.129
    10   6 C    3.752 --     9 N    1.783    19 H    0.944    20 H    0.943
    11   6 C    3.923 --    12 O    1.731    13 N    1.095     9 N    1.013
    12   8 O    2.055 --    11 C    1.731    13 N    0.142
    13   7 N    3.515 --     5 C    1.139    11 C    1.095    14 C    0.976
                            12 O    0.142
    14   6 C    3.929 --    13 N    0.976    22 H    0.974    23 H    0.969
                            24 H    0.965
    15   1 H    0.987 --     1 C    0.955
    16   1 H    0.988 --     1 C    0.970
    17   1 H    0.980 --     1 C    0.956
    18   1 H    0.984 --     3 C    0.952
    19   1 H    0.977 --    10 C    0.944
    20   1 H    0.979 --    10 C    0.943
    21   1 H    0.964 --     7 C    0.948
    22   1 H    0.990 --    14 C    0.974
    23   1 H    0.990 --    14 C    0.969
    24   1 H    0.984 --    14 C    0.965
    25   1 H    0.946 --     4 N    0.917
 ---------------------------------------------------------------------------

molecular dipole:
                 x           y           z       tot (Debye)
 q only:        2.224      -1.624      -0.049
   full:        2.254      -2.012      -0.158       7.690

           -------------------------------------------------
          | TOTAL ENERGY              -59.733199240707 Eh   |
          | GRADIENT NORM               0.003646647584 Eh/α |
          | HOMO-LUMO GAP               2.337379776993 eV   |
           -------------------------------------------------

 * finished run on 2024/06/05 at 20:00:27.528
