   * xtb version 6.6.1 (8d0f1dd) compiled by 'conda@1efc2f54142f' on 2023-08-01
          program call               : xtb struc.xyz --opt loose --input .xc1 --gfn2

   ID    Z sym.   atoms
    1    6 C      1, 3, 5-7, 10, 11, 14
    2    7 N      2, 4, 9, 13
    3    8 O      8, 12
    4    1 H      15-25
constraining bond 3 25 to    4.1400000 Å, actual value:    2.1044033 Å

          :  Hamiltonian                  GFN2-xTB          :
 * total energy  :   -12.6533511 Eh     change       -0.6650680E-10 Eh
 * total energy  :   -28.7318123 Eh     change       -0.1607846E+02 Eh
 * total energy  :   -37.2818980 Eh     change       -0.8550086E+01 Eh
 * total energy  :   -41.0955971 Eh     change       -0.3813699E+01 Eh
 * total energy  :   -41.8706991 Eh     change       -0.7751020E+00 Eh
 * total energy  :   -41.8940909 Eh     change       -0.2339173E-01 Eh
 * total energy  :   -41.8993907 Eh     change       -0.5299839E-02 Eh
 * total energy  :   -41.9126165 Eh     change       -0.1322578E-01 Eh
 * total energy  :   -41.9205909 Eh     change       -0.7974470E-02 Eh
 * total energy  :   -41.9331364 Eh     change       -0.1254541E-01 Eh
 * total energy  :   -42.0789588 Eh     change       -0.2285049E-03 Eh
 * total energy  :   -42.0789821 Eh     change       -0.2330217E-04 Eh
 * total energy  :   -42.0791364 Eh     change       -0.1543648E-03 Eh
 * total energy  :   -42.0791896 Eh     change       -0.5320243E-04 Eh
 * total energy  :   -42.0792585 Eh     change       -0.6884069E-04 Eh
 * total energy  :   -42.0793204 Eh     change       -0.6194365E-04 Eh
 * total energy  :   -42.0793634 Eh     change       -0.4299645E-04 Eh
 * total energy  :   -42.0794350 Eh     change       -0.7161497E-04 Eh
 * total energy  :   -42.0794582 Eh     change       -0.2318406E-04 Eh
   *** GEOMETRY OPTIMIZATION CONVERGED AFTER 66 ITERATIONS ***

 final structure:
================
25
 xtb: 6.6.1 (8d0f1dd)
C            3.08143925537104        0.99515459121942        0.75341552407553
N            2.44749570005757        0.21979404347707       -0.28642731896295
C            3.05784305007441       -0.16514815197159       -1.31452034979398
N            1.23892762589248       -2.27936913491275        0.22991677182637
C            0.47167692647595       -1.26666376845562        0.06452492563974
C            1.03196189654964        0.02540755408685       -0.16630336093484
C            0.22115275234120        1.21066292468623       -0.28658138942352
O            0.68449407025761        2.32547080745513       -0.45010394817028
N           -1.14769110976047        0.99753432136565       -0.19943278417896
C           -2.03360045522350        2.13447405239910       -0.33093497844824
C           -1.75118361398303       -0.23410051949280       -0.01629016776252
O           -2.95109730463131       -0.33705455880487        0.02068310711976
N           -0.91565881127100       -1.33025002603481        0.13219049870573
C           -1.55135441073046       -2.61323266391646        0.36616733566060
H            2.83373580399325        0.57910681968719        1.73169383596858
H            4.16034076849621        0.99191437956669        0.60309856789362
H            2.71307160394530        2.02462925282108        0.70043232287599
H            2.67840242465751       -0.72093598472249       -2.15278058788677
H           -1.42864451058527        3.03776697220103       -0.38453493493250
H           -2.64014142623180        2.03477521188018       -1.23397768040550
H           -2.71402619063154        2.17348371808190        0.52145350690911
H           -1.26186192277765       -3.01460074509111        1.34062907182663
H           -1.28418081027742       -3.32317221970382       -0.41985631548246
H           -2.63081832923812       -2.45987737106495        0.35471300539940
H            0.85014853132813       -3.18753096315663        0.45399696038185

          :  Hamiltonian                  GFN2-xTB          :
         :: total energy             -42.079458242481 Eh    ::
         :: gradient norm              0.003638783872 Eh/a0 ::
         :: HOMO-LUMO gap              0.533149824861 eV    ::
         :: SCC energy               -42.595360369718 Eh    ::
         :: -> dispersion             -0.022567681864 Eh    ::
         :: repulsion energy           0.515700867864 Eh    ::

    * Orbital Energies and Occupations

         #    Occupation            Energy/Eh            Energy/eV
      -------------------------------------------------------------
         1        2.0000           -0.8967874             -24.4028
       ...           ...                  ...                  ...
        25        1.9992           -0.6662898             -18.1307
        26        1.9983           -0.6546286             -17.8134
        27        1.9981           -0.6526634             -17.7599
        28        1.9964           -0.6425414             -17.4844
        29        1.9939           -0.6342889             -17.2599
        30        1.9928           -0.6316721             -17.1887
        31        1.9879           -0.6233816             -16.9631
        32        1.9536           -0.6018410             -16.3769
        33        1.9040           -0.5899130             -16.0524
        34        1.8962           -0.5886077             -16.0168
        35        1.8416           -0.5814490             -15.8220
        36        1.7760           -0.5753922             -15.6572
        37        1.5926           -0.5641932             -15.3525 (HOMO)
        38        1.0629           -0.5446003             -14.8193 (LUMO)
        39        0.0065           -0.4520441             -12.3007
        40        0.0004           -0.4072736             -11.0825
        41        0.0002           -0.3971581             -10.8072
        42        0.0000           -0.3092807              -8.4160
        43                         -0.2191548              -5.9635
        44                         -0.1669404              -4.5427
        45                         -0.1403280              -3.8185
        46                         -0.1006648              -2.7392
        47                         -0.0905336              -2.4635
        48                         -0.0504328              -1.3723
       ...                                ...                  ...
        67                          0.5097569              13.8712
      -------------------------------------------------------------
                  HL-Gap            0.0195929 Eh            0.5331 eV

     #   Z          covCN         q      C6AA      α(0)
     1   6 C        3.713    -0.097    22.483     6.775
     2   7 N        2.731     0.172    18.374     6.366
     3   6 C        1.897    -0.012    31.421     9.053
     4   7 N        1.788    -0.277    28.019     7.840
     5   6 C        2.820     0.167    24.396     8.093
     6   6 C        2.942    -0.023    28.577     8.767
     7   6 C        2.768     0.266    22.508     7.770
     8   8 O        0.859    -0.351    20.721     6.103
     9   7 N        2.742    -0.061    22.427     7.034
    10   6 C        3.706    -0.062    21.836     6.680
    11   6 C        2.718     0.321    21.537     7.597
    12   8 O        0.860    -0.334    20.410     6.057
    13   7 N        2.744    -0.065    22.506     7.046
    14   6 C        3.702    -0.065    21.907     6.693
    15   1 H        0.924     0.114     1.664     2.017
    16   1 H        0.925     0.127     1.554     1.950
    17   1 H        0.924     0.141     1.451     1.884
    18   1 H        0.926     0.145     1.424     1.866
    19   1 H        0.925     0.125     1.574     1.962
    20   1 H        0.924     0.119     1.621     1.991
    21   1 H        0.924     0.120     1.615     1.987
    22   1 H        0.924     0.099     1.799     2.097
    23   1 H        0.924     0.098     1.803     2.100
    24   1 H        0.924     0.127     1.557     1.952
    25   1 H        0.860     0.205     1.080     1.628

Wiberg/Mayer (AO) data.
largest (>0.10) Wiberg bond orders for each atom

     #   Z sym  total        # sym  WBO       # sym  WBO       # sym  WBO
 ---------------------------------------------------------------------------
     1   6 C    3.877 --     2 N    0.965    16 H    0.963    15 H    0.956
                            17 H    0.930
     2   7 N    3.753 --     3 C    1.793     1 C    0.965     6 C    0.961
     3   6 C    2.924 --     2 N    1.793    18 H    0.920
     4   7 N    2.686 --     5 C    1.591    25 H    0.916
     5   6 C    3.957 --     4 N    1.591     6 C    1.180    13 N    1.092
     6   6 C    3.496 --     5 C    1.180     7 C    1.121     2 N    0.961
     7   6 C    3.939 --     8 O    1.623     6 C    1.121     9 N    1.095
     8   8 O    1.885 --     7 C    1.623     9 N    0.114
     9   7 N    3.462 --    11 C    1.100     7 C    1.095    10 C    0.983
                             8 O    0.114    12 O    0.106
    10   6 C    3.858 --     9 N    0.983    19 H    0.958    21 H    0.940
                            20 H    0.934
    11   6 C    3.954 --    12 O    1.670    13 N    1.100     9 N    1.100
    12   8 O    1.970 --    11 C    1.670    13 N    0.113     9 N    0.106
    13   7 N    3.447 --    11 C    1.100     5 C    1.092    14 C    0.983
                            12 O    0.113
    14   6 C    3.891 --    13 N    0.983    24 H    0.956    23 H    0.954
                            22 H    0.952
    15   1 H    0.983 --     1 C    0.956
    16   1 H    0.977 --     1 C    0.963
    17   1 H    0.974 --     1 C    0.930
    18   1 H    0.945 --     3 C    0.920
    19   1 H    0.976 --    10 C    0.958
    20   1 H    0.952 --    10 C    0.934
    21   1 H    0.956 --    10 C    0.940
    22   1 H    0.969 --    14 C    0.952
    23   1 H    0.970 --    14 C    0.954
    24   1 H    0.978 --    14 C    0.956
    25   1 H    0.946 --     4 N    0.916
 ---------------------------------------------------------------------------

molecular dipole:
                 x           y           z       tot (Debye)
 q only:        1.501      -0.685       0.133
   full:        1.168      -0.999       0.073       3.911

           -------------------------------------------------
          | TOTAL ENERGY              -42.079458242481 Eh   |
          | GRADIENT NORM               0.003638783872 Eh/α |
          | HOMO-LUMO GAP               0.533149824861 eV   |
           -------------------------------------------------

 * finished run on 2024/06/05 at 20:00:09.868
