   * xtb version 6.6.1 (8d0f1dd) compiled by 'conda@1efc2f54142f' on 2023-08-01
          program call               : xtb xtbopt.xyz --opt crude --input .xc2 --gfn2

   ID    Z sym.   atoms
    1    6 C      1, 3, 5-7, 10, 11, 14
    2    7 N      2, 4, 9, 13
    3    8 O      8, 12
    4    1 H      15-25
########################################################################
[WARNING] Please study the warnings concerning your input carefully
-1- readin_getIntValue: could not parse ''
########################################################################

          :  Hamiltonian                  GFN2-xTB          :
 * total energy  :   -42.0376250 Eh     change       -0.1712408E-10 Eh
   *** GEOMETRY OPTIMIZATION CONVERGED AFTER 1 ITERATIONS ***

 final structure:
================
25
 xtb: 6.6.1 (8d0f1dd)
C            2.96482569109508        1.71748651326526       -0.15949897983221
N            2.30771158950842        0.50243964062764       -0.39055293363437
C            1.78915695608462       -2.67010257794686        1.56924260011886
N            0.69885977466597       -2.22220611451777        1.05113680299187
C            0.46350355817645       -1.12283616932908        0.17599823849722
C            1.37600487182209       -0.17485305114406       -0.05011191880967
C           -0.63329674311280        2.17314924533257       -1.01085319280224
O           -0.18407356957699        2.80317230483581       -1.87465639777346
N           -1.01058468379880        1.25479840647792       -0.22244061954705
C           -1.46221434958384        1.50885585191669        1.14886194443618
C           -1.53163328921483       -0.05474648579750       -0.80374897991528
O           -2.52189651674031       -0.03112544501436       -1.47094025549319
N           -0.79659013824494       -1.13222508540407       -0.46623658127952
C           -1.30362599746401       -2.41650592556526       -0.94852516513228
H            2.64026112570982        2.21834328317347        0.75650520682812
H            4.03621041774271        1.51217618678305       -0.10985082525333
H            2.79404949131936        2.37022315192432       -1.01999989177086
H            2.73334091283715       -2.18753965434227        1.35285371255262
H           -1.11197373954766        2.48274141562449        1.48029059703971
H           -2.55170609211074        1.48479642622392        1.19049131163004
H           -1.05873089518910        0.73576263605782        1.80272045623331
H           -1.99370993494000       -2.86215505886362       -0.22922723755199
H           -0.47447433928173       -3.09298052325333       -1.14358637382436
H           -1.85271195030284       -2.24894830959541       -1.87448291948073
H           -0.15627063574040       -2.72948211986529        1.27778301967398

          :  Hamiltonian                  GFN2-xTB          :
         :: total energy             -42.037625049198 Eh    ::
         :: gradient norm              0.006171254147 Eh/a0 ::
         :: HOMO-LUMO gap              1.694086088820 eV    ::
         :: SCC energy               -42.612464242729 Eh    ::
         :: -> dispersion             -0.021948100205 Eh    ::
         :: repulsion energy           0.574523507674 Eh    ::

    * Orbital Energies and Occupations

         #    Occupation            Energy/Eh            Energy/eV
      -------------------------------------------------------------
         1        2.0000           -0.9263155             -25.2063
       ...           ...                  ...                  ...
        25        1.9996           -0.6823496             -18.5677
        26        1.9995           -0.6747999             -18.3622
        27        1.9991           -0.6606196             -17.9764
        28        1.9989           -0.6560589             -17.8523
        29        1.9980           -0.6427482             -17.4901
        30        1.9972           -0.6345541             -17.2671
        31        1.9951           -0.6215608             -16.9135
        32        1.9944           -0.6181199             -16.8199
        33        1.9909           -0.6068795             -16.5140
        34        1.9861           -0.5966411             -16.2354
        35        1.9825           -0.5911325             -16.0855
        36        1.7395           -0.5238751             -14.2554
        37        1.5494           -0.5081134             -13.8265 (HOMO)
        38        0.4001           -0.4458569             -12.1324 (LUMO)
        39        0.1482           -0.4188027             -11.3962
        40        0.1257           -0.4145941             -11.2817
        41        0.0599           -0.3961587             -10.7800
        42        0.0341           -0.3825103             -10.4086
        43        0.0033           -0.3269383              -8.8964
        44        0.0001           -0.2388660              -6.4999
        45        0.0000           -0.1897035              -5.1621
        46        0.0000           -0.1249581              -3.4003
        47        0.0000           -0.0964500              -2.6245
        48        0.0000           -0.0832522              -2.2654
       ...           ...                  ...                  ...
        67                          0.9245298              25.1577
      -------------------------------------------------------------
                  HL-Gap            0.0622565 Eh            1.6941 eV

     #   Z          covCN         q      C6AA      α(0)
     1   6 C        3.688    -0.052    21.717     6.670
     2   7 N        1.820    -0.041    22.755     7.068
     3   6 C        1.842    -0.090    33.636     9.369
     4   7 N        2.685    -0.016    21.567     6.897
     5   6 C        2.819     0.057    26.713     8.468
     6   6 C        1.907     0.051    29.820     8.819
     7   6 C        1.796     0.291    24.589     8.014
     8   8 O        0.856    -0.144    17.173     5.556
     9   7 N        2.720    -0.065    22.504     7.046
    10   6 C        3.699    -0.061    21.844     6.684
    11   6 C        2.713     0.308    21.770     7.638
    12   8 O        0.858    -0.328    20.289     6.039
    13   7 N        2.737    -0.055    22.311     7.015
    14   6 C        3.710    -0.069    21.971     6.699
    15   1 H        0.924     0.082     1.954     2.186
    16   1 H        0.924     0.119     1.622     1.992
    17   1 H        0.924     0.112     1.678     2.026
    18   1 H        0.925     0.086     1.921     2.168
    19   1 H        0.925     0.100     1.788     2.091
    20   1 H        0.924     0.108     1.716     2.048
    21   1 H        0.925     0.090     1.881     2.145
    22   1 H        0.924     0.088     1.896     2.153
    23   1 H        0.925     0.092     1.861     2.133
    24   1 H        0.925     0.115     1.657     2.013
    25   1 H        0.860     0.224     0.990     1.559

Wiberg/Mayer (AO) data.
largest (>0.10) Wiberg bond orders for each atom

     #   Z sym  total        # sym  WBO       # sym  WBO       # sym  WBO
 ---------------------------------------------------------------------------
     1   6 C    3.925 --     2 N    1.035    15 H    0.953    16 H    0.942
                            17 H    0.936
     2   7 N    3.314 --     6 C    2.084     1 C    1.035     5 C    0.102
     3   6 C    2.678 --     4 N    1.607    18 H    0.932
     4   7 N    3.583 --     3 C    1.607     5 C    1.007    25 H    0.901
     5   6 C    3.717 --     6 C    1.468    13 N    1.015     4 N    1.007
                             2 N    0.102
     6   6 C    3.764 --     2 N    2.084     5 C    1.468
     7   6 C    3.559 --     8 O    2.007     9 N    1.478
     8   8 O    2.267 --     7 C    2.007     9 N    0.198
     9   7 N    3.500 --     7 C    1.478    10 C    0.934    11 C    0.779
                             8 O    0.198
    10   6 C    3.890 --    19 H    0.975    21 H    0.972    20 H    0.966
                             9 N    0.934
    11   6 C    3.846 --    12 O    1.739    13 N    1.226     9 N    0.779
    12   8 O    2.070 --    11 C    1.739    13 N    0.171
    13   7 N    3.471 --    11 C    1.226     5 C    1.015    14 C    0.961
                            12 O    0.171
    14   6 C    3.912 --    23 H    0.973    22 H    0.965    24 H    0.961
                            13 N    0.961
    15   1 H    0.974 --     1 C    0.953
    16   1 H    0.974 --     1 C    0.942
    17   1 H    0.975 --     1 C    0.936
    18   1 H    0.953 --     3 C    0.932
    19   1 H    0.988 --    10 C    0.975
    20   1 H    0.985 --    10 C    0.966
    21   1 H    0.990 --    10 C    0.972
    22   1 H    0.984 --    14 C    0.965
    23   1 H    0.988 --    14 C    0.973
    24   1 H    0.980 --    14 C    0.961
    25   1 H    0.935 --     4 N    0.901
 ---------------------------------------------------------------------------

molecular dipole:
                 x           y           z       tot (Debye)
 q only:        0.863      -0.227       1.047
   full:        0.731       0.067       1.055       3.267

           -------------------------------------------------
          | TOTAL ENERGY              -42.037625049198 Eh   |
          | GRADIENT NORM               0.006171254147 Eh/α |
          | HOMO-LUMO GAP               1.694086088820 eV   |
           -------------------------------------------------

 * finished run on 2024/06/05 at 19:58:45.849
