   * xtb version 6.6.1 (8d0f1dd) compiled by 'conda@1efc2f54142f' on 2023-08-01
          program call               : xtb xtbopt.xyz --opt crude --input .xc2 --gfn2

   ID    Z sym.   atoms
    1    6 C      1, 3, 5-7, 10, 11, 14
    2    7 N      2, 4, 9, 13
    3    8 O      8, 12
    4    1 H      15-25
########################################################################
[WARNING] Please study the warnings concerning your input carefully
-1- readin_getIntValue: could not parse ''
########################################################################

          :  Hamiltonian                  GFN2-xTB          :
 * total energy  :   -42.1676195 Eh     change       -0.1421085E-12 Eh
   *** GEOMETRY OPTIMIZATION CONVERGED AFTER 1 ITERATIONS ***

 final structure:
================
25
 xtb: 6.6.1 (8d0f1dd)
C            2.87607670925547        1.23625644716046       -0.25222491887382
N            2.18495464757227       -0.01964751766195       -0.16372429566328
C            2.75611313600228       -1.21131432949802       -0.27379889409999
N            1.82893745531271       -2.16768741893824       -0.15795157943911
C            0.57645921007001       -1.60643880139952        0.06379615662986
C            0.80649447881873       -0.18006580450588       -0.00552882516006
C            0.00058786930895        0.97318650954715        0.19714615925475
O            0.33042112582727        2.03921375597337        0.66517201306647
N           -1.42945198372756        0.91555819263840       -0.35295273181965
C           -2.43386411455878        1.58411813091784        0.47476927863710
C           -1.55062812442368        0.78246018384714       -1.60277782890725
O           -1.38841615125618        0.50283788567137       -2.71553390404205
N           -0.38812375686581       -2.39944691916088        0.36370342597206
C           -1.71084170640691       -2.05719445826335        0.71691498300773
H            2.70483531049919        1.82574104079801        0.64974471607820
H            3.94109360142126        1.05306503783213       -0.37285170037588
H            2.51134806063105        1.81346016468378       -1.10369817196618
H            3.80243637689635       -1.38061555754857       -0.43795638994416
H           -2.06210988002362        2.56758702124245        0.76437258027369
H           -3.36366977438037        1.68894452604600       -0.07780835241402
H           -2.60104533210695        0.99150971321519        1.37274882589161
H           -2.13605555600869       -2.91496115007843        1.24165130101132
H           -2.32199785944640       -1.87206488725974       -0.17328710172167
H           -1.75503819078652       -1.18109618013152        1.37407114886754
H            1.98191596247625       -3.16516704352707       -0.16282427636098

          :  Hamiltonian                  GFN2-xTB          :
         :: total energy             -42.167619458475 Eh    ::
         :: gradient norm              0.007785991886 Eh/a0 ::
         :: HOMO-LUMO gap              1.852949687581 eV    ::
         :: SCC energy               -42.714137897173 Eh    ::
         :: -> dispersion             -0.022462954549 Eh    ::
         :: repulsion energy           0.546248976626 Eh    ::

    * Orbital Energies and Occupations

         #    Occupation            Energy/Eh            Energy/eV
      -------------------------------------------------------------
         1        2.0000           -0.9236444             -25.1336
       ...           ...                  ...                  ...
        25        1.9994           -0.6734702             -18.3261
        26        1.9993           -0.6697834             -18.2257
        27        1.9990           -0.6586636             -17.9231
        28        1.9984           -0.6491633             -17.6646
        29        1.9973           -0.6359053             -17.3039
        30        1.9970           -0.6337497             -17.2452
        31        1.9952           -0.6225245             -16.9398
        32        1.9901           -0.6051501             -16.4670
        33        1.9857           -0.5961992             -16.2234
        34        1.9844           -0.5941460             -16.1675
        35        1.9776           -0.5854757             -15.9316
        36        1.7895           -0.5299003             -14.4193
        37        1.6428           -0.5153140             -14.0224 (HOMO)
        38        0.4147           -0.4472194             -12.1695 (LUMO)
        39        0.1681           -0.4223333             -11.4923
        40        0.0366           -0.3844528             -10.4615
        41        0.0243           -0.3745852             -10.1930
        42        0.0024           -0.3192221              -8.6865
        43        0.0000           -0.2215643              -6.0291
        44        0.0000           -0.1704206              -4.6374
        45        0.0000           -0.1292219              -3.5163
        46        0.0000           -0.0885234              -2.4088
        47                         -0.0628880              -1.7113
        48                         -0.0381856              -1.0391
       ...                                ...                  ...
        67                          0.8995570              24.4782
      -------------------------------------------------------------
                  HL-Gap            0.0680946 Eh            1.8529 eV

     #   Z          covCN         q      C6AA      α(0)
     1   6 C        3.693    -0.083    22.277     6.753
     2   7 N        2.821     0.062    20.164     6.669
     3   6 C        2.971     0.064    26.566     8.454
     4   7 N        2.797    -0.067    22.541     7.051
     5   6 C        2.946     0.139    24.967     8.195
     6   6 C        3.041    -0.040    28.956     8.826
     7   6 C        2.762     0.246    22.867     7.831
     8   8 O        0.857    -0.334    20.409     6.057
     9   7 N        2.718    -0.044    22.100     6.982
    10   6 C        3.701    -0.062    21.852     6.685
    11   6 C        1.804     0.292    24.574     8.011
    12   8 O        0.856    -0.152    17.301     5.577
    13   7 N        1.833    -0.203    26.232     7.590
    14   6 C        3.693    -0.036    21.398     6.618
    15   1 H        0.924     0.123     1.586     1.969
    16   1 H        0.925     0.098     1.803     2.100
    17   1 H        0.924     0.102     1.769     2.080
    18   1 H        0.926     0.116     1.648     2.008
    19   1 H        0.924     0.120     1.615     1.988
    20   1 H        0.925     0.096     1.818     2.108
    21   1 H        0.925     0.098     1.799     2.098
    22   1 H        0.924     0.103     1.756     2.072
    23   1 H        0.924     0.074     2.046     2.237
    24   1 H        0.924     0.056     2.242     2.341
    25   1 H        0.860     0.232     0.957     1.533

Wiberg/Mayer (AO) data.
largest (>0.10) Wiberg bond orders for each atom

     #   Z sym  total        # sym  WBO       # sym  WBO       # sym  WBO
 ---------------------------------------------------------------------------
     1   6 C    3.921 --     2 N    0.994    16 H    0.972    17 H    0.958
                            15 H    0.951
     2   7 N    3.617 --     3 C    1.363     6 C    1.113     1 C    0.994
     3   6 C    3.794 --     2 N    1.363     4 N    1.309    18 H    0.951
     4   7 N    3.530 --     3 C    1.309     5 C    1.103    25 H    0.918
     5   6 C    3.916 --    13 N    1.531     6 C    1.151     4 N    1.103
     6   6 C    3.727 --     7 C    1.180     5 C    1.151     2 N    1.113
     7   6 C    3.767 --     8 O    1.701     6 C    1.180     9 N    0.772
     8   8 O    1.985 --     7 C    1.701
     9   7 N    3.521 --    11 C    1.504    10 C    0.938     7 C    0.772
                            12 O    0.205
    10   6 C    3.885 --    20 H    0.975    21 H    0.966    19 H    0.958
                             9 N    0.938
    11   6 C    3.606 --    12 O    2.006     9 N    1.504
    12   8 O    2.286 --    11 C    2.006     9 N    0.205
    13   7 N    2.774 --     5 C    1.531    14 C    1.059
    14   6 C    3.924 --    13 N    1.059    22 H    0.950    24 H    0.943
                            23 H    0.937
    15   1 H    0.977 --     1 C    0.951
    16   1 H    0.987 --     1 C    0.972
    17   1 H    0.981 --     1 C    0.958
    18   1 H    0.984 --     3 C    0.951
    19   1 H    0.980 --    10 C    0.958
    20   1 H    0.988 --    10 C    0.975
    21   1 H    0.986 --    10 C    0.966
    22   1 H    0.963 --    14 C    0.950
    23   1 H    0.959 --    14 C    0.937
    24   1 H    0.962 --    14 C    0.943
    25   1 H    0.945 --     4 N    0.918
 ---------------------------------------------------------------------------

molecular dipole:
                 x           y           z       tot (Debye)
 q only:        1.052      -0.827      -0.139
   full:        1.084      -0.794      -0.256       3.477

           -------------------------------------------------
          | TOTAL ENERGY              -42.167619458475 Eh   |
          | GRADIENT NORM               0.007785991886 Eh/α |
          | HOMO-LUMO GAP               1.852949687581 eV   |
           -------------------------------------------------

 * finished run on 2024/06/05 at 19:58:54.691
