   * xtb version 6.6.1 (8d0f1dd) compiled by 'conda@1efc2f54142f' on 2023-08-01
          program call               : xtb struc.xyz --opt loose --input .xc1 --gfn2

   ID    Z sym.   atoms
    1    7 N      1, 17
    2    6 C      2-6, 8, 9, 11-16, 18-23, 25, 26, 28-33
    3    8 O      7, 10, 24, 27
    4    1 H      34-72
constraining bond 16 43 to    3.7133300 Å, actual value:    3.4405812 Å

          :  Hamiltonian                  GFN2-xTB          :
 * total energy  :   -99.4174138 Eh     change       -0.4035485E-08 Eh
 * total energy  :   -99.4662459 Eh     change       -0.4883207E-01 Eh
 * total energy  :   -99.5236610 Eh     change       -0.5741505E-01 Eh
 * total energy  :   -99.6495054 Eh     change       -0.1258444E+00 Eh
 * total energy  :   -99.8458232 Eh     change       -0.1963178E+00 Eh
 * total energy  :  -100.2225973 Eh     change       -0.3767741E+00 Eh
 * total energy  :   -99.8695138 Eh     change        0.3530835E+00 Eh
 * total energy  :  -100.4168345 Eh     change       -0.5473208E+00 Eh
 * total energy  :  -100.4618236 Eh     change       -0.4498905E-01 Eh
 * total energy  :  -100.5008183 Eh     change       -0.3899470E-01 Eh
 * total energy  :  -100.7485378 Eh     change       -0.1573963E-03 Eh
 * total energy  :  -100.7486480 Eh     change       -0.1101231E-03 Eh
 * total energy  :  -100.7487820 Eh     change       -0.1340331E-03 Eh
 * total energy  :  -100.7488712 Eh     change       -0.8920781E-04 Eh
 * total energy  :  -100.7489874 Eh     change       -0.1161634E-03 Eh
 * total energy  :  -100.7490469 Eh     change       -0.5952404E-04 Eh
 * total energy  :  -100.7491090 Eh     change       -0.6214807E-04 Eh
 * total energy  :  -100.7491703 Eh     change       -0.6128767E-04 Eh
 * total energy  :  -100.7492016 Eh     change       -0.3128351E-04 Eh
   *** GEOMETRY OPTIMIZATION CONVERGED AFTER 80 ITERATIONS ***

 final structure:
================
72
 xtb: 6.6.1 (8d0f1dd)
N            0.10602783433922        2.51623616593589        1.99070630177677
C           -0.95152090521182        1.93611255110672        1.60678776353407
C           -3.33317531179844        2.18615444507017        0.99826992976989
C           -3.54747931792012        0.73890092888350        0.84061840609550
C           -4.03395292373542        0.22947979314957       -0.36633327721418
C           -4.26677692120792       -1.12601440893700       -0.52967022672428
O           -4.71509616894939       -1.71092852951238       -1.65867102551963
C           -5.09361903026006       -0.90315103041051       -2.74922122336185
C           -4.02224713460510       -2.01412475830171        0.55707338958874
O           -4.28039877330093       -3.31021870142151        0.30754638214950
C           -4.14474180675900       -4.25358100342483        1.34498124263060
C           -3.55031986350086       -1.49558850035058        1.75622305323571
C           -3.31015209761624       -0.13857554011189        1.89490298631421
C           -2.14697683766731        2.70022520514921        1.38070441657707
C           -0.62916825083031        0.27604096659915       -3.02869257528957
C           -0.61629207161159        0.80414703720619       -1.63715364291228
N            0.02141952173700       -0.11735093807095       -0.68133918713094
C            1.41452848104923        0.04297460967695       -0.37824001940205
C            2.40399698797968       -0.41071513004719       -1.48003234967526
C            3.81338339874218       -0.17311451324206       -1.03265315579961
C            4.42303318368542        1.05643607744748       -1.25229051996366
C            5.72113557320397        1.29343207051565       -0.83415445990010
C            6.44407447847215        0.30433258890498       -0.17801570559900
O            7.70790894937818        0.41659263372987        0.26011757705144
C            8.41609269807281        1.61428672174012        0.03466253200965
C            5.82434878337206       -0.95631403829718        0.06545061956744
O            6.59333470039429       -1.85354497045090        0.70663477159201
C            6.08763584138440       -3.14062758324170        0.97239950274635
C            4.52165435863097       -1.16768715708991       -0.36322163406403
C           -0.49178367334149       -1.46383830405226       -0.67980060346121
C           -4.56006663521690        3.03641535487519        0.78554302292565
C           -5.41222068566442        2.94115102183715        2.05915547844234
C           -4.26912297686799        4.49378288788443        0.44396686788226
H           -4.20775210202032        0.90676717158545       -1.18741718520042
H           -5.87784483495424       -0.19405484903794       -2.46921987638028
H           -5.47955982317127       -1.58895932143267       -3.50044707334173
H           -4.23838312084684       -0.35874816504023       -3.16221812237447
H           -4.79264510203458       -4.01277375527632        2.19240753386892
H           -4.45081946570362       -5.20547824218234        0.91595466761932
H           -3.10799130390703       -4.32736732407712        1.68724116650079
H           -3.37548661016366       -2.14773475027975        2.59662722990472
H           -2.96961916344763        0.24801805457774        2.84285979014655
H           -1.34360839477058        0.97863103692437       -1.39277192357939
H           -2.03242030960697        3.76290229175979        1.52314856611408
H            0.18077154160864       -0.30412193601041       -3.42612950151725
H           -1.49765707604846        0.42175727741514       -3.64059015441458
H           -1.01319413618824        0.85789119710524        1.42098035529355
H            0.03228320581624        1.70831798118068       -1.62151168454863
H            1.62568250766325       -0.52951048510389        0.53035808358203
H            1.59526074512736        1.10142789703941       -0.16773116644719
H            2.20865835205679        0.16103832810440       -2.38744628526644
H            2.24716023034955       -1.47042074021648       -1.68492031355260
H            3.88547086666207        1.83815435489900       -1.76686423388827
H            6.16868083202377        2.25437807346753       -1.02817281752125
H            7.94138526779890        2.46104326727701        0.53935559180552
H            8.50648475141419        1.82923667077617       -1.03409441519554
H            9.40630473712546        1.45161424875598        0.45587222549999
H            6.89386181891263       -3.67320050880614        1.47319086933680
H            5.21584995290624       -3.10013087162510        1.63278454015707
H            5.82471747636057       -3.66619852168417        0.04946159167709
H            4.04737011836459       -2.12131682154064       -0.19109133700353
H           -0.08824783994562       -2.08639988059592       -1.48656602698651
H           -1.57558723967409       -1.43083980441984       -0.78212954534226
H           -0.24440216058475       -1.93521717628358        0.27206564121316
H           -5.14035769165671        2.59630498742248       -0.03286973305276
H           -4.86564539168619        3.34818138653063        2.90690986659052
H           -5.66830389546516        1.90612598034059        2.27569769775892
H           -6.33132497646424        3.50765876083747        1.93478110884492
H           -3.86066829028704        5.02505469058586        1.29991707168574
H           -3.56803477430941        4.56759746419293       -0.38478597173008
H           -5.19345347417405        4.98926473458233        0.15613634656084
H            0.92611696554578        1.94392086797404        2.15623762792280

          :  Hamiltonian                  GFN2-xTB          :
         :: total energy            -100.749201602639 Eh    ::
         :: gradient norm              0.003759655317 Eh/a0 ::
         :: HOMO-LUMO gap              0.814423752574 eV    ::
         :: SCC energy              -100.752129568640 Eh    ::
         :: -> dispersion             -0.072951038924 Eh    ::
         :: repulsion energy           1.530291528158 Eh    ::

    * Orbital Energies and Occupations

         #    Occupation            Energy/Eh            Energy/eV
      -------------------------------------------------------------
         1        2.0000           -0.8206035             -22.3298
       ...           ...                  ...                  ...
        78        1.9969           -0.5343409             -14.5402
        79        1.9967           -0.5331828             -14.5086
        80        1.9958           -0.5296357             -14.4121
        81        1.9943           -0.5247204             -14.2784
        82        1.9917           -0.5188083             -14.1175
        83        1.9915           -0.5183340             -14.1046
        84        1.9789           -0.5038320             -13.7100
        85        1.9646           -0.4955455             -13.4845
        86        1.9554           -0.4918079             -13.3828
        87        1.8985           -0.4783225             -13.0158
        88        1.8346           -0.4700542             -12.7908
        89        1.7758           -0.4647243             -12.6458
        90        1.6910           -0.4588667             -12.4864 (HOMO)
        91        0.9050           -0.4289372             -11.6720 (LUMO)
        92        0.0407           -0.3705978             -10.0845
        93        0.0021           -0.3237067              -8.8085
        94        0.0016           -0.3192586              -8.6875
        95        0.0015           -0.3181600              -8.6576
        96        0.0014           -0.3163931              -8.6095
        97        0.0000           -0.2528610              -6.8807
        98        0.0000           -0.1959320              -5.3316
        99        0.0000           -0.1938786              -5.2757
       100                         -0.1142917              -3.1100
       101                         -0.0736109              -2.0031
       ...                                ...                  ...
       171                          1.1010817              29.9620
      -------------------------------------------------------------
                  HL-Gap            0.0299295 Eh            0.8144 eV

     #   Z          covCN         q      C6AA      α(0)
     1   7 N        1.785    -0.273    27.917     7.825
     2   6 C        2.820     0.089    26.016     8.357
     3   6 C        2.961     0.023    27.492     8.600
     4   6 C        2.974     0.006    27.875     8.660
     5   6 C        2.919    -0.076    29.905     8.968
     6   6 C        2.861     0.131    25.134     8.218
     7   8 O        1.706    -0.228    17.781     5.693
     8   6 C        3.645     0.027    20.450     6.500
     9   6 C        2.864     0.133    25.096     8.211
    10   8 O        1.706    -0.221    17.671     5.676
    11   6 C        3.645     0.024    20.499     6.507
    12   6 C        2.912    -0.068    29.688     8.935
    13   6 C        2.921    -0.039    28.971     8.827
    14   6 C        2.910    -0.054    29.332     8.881
    15   6 C        2.832    -0.107    30.689     9.078
    16   6 C        3.745    -0.019    20.989     6.535
    17   7 N        2.725    -0.122    23.661     7.224
    18   6 C        3.745     0.000    20.646     6.482
    19   6 C        3.806    -0.071    21.861     6.656
    20   6 C        2.968     0.009    27.814     8.651
    21   6 C        2.922    -0.043    29.075     8.843
    22   6 C        2.912    -0.064    29.600     8.921
    23   6 C        2.864     0.137    25.013     8.198
    24   8 O        1.706    -0.211    17.512     5.650
    25   6 C        3.645     0.022    20.537     6.513
    26   6 C        2.861     0.136    25.018     8.199
    27   8 O        1.706    -0.215    17.575     5.660
    28   6 C        3.644     0.025    20.499     6.508
    29   6 C        2.918    -0.076    29.895     8.966
    30   6 C        3.696    -0.043    21.523     6.637
    31   6 C        3.856    -0.012    20.749     6.478
    32   6 C        3.760    -0.106    22.584     6.775
    33   6 C        3.754    -0.115    22.748     6.801
    34   1 H        0.926     0.051     2.302     2.373
    35   1 H        0.924     0.056     2.243     2.342
    36   1 H        0.925     0.083     1.944     2.180
    37   1 H        0.924     0.048     2.345     2.395
    38   1 H        0.924     0.059     2.206     2.323
    39   1 H        0.925     0.084     1.938     2.177
    40   1 H        0.924     0.053     2.283     2.363
    41   1 H        0.926     0.059     2.209     2.324
    42   1 H        0.926     0.055     2.253     2.347
    43   1 H        0.930     0.111     1.690     2.033
    44   1 H        0.926     0.082     1.959     2.189
    45   1 H        0.926     0.059     2.205     2.322
    46   1 H        0.926     0.054     2.270     2.356
    47   1 H        0.924     0.027     2.633     2.538
    48   1 H        0.921     0.078     1.997     2.210
    49   1 H        0.924     0.050     2.324     2.384
    50   1 H        0.924     0.052     2.293     2.368
    51   1 H        0.925     0.056     2.241     2.341
    52   1 H        0.924     0.052     2.299     2.371
    53   1 H        0.926     0.054     2.275     2.359
    54   1 H        0.926     0.063     2.162     2.299
    55   1 H        0.924     0.060     2.199     2.319
    56   1 H        0.924     0.061     2.191     2.315
    57   1 H        0.925     0.086     1.916     2.164
    58   1 H        0.925     0.085     1.926     2.170
    59   1 H        0.924     0.054     2.268     2.355
    60   1 H        0.924     0.057     2.230     2.335
    61   1 H        0.926     0.054     2.270     2.356
    62   1 H        0.924     0.049     2.336     2.390
    63   1 H        0.925     0.053     2.282     2.362
    64   1 H        0.924     0.052     2.294     2.368
    65   1 H        0.924     0.050     2.320     2.382
    66   1 H        0.925     0.050     2.314     2.379
    67   1 H        0.925     0.041     2.430     2.438
    68   1 H        0.925     0.058     2.217     2.329
    69   1 H        0.925     0.053     2.278     2.360
    70   1 H        0.925     0.043     2.406     2.426
    71   1 H        0.925     0.054     2.266     2.354
    72   1 H        0.860     0.152     1.386     1.844

Wiberg/Mayer (AO) data.
largest (>0.10) Wiberg bond orders for each atom

     #   Z sym  total        # sym  WBO       # sym  WBO       # sym  WBO
 ---------------------------------------------------------------------------
     1   7 N    2.927 --     2 C    1.826    72 H    0.944     3 C    0.103
     2   6 C    3.933 --     1 N    1.826    14 C    1.142    47 H    0.921
     3   6 C    3.932 --    14 C    1.692     4 C    1.049    31 C    0.997
                             1 N    0.103
     4   6 C    3.936 --    13 C    1.369     5 C    1.354     3 C    1.049
     5   6 C    3.954 --     6 C    1.399     4 C    1.354    34 H    0.960
     6   6 C    3.892 --     5 C    1.399     9 C    1.212     7 O    1.102
     7   8 O    2.247 --     6 C    1.102     8 C    0.976
     8   6 C    3.929 --     7 O    0.976    36 H    0.976    35 H    0.973
                            37 H    0.972
     9   6 C    3.882 --    12 C    1.375     6 C    1.212    10 O    1.113
    10   8 O    2.251 --     9 C    1.113    11 C    0.975
    11   6 C    3.926 --    39 H    0.976    10 O    0.975    40 H    0.972
                            38 H    0.972
    12   6 C    3.956 --    13 C    1.426     9 C    1.375    41 H    0.962
    13   6 C    3.936 --    12 C    1.426     4 C    1.369    42 H    0.967
    14   6 C    3.924 --     3 C    1.692     2 C    1.142    44 H    0.951
    15   6 C    3.099 --    16 C    1.076    46 H    0.982    45 H    0.981
    16   6 C    3.954 --    15 C    1.076    17 N    0.970    43 H    0.959
                            48 H    0.910
    17   7 N    3.110 --    18 C    1.024    30 C    1.018    16 C    0.970
    18   6 C    3.962 --    17 N    1.024    49 H    0.966    50 H    0.964
                            19 C    0.949
    19   6 C    3.963 --    20 C    1.018    52 H    0.970    51 H    0.968
                            18 C    0.949
    20   6 C    3.921 --    29 C    1.383    21 C    1.383    19 C    1.018
    21   6 C    3.921 --    22 C    1.430    20 C    1.383    53 H    0.967
    22   6 C    3.946 --    21 C    1.430    23 C    1.368    54 H    0.962
    23   6 C    3.865 --    22 C    1.368    26 C    1.205    24 O    1.122
    24   8 O    2.249 --    23 C    1.122    25 C    0.974
    25   6 C    3.922 --    57 H    0.976    24 O    0.974    56 H    0.971
                            55 H    0.970
    26   6 C    3.875 --    29 C    1.385    23 C    1.205    27 O    1.115
    27   8 O    2.250 --    26 C    1.115    28 C    0.976
    28   6 C    3.926 --    58 H    0.976    27 O    0.976    59 H    0.972
                            60 H    0.971
    29   6 C    3.946 --    26 C    1.385    20 C    1.383    61 H    0.961
    30   6 C    3.966 --    17 N    1.018    64 H    0.976    63 H    0.976
                            62 H    0.962
    31   6 C    3.977 --    33 C    1.006     3 C    0.997    32 C    0.974
                            65 H    0.950
    32   6 C    3.973 --    67 H    0.984    66 H    0.984    68 H    0.979
                            31 C    0.974
    33   6 C    3.983 --    31 C    1.006    70 H    0.984    71 H    0.981
                            69 H    0.980
    34   1 H    0.996 --     5 C    0.960
    35   1 H    0.992 --     8 C    0.973
    36   1 H    0.992 --     8 C    0.976
    37   1 H    0.992 --     8 C    0.972
    38   1 H    0.990 --    11 C    0.972
    39   1 H    0.992 --    11 C    0.976
    40   1 H    0.991 --    11 C    0.972
    41   1 H    0.994 --    12 C    0.962
    42   1 H    0.996 --    13 C    0.967
    43   1 H    0.978 --    16 C    0.959
    44   1 H    0.988 --    14 C    0.951
    45   1 H    0.995 --    15 C    0.981
    46   1 H    0.995 --    15 C    0.982
    47   1 H    0.966 --     2 C    0.921
    48   1 H    0.939 --    16 C    0.910
    49   1 H    0.993 --    18 C    0.966
    50   1 H    0.993 --    18 C    0.964
    51   1 H    0.994 --    19 C    0.968
    52   1 H    0.995 --    19 C    0.970
    53   1 H    0.996 --    21 C    0.967
    54   1 H    0.994 --    22 C    0.962
    55   1 H    0.988 --    25 C    0.970
    56   1 H    0.988 --    25 C    0.971
    57   1 H    0.992 --    25 C    0.976
    58   1 H    0.992 --    28 C    0.976
    59   1 H    0.990 --    28 C    0.972
    60   1 H    0.990 --    28 C    0.971
    61   1 H    0.995 --    29 C    0.961
    62   1 H    0.976 --    30 C    0.962
    63   1 H    0.994 --    30 C    0.976
    64   1 H    0.992 --    30 C    0.976
    65   1 H    0.990 --    31 C    0.950
    66   1 H    0.995 --    32 C    0.984
    67   1 H    0.996 --    32 C    0.984
    68   1 H    0.992 --    32 C    0.979
    69   1 H    0.994 --    33 C    0.980
    70   1 H    0.996 --    33 C    0.984
    71   1 H    0.994 --    33 C    0.981
    72   1 H    0.966 --     1 N    0.944
 ---------------------------------------------------------------------------

molecular dipole:
                 x           y           z       tot (Debye)
 q only:        0.239      -0.064      -0.337
   full:        0.198      -0.455      -0.475       1.746

           -------------------------------------------------
          | TOTAL ENERGY             -100.749201602639 Eh   |
          | GRADIENT NORM               0.003759655317 Eh/α |
          | HOMO-LUMO GAP               0.814423752574 eV   |
           -------------------------------------------------

 * finished run on 2024/04/06 at 11:16:41.378
