   * xtb version 6.6.1 (8d0f1dd) compiled by 'conda@1efc2f54142f' on 2023-08-01
          program call               : xtb xtbopt.xyz --opt crude --input .xc2 --gfn2

   ID    Z sym.   atoms
    1    7 N      1, 17
    2    6 C      2-6, 8, 9, 11-16, 18-23, 25, 26, 28-33
    3    8 O      7, 10, 24, 27
    4    1 H      34-72

          :  Hamiltonian                  GFN2-xTB          :
 * total energy  :   -99.2200365 Eh     change       -0.2647482E-10 Eh
 * total energy  :   -99.3295664 Eh     change       -0.1095299E+00 Eh
 * total energy  :   -99.3310383 Eh     change       -0.1471911E-02 Eh
 * total energy  :   -99.3319511 Eh     change       -0.9128024E-03 Eh
 * total energy  :   -99.3320836 Eh     change       -0.1324847E-03 Eh
   *** GEOMETRY OPTIMIZATION CONVERGED AFTER 5 ITERATIONS ***

 final structure:
================
72
 xtb: 6.6.1 (8d0f1dd)
N            0.10033669424339        2.51138541794829        2.00002996092207
C           -0.95704889639319        1.93392211982507        1.61529473022275
C           -3.33764765406287        2.18880783369685        1.00279142664162
C           -3.55256485463844        0.74225383226847        0.84209742284160
C           -4.04029558145531        0.23128109862154       -0.36411373418107
C           -4.26828990526229       -1.12515897474963       -0.52836905989263
O           -4.71410545708535       -1.71066330193349       -1.65835510803986
C           -5.08835587074907       -0.90521465764309       -2.75136694512847
C           -4.02256547581263       -2.01294844909601        0.55758821101841
O           -4.28252050300639       -3.30921453526519        0.30972211084853
C           -4.14209465837397       -4.25239072069206        1.34768371132197
C           -3.54942989455414       -1.49379272494691        1.75602446957457
C           -3.31053648988348       -0.13679641237324        1.89454926641217
C           -2.15274121400880        2.70058425983089        1.39236562921451
C           -0.62403727188858        0.25382329194550       -3.04010291501742
C           -0.56602241966495        0.77310566580754       -1.66315054865078
N            0.03321955320848       -0.12323137120860       -0.69108977906982
C            1.42650272669703        0.03820516639065       -0.38038666887859
C            2.41452802317849       -0.40915861705155       -1.48620874479951
C            3.82394830183313       -0.17352832985207       -1.03958870044874
C            4.43341994254852        1.05614930424293       -1.25762508294994
C            5.73012127242854        1.29337316750881       -0.83550014768053
C            6.45108102392770        0.30399325958115       -0.17763711956531
O            7.71346712312284        0.41698573591488        0.26456057133738
C            8.42053093691871        1.61574843954904        0.04105473812714
C            5.83132873752454       -0.95706404023797        0.06350842407318
O            6.59777244191763       -1.85473022213466        0.70735287734818
C            6.08852939776855       -3.14097005941177        0.97088330276208
C            4.53000371549056       -1.16865985202272       -0.36886677962120
C           -0.47715352221097       -1.47062352747490       -0.68402078007095
C           -4.56167024497459        3.04215378601633        0.78650101552523
C           -5.41929414355296        2.95033521804607        2.05694062652846
C           -4.26555443217363        4.49910855473445        0.44587693119342
H           -4.22214347070418        0.90843079216783       -1.18419059915704
H           -5.87525278570704       -0.19676889872249       -2.47656013695394
H           -5.46975091244745       -1.59281172382988       -3.50364032144321
H           -4.23181367531956       -0.36028636228145       -3.16128866730401
H           -4.79036697684069       -4.01336648882872        2.19552683496872
H           -4.44573428999406       -5.20531088619543        0.91867662616042
H           -3.10453989341345       -4.32202625106634        1.68848660298134
H           -3.37242375545420       -2.14489775509067        2.59652823894745
H           -2.96817621870838        0.24939667204775        2.84204027929531
H           -1.58027293039320        1.01353829247489       -1.31802822193656
H           -2.03595515203561        3.76288754259917        1.54000302015623
H            0.16217687606329       -0.35936007996342       -3.43790311924291
H           -1.47378608041357        0.45035739018389       -3.66334662423154
H           -1.02012855089227        0.85642400548932        1.41766071023166
H            0.00848699543013        1.71239438687307       -1.62263081932463
H            1.63716328086436       -0.53815807096856        0.52561085780098
H            1.60666430403352        1.09560334885519       -0.16426752342651
H            2.21618719999359        0.16783075971350       -2.38964470069568
H            2.25720251587774       -1.46761393420708       -1.69707867916246
H            3.89620681695897        1.83725577349169       -1.77342976969700
H            6.17750070088415        2.25480506729441       -1.02721033395894
H            7.94358455491969        2.46146677779902        0.54525818702932
H            8.51257041496995        1.83142080643419       -1.02750494691768
H            9.41019110623099        1.45436617661504        0.46391186634966
H            6.89190896009357       -3.67592269606842        1.47362206861992
H            5.21485588329976       -3.09876739240409        1.62874222179749
H            5.82692422174993       -3.66522815722531        0.04679576279237
H            4.05471369652161       -2.12211431276982       -0.19899524236519
H           -0.07739783665321       -2.09705205459585       -1.48957155843915
H           -1.56085994608848       -1.43656284307188       -0.78463160878294
H           -0.22795690049701       -1.93826995662334        0.26884943399776
H           -5.14113786630375        2.60414534512846       -0.03351423988212
H           -4.87441557126406        3.35404419547820        2.90698312803842
H           -5.68206858814669        1.91673293217440        2.27138193195358
H           -6.33423695154098        3.52230146623959        1.92847333166890
H           -3.85318017884300        5.02709142079153        1.30120500753385
H           -3.56592296976818        4.57118991813281       -0.38365120753055
H           -5.18850429078330        4.99792783082212        0.16070066674702
H            0.92334246026087        1.94197612974804        2.15945307407500

          :  Hamiltonian                  GFN2-xTB          :
         :: total energy             -99.332083598915 Eh    ::
         :: gradient norm              0.002620654052 Eh/a0 ::
         :: HOMO-LUMO gap              0.820705183193 eV    ::
         :: SCC energy              -100.729786790062 Eh    ::
         :: -> dispersion             -0.072922013690 Eh    ::
         :: repulsion energy           1.395905982740 Eh    ::

    * Orbital Energies and Occupations

         #    Occupation            Energy/Eh            Energy/eV
      -------------------------------------------------------------
         1        2.0000           -0.8204434             -22.3254
       ...           ...                  ...                  ...
        78        1.9969           -0.5343265             -14.5398
        79        1.9967           -0.5332439             -14.5103
        80        1.9959           -0.5295789             -14.4106
        81        1.9944           -0.5247251             -14.2785
        82        1.9918           -0.5187823             -14.1168
        83        1.9916           -0.5183023             -14.1037
        84        1.9791           -0.5037991             -13.7091
        85        1.9649           -0.4955027             -13.4833
        86        1.9558           -0.4917825             -13.3821
        87        1.8976           -0.4779986             -13.0070
        88        1.8357           -0.4699967             -12.7893
        89        1.7764           -0.4645957             -12.6423
        90        1.6927           -0.4587991             -12.4846 (HOMO)
        91        0.9011           -0.4286387             -11.6639 (LUMO)
        92        0.0407           -0.3704327             -10.0800
        93        0.0022           -0.3237582              -8.8099
        94        0.0016           -0.3191329              -8.6840
        95        0.0015           -0.3181116              -8.6563
        96        0.0014           -0.3163044              -8.6071
        97        0.0000           -0.2527579              -6.8779
        98        0.0000           -0.1959086              -5.3309
        99        0.0000           -0.1937741              -5.2729
       100                         -0.1016723              -2.7666
       101                         -0.0737836              -2.0078
       ...                                ...                  ...
       171                          0.5776264              15.7180
      -------------------------------------------------------------
                  HL-Gap            0.0301604 Eh            0.8207 eV

     #   Z          covCN         q      C6AA      α(0)
     1   7 N        1.785    -0.273    27.905     7.824
     2   6 C        2.820     0.089    26.005     8.356
     3   6 C        2.960     0.023    27.491     8.600
     4   6 C        2.974     0.007    27.871     8.660
     5   6 C        2.919    -0.075    29.883     8.964
     6   6 C        2.861     0.131    25.137     8.218
     7   8 O        1.706    -0.228    17.780     5.693
     8   6 C        3.644     0.027    20.449     6.500
     9   6 C        2.864     0.133    25.094     8.211
    10   8 O        1.706    -0.221    17.675     5.676
    11   6 C        3.645     0.024    20.503     6.508
    12   6 C        2.912    -0.068    29.687     8.935
    13   6 C        2.921    -0.039    28.974     8.827
    14   6 C        2.910    -0.053    29.325     8.880
    15   6 C        2.833    -0.102    30.564     9.060
    16   6 C        3.746     0.005    20.565     6.469
    17   7 N        2.726    -0.112    23.453     7.193
    18   6 C        3.747    -0.001    20.656     6.483
    19   6 C        3.806    -0.071    21.850     6.654
    20   6 C        2.968     0.009    27.818     8.651
    21   6 C        2.922    -0.043    29.077     8.843
    22   6 C        2.912    -0.064    29.601     8.922
    23   6 C        2.864     0.137    25.014     8.198
    24   8 O        1.706    -0.211    17.515     5.650
    25   6 C        3.645     0.022    20.536     6.513
    26   6 C        2.862     0.136    25.020     8.199
    27   8 O        1.706    -0.215    17.578     5.661
    28   6 C        3.645     0.025    20.497     6.507
    29   6 C        2.918    -0.076    29.899     8.967
    30   6 C        3.698    -0.044    21.540     6.638
    31   6 C        3.856    -0.012    20.748     6.478
    32   6 C        3.760    -0.107    22.586     6.775
    33   6 C        3.754    -0.115    22.749     6.801
    34   1 H        0.926     0.051     2.306     2.375
    35   1 H        0.924     0.056     2.244     2.343
    36   1 H        0.925     0.083     1.945     2.181
    37   1 H        0.924     0.048     2.346     2.395
    38   1 H        0.924     0.060     2.204     2.322
    39   1 H        0.925     0.084     1.938     2.177
    40   1 H        0.924     0.053     2.282     2.363
    41   1 H        0.926     0.059     2.208     2.324
    42   1 H        0.926     0.055     2.253     2.347
    43   1 H        0.923     0.065     2.141     2.288
    44   1 H        0.926     0.082     1.959     2.189
    45   1 H        0.926     0.061     2.183     2.310
    46   1 H        0.926     0.056     2.243     2.342
    47   1 H        0.924     0.026     2.644     2.543
    48   1 H        0.923     0.082     1.964     2.191
    49   1 H        0.924     0.050     2.317     2.380
    50   1 H        0.924     0.052     2.292     2.367
    51   1 H        0.925     0.056     2.246     2.344
    52   1 H        0.924     0.051     2.304     2.374
    53   1 H        0.926     0.053     2.278     2.360
    54   1 H        0.926     0.063     2.163     2.300
    55   1 H        0.924     0.060     2.200     2.320
    56   1 H        0.924     0.061     2.192     2.316
    57   1 H        0.925     0.086     1.916     2.165
    58   1 H        0.925     0.085     1.926     2.171
    59   1 H        0.924     0.054     2.269     2.356
    60   1 H        0.924     0.057     2.231     2.336
    61   1 H        0.926     0.054     2.271     2.357
    62   1 H        0.924     0.049     2.334     2.389
    63   1 H        0.925     0.054     2.276     2.359
    64   1 H        0.924     0.053     2.283     2.363
    65   1 H        0.924     0.050     2.324     2.384
    66   1 H        0.925     0.050     2.314     2.379
    67   1 H        0.925     0.041     2.430     2.438
    68   1 H        0.925     0.058     2.217     2.328
    69   1 H        0.925     0.053     2.278     2.360
    70   1 H        0.925     0.043     2.407     2.426
    71   1 H        0.925     0.054     2.265     2.354
    72   1 H        0.860     0.152     1.386     1.844

Wiberg/Mayer (AO) data.
largest (>0.10) Wiberg bond orders for each atom

     #   Z sym  total        # sym  WBO       # sym  WBO       # sym  WBO
 ---------------------------------------------------------------------------
     1   7 N    2.928 --     2 C    1.828    72 H    0.944     3 C    0.103
     2   6 C    3.933 --     1 N    1.828    14 C    1.140    47 H    0.920
     3   6 C    3.933 --    14 C    1.692     4 C    1.049    31 C    0.997
                             1 N    0.103
     4   6 C    3.936 --    13 C    1.368     5 C    1.353     3 C    1.049
     5   6 C    3.954 --     6 C    1.398     4 C    1.353    34 H    0.959
     6   6 C    3.892 --     5 C    1.398     9 C    1.213     7 O    1.102
     7   8 O    2.247 --     6 C    1.102     8 C    0.977
     8   6 C    3.929 --     7 O    0.977    36 H    0.976    35 H    0.973
                            37 H    0.972
     9   6 C    3.882 --    12 C    1.375     6 C    1.213    10 O    1.113
    10   8 O    2.251 --     9 C    1.113    11 C    0.975
    11   6 C    3.926 --    39 H    0.976    10 O    0.975    40 H    0.972
                            38 H    0.972
    12   6 C    3.956 --    13 C    1.427     9 C    1.375    41 H    0.962
    13   6 C    3.936 --    12 C    1.427     4 C    1.368    42 H    0.967
    14   6 C    3.923 --     3 C    1.692     2 C    1.140    44 H    0.951
    15   6 C    3.105 --    16 C    1.087    46 H    0.982    45 H    0.979
    16   6 C    3.963 --    15 C    1.087    17 N    0.987    43 H    0.940
                            48 H    0.911
    17   7 N    3.119 --    18 C    1.020    30 C    1.016    16 C    0.987
    18   6 C    3.962 --    17 N    1.020    49 H    0.967    50 H    0.965
                            19 C    0.950
    19   6 C    3.963 --    20 C    1.019    52 H    0.970    51 H    0.968
                            18 C    0.950
    20   6 C    3.921 --    29 C    1.383    21 C    1.383    19 C    1.019
    21   6 C    3.922 --    22 C    1.430    20 C    1.383    53 H    0.967
    22   6 C    3.946 --    21 C    1.430    23 C    1.368    54 H    0.962
    23   6 C    3.866 --    22 C    1.368    26 C    1.205    24 O    1.122
    24   8 O    2.249 --    23 C    1.122    25 C    0.974
    25   6 C    3.922 --    57 H    0.976    24 O    0.974    56 H    0.971
                            55 H    0.970
    26   6 C    3.875 --    29 C    1.386    23 C    1.205    27 O    1.115
    27   8 O    2.250 --    26 C    1.115    28 C    0.976
    28   6 C    3.926 --    58 H    0.976    27 O    0.976    59 H    0.972
                            60 H    0.971
    29   6 C    3.946 --    26 C    1.386    20 C    1.383    61 H    0.961
    30   6 C    3.966 --    17 N    1.016    64 H    0.977    63 H    0.976
                            62 H    0.962
    31   6 C    3.977 --    33 C    1.006     3 C    0.997    32 C    0.974
                            65 H    0.950
    32   6 C    3.973 --    67 H    0.984    66 H    0.984    68 H    0.979
                            31 C    0.974
    33   6 C    3.984 --    31 C    1.006    70 H    0.984    71 H    0.981
                            69 H    0.980
    34   1 H    0.996 --     5 C    0.959
    35   1 H    0.992 --     8 C    0.973
    36   1 H    0.992 --     8 C    0.976
    37   1 H    0.992 --     8 C    0.972
    38   1 H    0.990 --    11 C    0.972
    39   1 H    0.992 --    11 C    0.976
    40   1 H    0.991 --    11 C    0.972
    41   1 H    0.994 --    12 C    0.962
    42   1 H    0.996 --    13 C    0.967
    43   1 H    0.972 --    16 C    0.940
    44   1 H    0.988 --    14 C    0.951
    45   1 H    0.995 --    15 C    0.979
    46   1 H    0.995 --    15 C    0.982
    47   1 H    0.966 --     2 C    0.920
    48   1 H    0.939 --    16 C    0.911
    49   1 H    0.993 --    18 C    0.967
    50   1 H    0.993 --    18 C    0.965
    51   1 H    0.994 --    19 C    0.968
    52   1 H    0.995 --    19 C    0.970
    53   1 H    0.996 --    21 C    0.967
    54   1 H    0.994 --    22 C    0.962
    55   1 H    0.988 --    25 C    0.970
    56   1 H    0.988 --    25 C    0.971
    57   1 H    0.992 --    25 C    0.976
    58   1 H    0.992 --    28 C    0.976
    59   1 H    0.990 --    28 C    0.972
    60   1 H    0.990 --    28 C    0.971
    61   1 H    0.995 --    29 C    0.961
    62   1 H    0.976 --    30 C    0.962
    63   1 H    0.994 --    30 C    0.976
    64   1 H    0.992 --    30 C    0.977
    65   1 H    0.990 --    31 C    0.950
    66   1 H    0.995 --    32 C    0.984
    67   1 H    0.996 --    32 C    0.984
    68   1 H    0.992 --    32 C    0.979
    69   1 H    0.994 --    33 C    0.980
    70   1 H    0.996 --    33 C    0.984
    71   1 H    0.994 --    33 C    0.981
    72   1 H    0.966 --     1 N    0.944
 ---------------------------------------------------------------------------

molecular dipole:
                 x           y           z       tot (Debye)
 q only:        0.271      -0.090      -0.356
   full:        0.216      -0.459      -0.498       1.807

           -------------------------------------------------
          | TOTAL ENERGY              -99.332083598915 Eh   |
          | GRADIENT NORM               0.002620654052 Eh/α |
          | HOMO-LUMO GAP               0.820705183193 eV   |
           -------------------------------------------------

 * finished run on 2024/04/06 at 11:16:42.520
