   * xtb version 6.6.1 (8d0f1dd) compiled by 'conda@1efc2f54142f' on 2023-08-01
          program call               : xtb struc.xyz --opt loose --input .xc1 --gfn2

   ID    Z sym.   atoms
    1    7 N      1, 17
    2    6 C      2-6, 8, 9, 11-16, 18-23, 25, 26, 28-33
    3    8 O      7, 10, 24, 27
    4    1 H      34-72
constraining bond 1 44 to    4.6866700 Å, actual value:    3.4681946 Å

          :  Hamiltonian                  GFN2-xTB          :
 * total energy  :   -99.6692257 Eh     change       -0.4035485E-08 Eh
 * total energy  :  -100.0111292 Eh     change       -0.3419035E+00 Eh
 * total energy  :  -100.4557717 Eh     change       -0.4446426E+00 Eh
 * total energy  :  -101.0118515 Eh     change       -0.5560798E+00 Eh
 * total energy  :  -101.7107560 Eh     change       -0.6989045E+00 Eh
 * total energy  :   -98.0876407 Eh     change        0.3623115E+01 Eh
 * total energy  :  -101.7603623 Eh     change       -0.3672722E+01 Eh
 * total energy  :  -101.8532363 Eh     change       -0.9287405E-01 Eh
 * total energy  :  -101.8746466 Eh     change       -0.2141025E-01 Eh
 * total energy  :  -101.9468355 Eh     change       -0.7218894E-01 Eh
 * total energy  :  -102.0697062 Eh     change       -0.8249620E-04 Eh
 * total energy  :  -102.0697826 Eh     change       -0.7639511E-04 Eh
 * total energy  :  -102.0698617 Eh     change       -0.7908673E-04 Eh
 * total energy  :  -102.0699414 Eh     change       -0.7968409E-04 Eh
 * total energy  :  -102.0699957 Eh     change       -0.5433873E-04 Eh
 * total energy  :  -102.0700469 Eh     change       -0.5119638E-04 Eh
 * total energy  :  -102.0701006 Eh     change       -0.5361730E-04 Eh
 * total energy  :  -102.0701600 Eh     change       -0.5946111E-04 Eh
 * total energy  :  -102.0701898 Eh     change       -0.2976115E-04 Eh
   *** GEOMETRY OPTIMIZATION CONVERGED AFTER 68 ITERATIONS ***

 final structure:
================
72
 xtb: 6.6.1 (8d0f1dd)
N           -1.25986928323217        2.95729347641602        1.48913681225649
C           -1.42576851700785        1.67316282758690        0.86623017879794
C           -2.76787350967579        1.55004661570721        0.07445843498778
C           -3.41218553643928        0.16752819330494        0.27904348471609
C           -4.13841886981611       -0.40693241970178       -0.76652827691898
C           -4.79290440503131       -1.61962043396873       -0.62072738547673
O           -5.52037298000934       -2.23176910267144       -1.57570975447258
C           -5.74069908996846       -1.58103553191269       -2.80488571472546
C           -4.72076089927561       -2.30963836518161        0.62014113173325
O           -5.37247400742734       -3.48492362474667        0.67100396618795
C           -5.37418793365827       -4.21893861470476        1.87406065220910
C           -4.01297919586669       -1.72474004282190        1.65865209926752
C           -3.37916388116060       -0.50133635927766        1.49451394219679
C           -2.35084827825314        1.73108102871858       -1.33226152473239
C           -0.90030304995731        1.67312398734088       -1.55638279193587
C           -0.27097359360925        1.40133824207203       -0.17659975540715
N            0.30412574573965        0.09936286983647        0.01200964114157
C            1.72853594729494        0.00463928435035        0.17290070180250
C            2.53176727944306        0.12878961821447       -1.14483829957658
C            4.00026187120989        0.21530454261437       -0.85909469902633
C            4.68640272255424        1.41313207783903       -0.99926639503238
C            6.04102579337644        1.49697666661151       -0.71937400452969
C            6.74025870753460        0.38294896017359       -0.27544760255841
O            8.04941924671494        0.34611617826179        0.02901833845550
C            8.82339900595040        1.51535655997411       -0.10890528399064
C            6.04393450515030       -0.84943567691022       -0.11583858766592
O            6.79563253179874       -1.87511047702219        0.32694625733758
C            6.19763506449369       -3.13272408552689        0.53296129262344
C            4.69207797436176       -0.91026808085572       -0.41492444451399
C           -0.34904475202852       -1.04954827297191       -0.55500373932424
C           -3.90654121172781        2.57301166551845        0.42429974721622
C           -4.33292269546803        2.51790050130679        1.88558324801775
C           -3.58633435854949        4.01802667435390        0.03060487415661
H           -4.19597719817314        0.10619267100398       -1.71143676110881
H           -6.23190337055205       -0.61350550457215       -2.66292708568916
H           -6.39866968347388       -2.23940361824211       -3.36877722752346
H           -4.80772400391689       -1.44147758525320       -3.36030263336036
H           -5.82847682171089       -3.65005371123184        2.69060302792745
H           -5.97390193850281       -5.10477424213058        1.67450287354513
H           -4.36179664718552       -4.52218529649708        2.15839722495212
H           -3.95761726574711       -2.20971691907904        2.61957128986222
H           -2.87453654480098       -0.08435045730975        2.35022003486896
H           -3.03401801116429        1.95566656775681       -2.13018434281439
H           -1.19326429247119        3.53732346499385        1.06021422808707
H           -0.63352897126700        0.90313615032281       -2.28816346562901
H           -0.53226257403321        2.61809400679182       -1.97660063326920
H           -1.35725622185963        0.90626608461547        1.63391151503182
H            0.52321409665675        2.12585950349116        0.02211173272080
H            1.95315117645194       -0.95814110379709        0.63763515972651
H            2.05496920650498        0.79176492514042        0.85748313918536
H            2.20595502827586        1.02452283422753       -1.67590762058165
H            2.32343884131347       -0.74080155285827       -1.77052287887833
H            4.16672181894111        2.29463595097425       -1.34299981671497
H            6.54701382914507        2.43929758683625       -0.85179013216890
H            8.45770575876137        2.31667138390311        0.54026646158686
H            8.84038774189494        1.86375842558224       -1.14591452366508
H            9.83062362007622        1.23634135636595        0.19469483691668
H            6.99123090743116       -3.77520763846856        0.90993835048175
H            5.39380793601001       -3.07770077453573        1.27396481646882
H            5.80768624306610       -3.54936766214687       -0.40087853030836
H            4.16014299009574       -1.84311176386678       -0.31437082123181
H           -0.03451048790232       -1.25620917951280       -1.58614185938379
H           -1.42566277082254       -0.90263353243110       -0.54138456662039
H           -0.11178743367183       -1.92669400484835        0.04809719400353
H           -4.75549411125537        2.24834800315152       -0.18828554125026
H           -3.49705975173917        2.75625607698769        2.53676283232945
H           -4.72212815584894        1.53817172570411        2.14857646948037
H           -5.11955285963585        3.24933959762183        2.05329715894163
H           -3.05157573780338        4.53366244153542        0.82169162725846
H           -2.99870581287971        4.06238893603519       -0.88364307201771
H           -4.51613492213942        4.55610286745767       -0.13830944611906
H           -0.75583835652405        2.92655462682773        2.36208928431547

          :  Hamiltonian                  GFN2-xTB          :
         :: total energy            -102.070189777760 Eh    ::
         :: gradient norm              0.002152085897 Eh/a0 ::
         :: HOMO-LUMO gap              0.874154466747 eV    ::
         :: SCC energy              -100.783911124762 Eh    ::
         :: -> dispersion             -0.076562353332 Eh    ::
         :: repulsion energy           1.515639143837 Eh    ::

    * Orbital Energies and Occupations

         #    Occupation            Energy/Eh            Energy/eV
      -------------------------------------------------------------
         1        2.0000           -0.8105766             -22.0569
       ...           ...                  ...                  ...
        78        1.9981           -0.5328159             -14.4987
        79        1.9974           -0.5277082             -14.3597
        80        1.9967           -0.5241749             -14.2635
        81        1.9964           -0.5227376             -14.2244
        82        1.9954           -0.5186176             -14.1123
        83        1.9951           -0.5177473             -14.0886
        84        1.9943           -0.5152729             -14.0213
        85        1.9738           -0.4909933             -13.3606
        86        1.9696           -0.4885951             -13.2954
        87        1.9535           -0.4817335             -13.1086
        88        1.8261           -0.4597648             -12.5108
        89        1.8109           -0.4583034             -12.4711
        90        1.6801           -0.4487927             -12.2123 (HOMO)
        91        0.8170           -0.4166681             -11.3381 (LUMO)
        92        0.0025           -0.3167220              -8.6184
        93        0.0021           -0.3140549              -8.5459
        94        0.0018           -0.3117372              -8.4828
        95        0.0015           -0.3089094              -8.4059
        96        0.0000           -0.1915054              -5.2111
        97        0.0000           -0.1865740              -5.0769
        98                         -0.1187489              -3.2313
        99                         -0.0803285              -2.1859
       100                         -0.0741287              -2.0171
       101                         -0.0628850              -1.7112
       ...                                ...                  ...
       171                          1.0591484              28.8209
      -------------------------------------------------------------
                  HL-Gap            0.0321246 Eh            0.8742 eV

     #   Z          covCN         q      C6AA      α(0)
     1   7 N        2.633    -0.323    28.314     7.903
     2   6 C        3.801     0.031    20.054     6.376
     3   6 C        3.907     0.010    20.352     6.412
     4   6 C        2.972     0.005    27.917     8.667
     5   6 C        2.921    -0.081    30.015     8.984
     6   6 C        2.862     0.132    25.110     8.214
     7   8 O        1.706    -0.224    17.717     5.683
     8   6 C        3.644     0.026    20.472     6.504
     9   6 C        2.864     0.133    25.091     8.211
    10   8 O        1.706    -0.221    17.662     5.674
    11   6 C        3.645     0.024    20.499     6.507
    12   6 C        2.914    -0.070    29.734     8.942
    13   6 C        2.921    -0.048    29.186     8.859
    14   6 C        2.928    -0.041    29.012     8.833
    15   6 C        3.811    -0.065    21.736     6.636
    16   6 C        3.807     0.019    20.249     6.406
    17   7 N        2.727    -0.111    23.420     7.187
    18   6 C        3.749    -0.005    20.731     6.494
    19   6 C        3.806    -0.071    21.846     6.654
    20   6 C        2.968     0.007    27.862     8.658
    21   6 C        2.922    -0.045    29.123     8.850
    22   6 C        2.913    -0.066    29.644     8.928
    23   6 C        2.864     0.135    25.053     8.204
    24   8 O        1.706    -0.217    17.603     5.665
    25   6 C        3.645     0.024    20.505     6.508
    26   6 C        2.862     0.135    25.049     8.204
    27   8 O        1.706    -0.220    17.655     5.673
    28   6 C        3.645     0.026    20.475     6.504
    29   6 C        2.919    -0.077    29.925     8.971
    30   6 C        3.696    -0.052    21.685     6.662
    31   6 C        3.855    -0.007    20.673     6.467
    32   6 C        3.755    -0.119    22.836     6.814
    33   6 C        3.754    -0.116    22.782     6.806
    34   1 H        0.926     0.053     2.286     2.364
    35   1 H        0.924     0.054     2.272     2.357
    36   1 H        0.925     0.083     1.946     2.182
    37   1 H        0.924     0.050     2.314     2.379
    38   1 H        0.924     0.057     2.235     2.338
    39   1 H        0.925     0.083     1.945     2.181
    40   1 H        0.924     0.054     2.268     2.355
    41   1 H        0.926     0.059     2.211     2.325
    42   1 H        0.926     0.056     2.252     2.347
    43   1 H        0.926     0.053     2.286     2.364
    44   1 H        0.863     0.204     1.084     1.631
    45   1 H        0.924     0.074     2.043     2.235
    46   1 H        0.924     0.071     2.078     2.255
    47   1 H        0.925     0.060     2.202     2.320
    48   1 H        0.924     0.050     2.316     2.380
    49   1 H        0.924     0.055     2.253     2.347
    50   1 H        0.924     0.049     2.327     2.386
    51   1 H        0.924     0.046     2.364     2.405
    52   1 H        0.924     0.052     2.298     2.370
    53   1 H        0.926     0.048     2.339     2.392
    54   1 H        0.926     0.060     2.203     2.321
    55   1 H        0.924     0.057     2.240     2.341
    56   1 H        0.924     0.058     2.223     2.332
    57   1 H        0.925     0.084     1.941     2.179
    58   1 H        0.925     0.083     1.949     2.183
    59   1 H        0.924     0.052     2.298     2.371
    60   1 H        0.924     0.055     2.259     2.350
    61   1 H        0.926     0.051     2.302     2.373
    62   1 H        0.924     0.043     2.413     2.429
    63   1 H        0.925     0.062     2.181     2.309
    64   1 H        0.924     0.057     2.238     2.339
    65   1 H        0.924     0.043     2.403     2.424
    66   1 H        0.925     0.056     2.249     2.345
    67   1 H        0.925     0.043     2.404     2.425
    68   1 H        0.925     0.056     2.248     2.345
    69   1 H        0.925     0.055     2.259     2.350
    70   1 H        0.925     0.038     2.472     2.459
    71   1 H        0.925     0.051     2.306     2.375
    72   1 H        0.860     0.156     1.361     1.828

Wiberg/Mayer (AO) data.
largest (>0.10) Wiberg bond orders for each atom

     #   Z sym  total        # sym  WBO       # sym  WBO       # sym  WBO
 ---------------------------------------------------------------------------
     1   7 N    3.025 --     2 C    1.045    72 H    0.962    44 H    0.948
     2   6 C    3.945 --     1 N    1.045    47 H    0.960     3 C    0.945
                            16 C    0.917
     3   6 C    3.965 --    14 C    1.067     2 C    0.945     4 C    0.932
                            31 C    0.914
     4   6 C    3.887 --    13 C    1.400     5 C    1.373     3 C    0.932
     5   6 C    3.954 --     6 C    1.394     4 C    1.373    34 H    0.957
     6   6 C    3.894 --     5 C    1.394     9 C    1.216     7 O    1.105
     7   8 O    2.251 --     6 C    1.105     8 C    0.977
     8   6 C    3.930 --     7 O    0.977    36 H    0.976    35 H    0.973
                            37 H    0.973
     9   6 C    3.891 --    12 C    1.383     6 C    1.216    10 O    1.111
    10   8 O    2.253 --     9 C    1.111    11 C    0.975
    11   6 C    3.927 --    39 H    0.977    10 O    0.975    40 H    0.972
                            38 H    0.972
    12   6 C    3.953 --    13 C    1.411     9 C    1.383    41 H    0.962
    13   6 C    3.940 --    12 C    1.411     4 C    1.400    42 H    0.958
    14   6 C    3.226 --    15 C    1.089     3 C    1.067    43 H    0.967
    15   6 C    3.966 --    14 C    1.089    16 C    0.972    46 H    0.928
                            45 H    0.928
    16   6 C    3.952 --    17 N    1.018    15 C    0.972    48 H    0.963
                             2 C    0.917
    17   7 N    3.141 --    16 C    1.018    30 C    1.017    18 C    1.016
    18   6 C    3.964 --    17 N    1.016    50 H    0.968    49 H    0.967
                            19 C    0.955
    19   6 C    3.966 --    20 C    1.017    51 H    0.974    52 H    0.965
                            18 C    0.955
    20   6 C    3.929 --    21 C    1.396    29 C    1.376    19 C    1.017
    21   6 C    3.931 --    22 C    1.421    20 C    1.396    53 H    0.967
    22   6 C    3.950 --    21 C    1.421    23 C    1.377    54 H    0.963
    23   6 C    3.875 --    22 C    1.377    26 C    1.209    24 O    1.115
    24   8 O    2.248 --    23 C    1.115    25 C    0.975
    25   6 C    3.926 --    57 H    0.976    24 O    0.975    55 H    0.972
                            56 H    0.971
    26   6 C    3.884 --    29 C    1.394    23 C    1.209    27 O    1.109
    27   8 O    2.250 --    26 C    1.109    28 C    0.977
    28   6 C    3.929 --    27 O    0.977    58 H    0.976    59 H    0.973
                            60 H    0.972
    29   6 C    3.951 --    26 C    1.394    20 C    1.376    61 H    0.962
    30   6 C    3.966 --    17 N    1.017    64 H    0.974    63 H    0.970
                            62 H    0.961
    31   6 C    3.946 --    32 C    1.012    33 C    1.004    65 H    0.963
                             3 C    0.914
    32   6 C    3.981 --    31 C    1.012    67 H    0.979    66 H    0.979
                            68 H    0.978
    33   6 C    3.978 --    31 C    1.004    71 H    0.983    69 H    0.980
                            70 H    0.978
    34   1 H    0.996 --     5 C    0.957
    35   1 H    0.992 --     8 C    0.973
    36   1 H    0.992 --     8 C    0.976
    37   1 H    0.992 --     8 C    0.973
    38   1 H    0.991 --    11 C    0.972
    39   1 H    0.992 --    11 C    0.977
    40   1 H    0.991 --    11 C    0.972
    41   1 H    0.994 --    12 C    0.962
    42   1 H    0.996 --    13 C    0.958
    43   1 H    0.995 --    14 C    0.967
    44   1 H    0.958 --     1 N    0.948
    45   1 H    0.956 --    15 C    0.928
    46   1 H    0.952 --    15 C    0.928
    47   1 H    0.995 --     2 C    0.960
    48   1 H    0.996 --    16 C    0.963
    49   1 H    0.993 --    18 C    0.967
    50   1 H    0.993 --    18 C    0.968
    51   1 H    0.997 --    19 C    0.974
    52   1 H    0.993 --    19 C    0.965
    53   1 H    0.997 --    21 C    0.967
    54   1 H    0.994 --    22 C    0.963
    55   1 H    0.990 --    25 C    0.972
    56   1 H    0.990 --    25 C    0.971
    57   1 H    0.992 --    25 C    0.976
    58   1 H    0.992 --    28 C    0.976
    59   1 H    0.991 --    28 C    0.973
    60   1 H    0.991 --    28 C    0.972
    61   1 H    0.996 --    29 C    0.962
    62   1 H    0.977 --    30 C    0.961
    63   1 H    0.994 --    30 C    0.970
    64   1 H    0.990 --    30 C    0.974
    65   1 H    0.993 --    31 C    0.963
    66   1 H    0.994 --    32 C    0.979
    67   1 H    0.996 --    32 C    0.979
    68   1 H    0.992 --    32 C    0.978
    69   1 H    0.995 --    33 C    0.980
    70   1 H    0.997 --    33 C    0.978
    71   1 H    0.995 --    33 C    0.983
    72   1 H    0.975 --     1 N    0.962
 ---------------------------------------------------------------------------

molecular dipole:
                 x           y           z       tot (Debye)
 q only:        0.128       0.519       0.045
   full:        0.326       0.693      -0.193       2.008

           -------------------------------------------------
          | TOTAL ENERGY             -102.070189777760 Eh   |
          | GRADIENT NORM               0.002152085897 Eh/α |
          | HOMO-LUMO GAP               0.874154466747 eV   |
           -------------------------------------------------

 * finished run on 2024/04/06 at 11:15:29.672
