   * xtb version 6.6.1 (8d0f1dd) compiled by 'conda@1efc2f54142f' on 2023-08-01
          program call               : xtb xtbopt.xyz --opt crude --input .xc2 --gfn2

   ID    Z sym.   atoms
    1    7 N      1, 17
    2    6 C      2-6, 8, 9, 11-16, 18-23, 25, 26, 28-33
    3    8 O      7, 10, 24, 27
    4    1 H      34-72
########################################################################
[WARNING] Please study the warnings concerning your input carefully
-1- readin_getIntValue: could not parse ''
########################################################################

          :  Hamiltonian                  GFN2-xTB          :
 * total energy  :   -99.2670670 Eh     change       -0.1124079E-10 Eh
 * total energy  :   -99.4025593 Eh     change       -0.1354924E+00 Eh
 * total energy  :   -99.4039308 Eh     change       -0.1371469E-02 Eh
 * total energy  :   -99.4045557 Eh     change       -0.6248886E-03 Eh
 * total energy  :   -99.4048550 Eh     change       -0.2993120E-03 Eh
 * total energy  :   -99.4051940 Eh     change       -0.3389773E-03 Eh
   *** GEOMETRY OPTIMIZATION CONVERGED AFTER 6 ITERATIONS ***

 final structure:
================
72
 xtb: 6.6.1 (8d0f1dd)
N           -1.30201100280603        2.91850418611014        1.56483091293871
C           -1.43764885494786        1.66143745741477        0.88029179123507
C           -2.77560796998264        1.54617199168773        0.08193085690505
C           -3.42505030370821        0.16467022707199        0.28266943242689
C           -4.14350928112260       -0.41050780780837       -0.76703041060378
C           -4.79837782548725       -1.62414082534542       -0.62425825539736
O           -5.52071388876766       -2.23548213910045       -1.58324094997101
C           -5.72586006101342       -1.58759523724932       -2.81645425941162
C           -4.73121713712773       -2.31397826476956        0.61674709006580
O           -5.37648020723404       -3.49300379551747        0.66472412275105
C           -5.38321887796534       -4.22315238753170        1.87015933682795
C           -4.03382034985425       -1.72573119355808        1.66083735389599
C           -3.40287368152915       -0.50080093920028        1.50070602462997
C           -2.35178092839370        1.72764169951925       -1.32216318503162
C           -0.89999390495667        1.68110791419443       -1.53887539314894
C           -0.27520757612063        1.41044120975187       -0.15627187722679
N            0.31234256684045        0.11243667442188        0.02757313846164
C            1.73788373635865        0.02169724575981        0.17606563522979
C            2.53378396206985        0.12655917309813       -1.14851306339048
C            4.00270432720962        0.21260303720646       -0.86559728668504
C            4.68750695713791        1.41201519175080       -0.99805882524929
C            6.04127081278320        1.49595959908513       -0.71400517550997
C            6.74126105179274        0.38062747734160       -0.27441695824575
O            8.04980122223515        0.34482310624921        0.03205535835599
C            8.82342890708606        1.51436222875691       -0.10693882648265
C            6.04599144382752       -0.85346220314916       -0.12224282177420
O            6.79665293473632       -1.88079420237191        0.31750531860655
C            6.19783735655088       -3.13933359288040        0.51661254839910
C            4.69473495104532       -0.91403918980099       -0.42471675156087
C           -0.34223391467742       -1.04183683278616       -0.52829047702505
C           -3.91968966230906        2.56631312243963        0.42713898289997
C           -4.33597729736314        2.52233429879357        1.89155570547842
C           -3.60926588015790        4.00974049779228        0.02237046338325
H           -4.19672981719896        0.10102176352836       -1.71291028054389
H           -6.21822802861431       -0.61946175889121       -2.68308184398635
H           -6.37728758513303       -2.24664610710353       -3.38712140097732
H           -4.78589849456047       -1.44998342300659       -3.36035980835161
H           -5.85188939843737       -3.65558172325573        2.67953418204751
H           -5.97176348846069       -5.11585618774291        1.66785583080192
H           -4.37101813376772       -4.51513626437442        2.16648027338800
H           -3.98442991624298       -2.21002277363217        2.62233735166852
H           -2.91028768984363       -0.07802787026182        2.36049090951436
H           -3.03441317479982        1.95152375190282       -2.12094640411196
H           -1.11745768511979        3.69126424211692        0.93945073473364
H           -0.62382067929438        0.91350722713894       -2.26987631897185
H           -0.53668521376073        2.62864212746569       -1.95751230632359
H           -1.37486866783328        0.87806146692477        1.63437586723441
H            0.51322096272894        2.14084123086600        0.04730307893081
H            1.96767621455235       -0.93451391414043        0.65241203318619
H            2.07121065110919        0.81819569258711        0.84668711941694
H            2.20820374757766        1.01650052931478       -1.68948681510590
H            2.32067097101425       -0.75062103044643       -1.76181294470559
H            4.16785684326021        2.29471366980258       -1.33859979211779
H            6.54597838798946        2.43997982658929       -0.83881126285217
H            8.46162600795683        2.31402837351654        0.54640071983992
H            8.83444238908405        1.86545219510282       -1.14312928224678
H            9.83222378949251        1.23433885021851        0.19020075872597
H            6.99268831984769       -3.78640479928691        0.88254915795094
H            5.39928480533957       -3.08879995051932        1.26352720827389
H            5.80062537956670       -3.54715034681800       -0.41796556307809
H            4.16329323996507       -1.84765866034003       -0.32911402723045
H           -0.04167424485539       -1.24825737672450       -1.56374495395353
H           -1.41978052985206       -0.90209022320445       -0.49937451405028
H           -0.08949099862698       -1.91603156606711        0.07312728340042
H           -4.76929586678079        2.23056266567707       -0.17916574326506
H           -3.48929968379634        2.75899348664105        2.52917308561108
H           -4.73231144147123        1.54814510320479        2.16354179537851
H           -5.11426442384879        3.26252977434808        2.06076319384189
H           -3.07673443725774        4.52805422127406        0.81285636537277
H           -3.02364471877593        4.05294121580397       -0.89316505109703
H           -4.54311234742263        4.54034926839110       -0.14911899789990
H           -0.59276107087440        2.88114908849709        2.28479564834686

          :  Hamiltonian                  GFN2-xTB          :
         :: total energy             -99.405193992442 Eh    ::
         :: gradient norm              0.002114958192 Eh/a0 ::
         :: HOMO-LUMO gap              0.890736643405 eV    ::
         :: SCC energy              -100.746886141661 Eh    ::
         :: -> dispersion             -0.076503580240 Eh    ::
         :: repulsion energy           1.340491027440 Eh    ::

    * Orbital Energies and Occupations

         #    Occupation            Energy/Eh            Energy/eV
      -------------------------------------------------------------
         1        2.0000           -0.8112541             -22.0753
       ...           ...                  ...                  ...
        78        1.9981           -0.5336583             -14.5216
        79        1.9974           -0.5286151             -14.3843
        80        1.9963           -0.5231044             -14.2344
        81        1.9960           -0.5218506             -14.2003
        82        1.9953           -0.5195978             -14.1390
        83        1.9946           -0.5172027             -14.0738
        84        1.9928           -0.5127627             -13.9530
        85        1.9726           -0.4913563             -13.3705
        86        1.9697           -0.4897566             -13.3270
        87        1.9590           -0.4848397             -13.1932
        88        1.8232           -0.4605792             -12.5330
        89        1.8111           -0.4594306             -12.5017
        90        1.6876           -0.4503438             -12.2545 (HOMO)
        91        0.8120           -0.4176099             -11.3637 (LUMO)
        92        0.0024           -0.3171550              -8.6302
        93        0.0020           -0.3144502              -8.5566
        94        0.0018           -0.3126811              -8.5085
        95        0.0015           -0.3099045              -8.4329
        96        0.0000           -0.1919424              -5.2230
        97        0.0000           -0.1875902              -5.1046
        98                         -0.1193148              -3.2467
        99                         -0.0842532              -2.2926
       100                         -0.0800198              -2.1775
       101                         -0.0631149              -1.7174
       ...                                ...                  ...
       171                          0.5755417              15.6613
      -------------------------------------------------------------
                  HL-Gap            0.0327340 Eh            0.8907 eV

     #   Z          covCN         q      C6AA      α(0)
     1   7 N        2.630    -0.302    27.770     7.827
     2   6 C        3.801     0.035    19.994     6.366
     3   6 C        3.907     0.011    20.334     6.410
     4   6 C        2.972     0.005    27.904     8.665
     5   6 C        2.920    -0.080    30.012     8.984
     6   6 C        2.862     0.132    25.106     8.213
     7   8 O        1.706    -0.223    17.703     5.681
     8   6 C        3.644     0.026    20.474     6.504
     9   6 C        2.864     0.133    25.089     8.210
    10   8 O        1.706    -0.220    17.653     5.673
    11   6 C        3.646     0.024    20.501     6.507
    12   6 C        2.914    -0.069    29.726     8.941
    13   6 C        2.921    -0.047    29.177     8.858
    14   6 C        2.928    -0.040    28.991     8.830
    15   6 C        3.811    -0.064    21.727     6.635
    16   6 C        3.806     0.021    20.222     6.402
    17   7 N        2.727    -0.113    23.459     7.194
    18   6 C        3.749    -0.004    20.711     6.491
    19   6 C        3.806    -0.070    21.842     6.653
    20   6 C        2.968     0.007    27.861     8.658
    21   6 C        2.922    -0.045    29.121     8.849
    22   6 C        2.913    -0.066    29.643     8.928
    23   6 C        2.864     0.135    25.050     8.204
    24   8 O        1.706    -0.217    17.596     5.664
    25   6 C        3.645     0.024    20.507     6.508
    26   6 C        2.862     0.135    25.045     8.203
    27   8 O        1.706    -0.220    17.648     5.672
    28   6 C        3.645     0.026    20.477     6.504
    29   6 C        2.919    -0.077    29.925     8.971
    30   6 C        3.696    -0.051    21.675     6.660
    31   6 C        3.855    -0.006    20.652     6.463
    32   6 C        3.755    -0.121    22.883     6.821
    33   6 C        3.754    -0.116    22.788     6.807
    34   1 H        0.926     0.053     2.283     2.363
    35   1 H        0.924     0.054     2.267     2.355
    36   1 H        0.925     0.083     1.944     2.180
    37   1 H        0.924     0.051     2.312     2.378
    38   1 H        0.924     0.057     2.229     2.335
    39   1 H        0.925     0.084     1.943     2.180
    40   1 H        0.924     0.054     2.265     2.354
    41   1 H        0.926     0.060     2.203     2.321
    42   1 H        0.926     0.058     2.225     2.332
    43   1 H        0.926     0.054     2.276     2.359
    44   1 H        0.860     0.162     1.323     1.802
    45   1 H        0.924     0.074     2.044     2.236
    46   1 H        0.924     0.070     2.090     2.261
    47   1 H        0.925     0.060     2.197     2.318
    48   1 H        0.924     0.046     2.375     2.410
    49   1 H        0.924     0.055     2.255     2.349
    50   1 H        0.924     0.048     2.343     2.394
    51   1 H        0.924     0.046     2.369     2.407
    52   1 H        0.924     0.052     2.298     2.371
    53   1 H        0.926     0.048     2.341     2.392
    54   1 H        0.926     0.060     2.201     2.320
    55   1 H        0.924     0.057     2.237     2.339
    56   1 H        0.924     0.058     2.221     2.331
    57   1 H        0.925     0.084     1.938     2.177
    58   1 H        0.925     0.083     1.946     2.181
    59   1 H        0.924     0.052     2.294     2.369
    60   1 H        0.924     0.055     2.257     2.349
    61   1 H        0.926     0.052     2.300     2.371
    62   1 H        0.924     0.043     2.415     2.430
    63   1 H        0.925     0.061     2.185     2.311
    64   1 H        0.924     0.057     2.236     2.338
    65   1 H        0.924     0.043     2.408     2.427
    66   1 H        0.925     0.063     2.163     2.300
    67   1 H        0.925     0.043     2.403     2.424
    68   1 H        0.925     0.057     2.240     2.340
    69   1 H        0.925     0.059     2.207     2.323
    70   1 H        0.925     0.037     2.489     2.467
    71   1 H        0.925     0.052     2.301     2.372
    72   1 H        0.860     0.156     1.362     1.828

Wiberg/Mayer (AO) data.
largest (>0.10) Wiberg bond orders for each atom

     #   Z sym  total        # sym  WBO       # sym  WBO       # sym  WBO
 ---------------------------------------------------------------------------
     1   7 N    3.023 --     2 C    1.043    72 H    0.959    44 H    0.953
     2   6 C    3.946 --     1 N    1.043    47 H    0.956     3 C    0.949
                            16 C    0.921
     3   6 C    3.967 --    14 C    1.069     2 C    0.949     4 C    0.931
                            31 C    0.911
     4   6 C    3.885 --    13 C    1.398     5 C    1.375     3 C    0.931
     5   6 C    3.954 --     6 C    1.392     4 C    1.375    34 H    0.957
     6   6 C    3.892 --     5 C    1.392     9 C    1.216     7 O    1.105
     7   8 O    2.251 --     6 C    1.105     8 C    0.977
     8   6 C    3.930 --     7 O    0.977    36 H    0.976    35 H    0.973
                            37 H    0.972
     9   6 C    3.889 --    12 C    1.381     6 C    1.216    10 O    1.112
    10   8 O    2.252 --     9 C    1.112    11 C    0.975
    11   6 C    3.927 --    39 H    0.977    10 O    0.975    40 H    0.972
                            38 H    0.972
    12   6 C    3.952 --    13 C    1.412     9 C    1.381    41 H    0.962
    13   6 C    3.938 --    12 C    1.412     4 C    1.398    42 H    0.958
    14   6 C    3.227 --    15 C    1.089     3 C    1.069    43 H    0.967
    15   6 C    3.966 --    14 C    1.089    16 C    0.972    46 H    0.928
                            45 H    0.928
    16   6 C    3.954 --    17 N    1.017    15 C    0.972    48 H    0.963
                             2 C    0.921
    17   7 N    3.141 --    16 C    1.017    30 C    1.017    18 C    1.017
    18   6 C    3.964 --    17 N    1.017    50 H    0.968    49 H    0.967
                            19 C    0.954
    19   6 C    3.966 --    20 C    1.017    51 H    0.974    52 H    0.966
                            18 C    0.954
    20   6 C    3.929 --    21 C    1.396    29 C    1.376    19 C    1.017
    21   6 C    3.930 --    22 C    1.421    20 C    1.396    53 H    0.967
    22   6 C    3.950 --    21 C    1.421    23 C    1.377    54 H    0.963
    23   6 C    3.875 --    22 C    1.377    26 C    1.209    24 O    1.115
    24   8 O    2.248 --    23 C    1.115    25 C    0.975
    25   6 C    3.925 --    57 H    0.976    24 O    0.975    55 H    0.971
                            56 H    0.971
    26   6 C    3.884 --    29 C    1.394    23 C    1.209    27 O    1.109
    27   8 O    2.250 --    26 C    1.109    28 C    0.977
    28   6 C    3.929 --    27 O    0.977    58 H    0.976    59 H    0.972
                            60 H    0.972
    29   6 C    3.951 --    26 C    1.394    20 C    1.376    61 H    0.962
    30   6 C    3.966 --    17 N    1.017    64 H    0.974    63 H    0.970
                            62 H    0.961
    31   6 C    3.943 --    32 C    1.012    33 C    1.004    65 H    0.962
                             3 C    0.911
    32   6 C    3.978 --    31 C    1.012    67 H    0.979    68 H    0.977
                            66 H    0.976
    33   6 C    3.978 --    31 C    1.004    71 H    0.982    69 H    0.978
                            70 H    0.977
    34   1 H    0.996 --     5 C    0.957
    35   1 H    0.992 --     8 C    0.973
    36   1 H    0.992 --     8 C    0.976
    37   1 H    0.992 --     8 C    0.972
    38   1 H    0.991 --    11 C    0.972
    39   1 H    0.992 --    11 C    0.977
    40   1 H    0.991 --    11 C    0.972
    41   1 H    0.994 --    12 C    0.962
    42   1 H    0.995 --    13 C    0.958
    43   1 H    0.995 --    14 C    0.967
    44   1 H    0.972 --     1 N    0.953
    45   1 H    0.957 --    15 C    0.928
    46   1 H    0.952 --    15 C    0.928
    47   1 H    0.995 --     2 C    0.956
    48   1 H    0.997 --    16 C    0.963
    49   1 H    0.993 --    18 C    0.967
    50   1 H    0.994 --    18 C    0.968
    51   1 H    0.997 --    19 C    0.974
    52   1 H    0.993 --    19 C    0.966
    53   1 H    0.997 --    21 C    0.967
    54   1 H    0.994 --    22 C    0.963
    55   1 H    0.990 --    25 C    0.971
    56   1 H    0.989 --    25 C    0.971
    57   1 H    0.992 --    25 C    0.976
    58   1 H    0.992 --    28 C    0.976
    59   1 H    0.991 --    28 C    0.972
    60   1 H    0.991 --    28 C    0.972
    61   1 H    0.996 --    29 C    0.962
    62   1 H    0.977 --    30 C    0.961
    63   1 H    0.994 --    30 C    0.970
    64   1 H    0.990 --    30 C    0.974
    65   1 H    0.993 --    31 C    0.962
    66   1 H    0.992 --    32 C    0.976
    67   1 H    0.996 --    32 C    0.979
    68   1 H    0.991 --    32 C    0.977
    69   1 H    0.994 --    33 C    0.978
    70   1 H    0.997 --    33 C    0.977
    71   1 H    0.994 --    33 C    0.982
    72   1 H    0.974 --     1 N    0.959
 ---------------------------------------------------------------------------

molecular dipole:
                 x           y           z       tot (Debye)
 q only:        0.149       0.446      -0.023
   full:        0.463       0.605      -0.354       2.136

           -------------------------------------------------
          | TOTAL ENERGY              -99.405193992442 Eh   |
          | GRADIENT NORM               0.002114958192 Eh/α |
          | HOMO-LUMO GAP               0.890736643405 eV   |
           -------------------------------------------------

 * finished run on 2024/04/06 at 11:15:30.970
