   * xtb version 6.6.1 (8d0f1dd) compiled by 'conda@1efc2f54142f' on 2023-08-01
          program call               : xtb xtbopt.xyz --opt crude --input .xc2 --gfn2

   ID    Z sym.   atoms
    1    6 C      1, 3, 5-7, 10, 11, 14
    2    7 N      2, 4, 9, 13
    3    8 O      8, 12
    4    1 H      15-25
########################################################################
[WARNING] Please study the warnings concerning your input carefully
-1- readin_getIntValue: could not parse ''
########################################################################

          :  Hamiltonian                  GFN2-xTB          :
 * total energy  :   -40.5605813 Eh     change       -0.2131628E-12 Eh
 * total energy  :   -42.0535084 Eh     change       -0.1492927E+01 Eh
 * total energy  :   -42.0858387 Eh     change       -0.3233034E-01 Eh
 * total energy  :   -42.0923025 Eh     change       -0.6463795E-02 Eh
 * total energy  :   -42.0928520 Eh     change       -0.5494898E-03 Eh
 * total energy  :   -42.0929625 Eh     change       -0.1105067E-03 Eh
 * total energy  :   -42.0930072 Eh     change       -0.4468523E-04 Eh
 * total energy  :   -42.0930450 Eh     change       -0.3785076E-04 Eh
   *** GEOMETRY OPTIMIZATION CONVERGED AFTER 8 ITERATIONS ***

 final structure:
================
25
 xtb: 6.6.1 (8d0f1dd)
C            3.28819201379968        0.86456884280619        0.35868984820578
N            1.98820236028947       -0.85520284854273       -0.94953755179273
C            2.33611842742315       -0.28644746406493        0.35316295677817
N            1.15299590641760       -2.04852333867847       -0.83569133691915
C            0.21779591372433       -1.35933821646316       -0.22446593707329
C            0.95739154203320       -0.07615233665405       -0.20279726488855
C            0.16638542694530        1.17015873496001       -0.41000624212609
O            0.59714592565675        2.21246011215209       -0.82102539449657
N           -1.13244554306461        0.95008438006403        0.00827055288191
C           -2.01397503169593        2.11527303513093        0.06252422968187
C           -1.76445672263661       -0.25339532150801        0.35350880889094
O           -2.89026053361155       -0.27611477006877        0.74896717071220
N           -1.04618809782345       -1.46225142963781        0.14386876291761
C           -1.75590791941695       -2.72850542796320        0.18558529296408
H            3.26469796414266        1.34630561409668        1.33414067007180
H            4.30432535060067        0.51146107937171        0.19018990009621
H            3.02891940254353        1.60522377919679       -0.39524827115253
H            2.46960085826591       -1.03489745411592        1.13157240927479
H           -1.42324928259580        3.00199099296078       -0.15192446659549
H           -2.81211995903409        2.01411030514026       -0.67238908920684
H           -2.46145271422984        2.18611631268845        1.05286717243704
H           -1.37732060802669       -3.33822890411771        1.00505031292865
H           -1.60697711344202       -3.26047109290328       -0.75325588016078
H           -2.81276387737267       -2.52235096024297        0.34386194663215
H            2.48577782521849       -0.65763508202716       -1.82474698215218

          :  Hamiltonian                  GFN2-xTB          :
         :: total energy             -42.093045023587 Eh    ::
         :: gradient norm              0.009733704502 Eh/a0 ::
         :: HOMO-LUMO gap              2.905829670580 eV    ::
         :: SCC energy               -42.584409453336 Eh    ::
         :: -> dispersion             -0.022034794146 Eh    ::
         :: repulsion energy           0.491186822240 Eh    ::

    * Orbital Energies and Occupations

         #    Occupation            Energy/Eh            Energy/eV
      -------------------------------------------------------------
         1        2.0000           -0.9391257             -25.5549
       ...           ...                  ...                  ...
        25        1.9999           -0.6753757             -18.3779
        26        1.9999           -0.6673606             -18.1598
        27        1.9996           -0.6501138             -17.6905
        28        1.9993           -0.6411582             -17.4468
        29        1.9993           -0.6403626             -17.4252
        30        1.9989           -0.6331920             -17.2300
        31        1.9984           -0.6267423             -17.0545
        32        1.9972           -0.6180357             -16.8176
        33        1.9957           -0.6113903             -16.6368
        34        1.9887           -0.5961535             -16.2222
        35        1.9825           -0.5891848             -16.0325
        36        1.9790           -0.5861954             -15.9512
        37        1.9567           -0.5746062             -15.6358 (HOMO)
        38        0.1012           -0.4678189             -12.7300 (LUMO)
        39        0.0035           -0.4137187             -11.2579
        40        0.0003           -0.3762535             -10.2384
        41        0.0000           -0.3241834              -8.8215
        42        0.0000           -0.3013771              -8.2009
        43                         -0.2361135              -6.4250
        44                         -0.2082148              -5.6658
        45                         -0.1666345              -4.5344
        46                         -0.1289271              -3.5083
        47                         -0.0899126              -2.4466
        48                         -0.0744898              -2.0270
       ...                                ...                  ...
        67                          0.5354671              14.5708
      -------------------------------------------------------------
                  HL-Gap            0.1067873 Eh            2.9058 eV

     #   Z          covCN         q      C6AA      α(0)
     1   6 C        3.753    -0.142    23.290     6.882
     2   7 N        4.037     0.112    19.317     6.528
     3   6 C        3.798     0.050    19.748     6.327
     4   7 N        2.100    -0.226    26.596     7.651
     5   6 C        3.247     0.156    23.748     7.893
     6   6 C        4.068     0.024    20.083     6.365
     7   6 C        2.760     0.274    22.367     7.745
     8   8 O        0.857    -0.327    20.273     6.037
     9   7 N        2.745    -0.088    22.947     7.115
    10   6 C        3.710    -0.064    21.878     6.685
    11   6 C        2.732     0.321    21.547     7.600
    12   8 O        0.859    -0.312    20.006     5.997
    13   7 N        2.732    -0.040    22.012     6.968
    14   6 C        3.697    -0.072    22.052     6.717
    15   1 H        0.925     0.114     1.662     2.016
    16   1 H        0.925     0.109     1.707     2.043
    17   1 H        0.925     0.104     1.750     2.069
    18   1 H        0.925     0.117     1.635     2.000
    19   1 H        0.925     0.115     1.655     2.012
    20   1 H        0.925     0.104     1.751     2.069
    21   1 H        0.925     0.109     1.707     2.043
    22   1 H        0.925     0.105     1.744     2.065
    23   1 H        0.925     0.106     1.735     2.060
    24   1 H        0.925     0.124     1.579     1.965
    25   1 H        0.859     0.228     0.974     1.546

Wiberg/Mayer (AO) data.
largest (>0.10) Wiberg bond orders for each atom

     #   Z sym  total        # sym  WBO       # sym  WBO       # sym  WBO
 ---------------------------------------------------------------------------
     1   6 C    3.960 --     3 C    1.029    17 H    0.971    15 H    0.957
                            16 H    0.954
     2   7 N    3.700 --     4 N    0.959    25 H    0.912     3 C    0.886
                             6 C    0.845
     3   6 C    3.869 --     1 C    1.029    18 H    0.951     6 C    0.901
                             2 N    0.886
     4   7 N    2.770 --     5 C    1.529     2 N    0.959    13 N    0.132
     5   6 C    3.932 --     4 N    1.529    13 N    1.291     6 C    0.980
     6   6 C    3.861 --     5 C    0.980     7 C    0.962     3 C    0.901
                             2 N    0.845
     7   6 C    3.941 --     8 O    1.742     9 N    1.145     6 C    0.962
     8   8 O    2.081 --     7 C    1.742     9 N    0.161
     9   7 N    3.548 --     7 C    1.145    11 C    1.080    10 C    0.960
                             8 O    0.161    12 O    0.118
    10   6 C    3.900 --    19 H    0.968    21 H    0.962    20 H    0.962
                             9 N    0.960
    11   6 C    3.941 --    12 O    1.757     9 N    1.080    13 N    1.014
    12   8 O    2.099 --    11 C    1.757     9 N    0.118    13 N    0.102
    13   7 N    3.582 --     5 C    1.291    11 C    1.014    14 C    0.961
                             4 N    0.132    12 O    0.102
    14   6 C    3.904 --    24 H    0.966    23 H    0.963    22 H    0.962
                            13 N    0.961
    15   1 H    0.986 --     1 C    0.957
    16   1 H    0.984 --     1 C    0.954
    17   1 H    0.988 --     1 C    0.971
    18   1 H    0.985 --     3 C    0.951
    19   1 H    0.985 --    10 C    0.968
    20   1 H    0.981 --    10 C    0.962
    21   1 H    0.981 --    10 C    0.962
    22   1 H    0.984 --    14 C    0.962
    23   1 H    0.984 --    14 C    0.963
    24   1 H    0.983 --    14 C    0.966
    25   1 H    0.946 --     2 N    0.912
 ---------------------------------------------------------------------------

molecular dipole:
                 x           y           z       tot (Debye)
 q only:        1.660      -0.863      -0.067
   full:        1.950      -0.827      -0.234       5.416

           -------------------------------------------------
          | TOTAL ENERGY              -42.093045023587 Eh   |
          | GRADIENT NORM               0.009733704502 Eh/α |
          | HOMO-LUMO GAP               2.905829670580 eV   |
           -------------------------------------------------

 * finished run on 2024/06/05 at 19:59:24.812
