   * xtb version 6.6.1 (8d0f1dd) compiled by 'conda@1efc2f54142f' on 2023-08-01
          program call               : xtb struc.xyz --opt loose --input .xc1 --gfn2

   ID    Z sym.   atoms
    1    7 N      1, 17
    2    6 C      2-6, 8, 9, 11-16, 18-23, 25, 26, 28-33
    3    8 O      7, 10, 24, 27
    4    1 H      34-72
constraining bond 15 17 to    4.9200000 Å, actual value:    2.4758687 Å

          :  Hamiltonian                  GFN2-xTB          :
 * total energy  :   -98.3374937 Eh     change       -0.4035485E-08 Eh
 * total energy  :   -98.5968962 Eh     change       -0.2594025E+00 Eh
 * total energy  :   -98.7569331 Eh     change       -0.1600369E+00 Eh
 * total energy  :   -98.8766922 Eh     change       -0.1197591E+00 Eh
 * total energy  :   -98.9786423 Eh     change       -0.1019502E+00 Eh
 * total energy  :   -99.0536253 Eh     change       -0.7498293E-01 Eh
 * total energy  :   -99.0995355 Eh     change       -0.4591027E-01 Eh
 * total energy  :   -99.1366807 Eh     change       -0.3714516E-01 Eh
 * total energy  :   -99.1720466 Eh     change       -0.3536591E-01 Eh
 * total energy  :   -99.2021612 Eh     change       -0.3011456E-01 Eh
 * total energy  :   -99.2892915 Eh     change       -0.9666637E-04 Eh
 * total energy  :   -99.2894749 Eh     change       -0.1834082E-03 Eh
 * total energy  :   -99.2896032 Eh     change       -0.1282276E-03 Eh
 * total energy  :   -99.2896905 Eh     change       -0.8731859E-04 Eh
 * total energy  :   -99.2897833 Eh     change       -0.9284824E-04 Eh
 * total energy  :   -99.2898641 Eh     change       -0.8075443E-04 Eh
 * total energy  :   -99.2899022 Eh     change       -0.3817092E-04 Eh
 * total energy  :   -99.2899348 Eh     change       -0.3254643E-04 Eh
 * total energy  :   -99.2899696 Eh     change       -0.3481129E-04 Eh
   *** GEOMETRY OPTIMIZATION CONVERGED AFTER 64 ITERATIONS ***

 final structure:
================
72
 xtb: 6.6.1 (8d0f1dd)
N           -1.37103326380955        3.14740779042706        0.75939636050201
C           -2.47237315852470        2.64354355419264        0.78951558114618
C           -3.63410831844924        2.28586063700932        0.09582188875943
C           -3.87026007171069        0.79080393841503        0.10389516167007
C           -4.91481289904426        0.24590705011625       -0.64226664424859
C           -5.16970191436048       -1.11486470181461       -0.63333750217337
O           -6.15289997971786       -1.72812135219798       -1.32368493082077
C           -7.03479419815894       -0.95394485593445       -2.10212840471638
C           -4.36065967567495       -1.97300791112856        0.15770538526773
O           -4.69230056415665       -3.28142886242477        0.11794386704893
C           -3.99228024625737       -4.18909610025256        0.93431019298838
C           -3.32292387210126       -1.42315460208590        0.89150786919415
C           -3.07866577985244       -0.05559479520743        0.86147557782694
C           -3.48638045205888        2.79252107701418       -1.52450348929837
C           -2.74644941310864        1.90690610343509       -2.35387494296602
C            0.22196696166422        0.52503921600915       -0.61018201050705
N            0.91286472027156       -0.48564417744490       -0.10297722092122
C            2.31629739698355       -0.35312246711470        0.19548464785232
C            3.21083808015262       -0.77146377157598       -0.98971577770374
C            4.64777937648591       -0.47272408496289       -0.66797520124448
C            5.18802135461618        0.77058796802168       -0.95095227188328
C            6.50273239255254        1.06460652264644       -0.62353025193033
C            7.30304582144402        0.11857901237729       -0.00049865808854
O            8.58957644167505        0.29325599453708        0.36132124282705
C            9.21842077187447        1.52210162855428        0.08138532089494
C            6.75684584327152       -1.15950371830907        0.29664114095522
O            7.60430974200608       -2.01898294319372        0.90001146582100
C            7.16490081530405       -3.32236906716645        1.19734367353770
C            5.43995901059121       -1.42995834650394       -0.03818124741670
C            0.32967238648197       -1.78962186320016        0.05199245617340
C           -4.85145687394899        3.02779450048119        0.72626628342752
C           -5.01191637490146        2.59352764861396        2.18435219801052
C           -4.72454471551218        4.54613640635308        0.64475286314758
H           -5.53648020522248        0.89313277752419       -1.23781343191090
H           -7.58524557681472       -0.23407613984633       -1.48862329527179
H           -7.73579387065497       -1.66233366414417       -2.53899786986230
H           -6.50837256787887       -0.42728781389373       -2.90435528388761
H           -4.07127069930551       -3.92142896165609        1.99254438831829
H           -4.46711291257700       -5.15444990848837        0.77123687825667
H           -2.93643347491395       -4.25418017393350        0.65100401719208
H           -2.70455172006650       -2.05111293977124        1.51274862690112
H           -2.27172689874386        0.34800441946382        1.45638727247457
H           -4.53207097292247        2.86255823984128       -1.81255131589526
H           -3.03126416319440        3.77504049445646       -1.44859287255189
H           -3.18880009493547        1.00193010014071       -2.73113116525060
H           -1.69244996988484        2.04614336676284       -2.50206854120247
H           -0.80474516676047        0.39175750530176       -0.89028061187919
H            0.69239843314384        1.48170342398118       -0.72490708366863
H            2.55628091848851       -0.97123333116638        1.06402981678671
H            2.53189493186233        0.68891220400414        0.44112274806415
H            2.90245517603291       -0.21235174476098       -1.87469209001333
H            3.08445718117724       -1.83591772067132       -1.19031637004801
H            4.58765819568937        1.52066453956908       -1.44328418360716
H            6.89705894985635        2.03828510109181       -0.86350806262170
H            8.73095665107510        2.35051029253289        0.60470610549850
H            9.23562289787692        1.72810677035826       -0.99304746186278
H           10.23881484817066        1.41720826770058        0.44470704015048
H            8.01883537193091       -3.82222611181003        1.65036437511519
H            6.33289359528914       -3.31378113737307        1.90892999771018
H            6.86806916031254       -3.86202061197575        0.29268287464157
H            5.01679161010745       -2.39867638479445        0.17727233345421
H            0.84190684165700       -2.51778368420017       -0.58059357749848
H           -0.72273939196805       -1.76280302349372       -0.22203664827515
H            0.42122213125128       -2.11623844500842        1.09037556208350
H           -5.74517426512970        2.71728050979769        0.17768623528239
H           -4.16698205588039        2.93467916938970        2.77992255035462
H           -5.07872147434215        1.51102500770208        2.26578975797612
H           -5.91908274541574        3.02432180605217        2.60008521417570
H           -3.80185787206499        4.88544978493364        1.11089108615288
H           -4.74509995438487        4.89966608541293       -0.38208042712888
H           -5.55849074015462        5.00461571173308        1.17075310797694
H           -0.76600384772118        3.30907031405769        1.54959052334604

          :  Hamiltonian                  GFN2-xTB          :
         :: total energy             -99.289969614958 Eh    ::
         :: gradient norm              0.002936844069 Eh/a0 ::
         :: HOMO-LUMO gap              0.827320383408 eV    ::
         :: SCC energy              -100.702780228489 Eh    ::
         :: -> dispersion             -0.071618870828 Eh    ::
         :: repulsion energy           1.411810356138 Eh    ::

    * Orbital Energies and Occupations

         #    Occupation            Energy/Eh            Energy/eV
      -------------------------------------------------------------
         1        2.0000           -0.8049583             -21.9040
       ...           ...                  ...                  ...
        78        1.9993           -0.5309254             -14.4472
        79        1.9991           -0.5266868             -14.3319
        80        1.9990           -0.5262499             -14.3200
        81        1.9990           -0.5253535             -14.2956
        82        1.9987           -0.5217751             -14.1982
        83        1.9986           -0.5210128             -14.1775
        84        1.9983           -0.5177679             -14.0892
        85        1.9976           -0.5120750             -13.9343
        86        1.9894           -0.4883176             -13.2878
        87        1.9823           -0.4801348             -13.0651
        88        1.9267           -0.4572105             -12.4413
        89        1.8719           -0.4479055             -12.1881
        90        1.4282           -0.4199340             -11.4270 (HOMO)
        91        0.5360           -0.3895305             -10.5997 (LUMO)
        92        0.2149           -0.3719194             -10.1204
        93        0.0475           -0.3465998              -9.4315
        94        0.0064           -0.3144671              -8.5571
        95        0.0053           -0.3116354              -8.4800
        96        0.0033           -0.3038888              -8.2692
        97        0.0028           -0.3014190              -8.2020
        98        0.0000           -0.1901385              -5.1739
        99        0.0000           -0.1787128              -4.8630
       100                         -0.1186073              -3.2275
       101                         -0.1149094              -3.1268
       ...                                ...                  ...
       171                          0.7235869              19.6898
      -------------------------------------------------------------
                  HL-Gap            0.0304035 Eh            0.8273 eV

     #   Z          covCN         q      C6AA      α(0)
     1   7 N        1.772    -0.196    26.033     7.555
     2   6 C        1.920     0.091    28.823     8.670
     3   6 C        3.862     0.020    20.194     6.391
     4   6 C        2.979     0.006    27.889     8.663
     5   6 C        2.920    -0.076    29.899     8.967
     6   6 C        2.863     0.131    25.131     8.217
     7   8 O        1.706    -0.232    17.841     5.703
     8   6 C        3.644     0.028    20.433     6.497
     9   6 C        2.864     0.127    25.204     8.229
    10   8 O        1.706    -0.233    17.862     5.706
    11   6 C        3.645     0.029    20.422     6.495
    12   6 C        2.914    -0.078    29.938     8.972
    13   6 C        2.921    -0.056    29.393     8.891
    14   6 C        3.757    -0.051    21.539     6.617
    15   6 C        2.832    -0.112    30.818     9.097
    16   6 C        2.792    -0.072    29.767     8.937
    17   7 N        2.728     0.036    20.618     6.744
    18   6 C        3.757    -0.021    21.004     6.534
    19   6 C        3.807    -0.069    21.811     6.648
    20   6 C        2.970    -0.002    28.062     8.689
    21   6 C        2.922    -0.050    29.251     8.869
    22   6 C        2.914    -0.069    29.708     8.938
    23   6 C        2.865     0.132    25.117     8.215
    24   8 O        1.706    -0.227    17.758     5.690
    25   6 C        3.645     0.027    20.461     6.501
    26   6 C        2.863     0.132    25.118     8.215
    27   8 O        1.706    -0.229    17.795     5.696
    28   6 C        3.645     0.028    20.432     6.497
    29   6 C        2.920    -0.080    30.004     8.983
    30   6 C        3.704    -0.072    22.044     6.713
    31   6 C        3.863    -0.005    20.625     6.458
    32   6 C        3.756    -0.111    22.669     6.789
    33   6 C        3.755    -0.114    22.739     6.799
    34   1 H        0.926     0.055     2.254     2.348
    35   1 H        0.924     0.050     2.317     2.380
    36   1 H        0.925     0.080     1.979     2.200
    37   1 H        0.924     0.049     2.329     2.387
    38   1 H        0.924     0.051     2.311     2.378
    39   1 H        0.925     0.080     1.978     2.199
    40   1 H        0.924     0.043     2.414     2.430
    41   1 H        0.926     0.045     2.382     2.414
    42   1 H        0.926     0.030     2.589     2.516
    43   1 H        0.925     0.070     2.089     2.260
    44   1 H        0.925     0.062     2.177     2.307
    45   1 H        0.926     0.035     2.518     2.481
    46   1 H        0.926     0.036     2.504     2.474
    47   1 H        0.926     0.076     2.022     2.223
    48   1 H        0.926     0.076     2.018     2.222
    49   1 H        0.924     0.068     2.109     2.271
    50   1 H        0.924     0.071     2.073     2.251
    51   1 H        0.924     0.056     2.245     2.343
    52   1 H        0.924     0.052     2.297     2.370
    53   1 H        0.926     0.043     2.404     2.425
    54   1 H        0.926     0.056     2.249     2.345
    55   1 H        0.924     0.052     2.299     2.371
    56   1 H        0.924     0.054     2.275     2.359
    57   1 H        0.925     0.080     1.979     2.200
    58   1 H        0.925     0.080     1.983     2.202
    59   1 H        0.924     0.047     2.358     2.402
    60   1 H        0.924     0.051     2.310     2.377
    61   1 H        0.926     0.046     2.371     2.408
    62   1 H        0.924     0.080     1.980     2.200
    63   1 H        0.925     0.081     1.966     2.193
    64   1 H        0.924     0.074     2.040     2.233
    65   1 H        0.924     0.049     2.327     2.386
    66   1 H        0.925     0.041     2.437     2.441
    67   1 H        0.925     0.043     2.405     2.425
    68   1 H        0.925     0.055     2.257     2.349
    69   1 H        0.925     0.040     2.451     2.448
    70   1 H        0.925     0.048     2.346     2.395
    71   1 H        0.925     0.057     2.232     2.336
    72   1 H        0.860     0.204     1.088     1.634

Wiberg/Mayer (AO) data.
largest (>0.10) Wiberg bond orders for each atom

     #   Z sym  total        # sym  WBO       # sym  WBO       # sym  WBO
 ---------------------------------------------------------------------------
     1   7 N    3.210 --     2 C    2.116    72 H    0.904
     2   6 C    3.528 --     1 N    2.116     3 C    1.199    15 C    0.108
     3   6 C    3.903 --     2 C    1.199     4 C    0.964    31 C    0.913
                            14 C    0.687
     4   6 C    3.956 --    13 C    1.420     5 C    1.368     3 C    0.964
     5   6 C    3.967 --     6 C    1.403     4 C    1.368    34 H    0.957
     6   6 C    3.918 --     5 C    1.403     9 C    1.228     7 O    1.099
     7   8 O    2.263 --     6 C    1.099     8 C    0.978
     8   6 C    3.933 --     7 O    0.978    36 H    0.977    35 H    0.974
                            37 H    0.974
     9   6 C    3.914 --    12 C    1.398     6 C    1.228    10 O    1.095
    10   8 O    2.257 --     9 C    1.095    11 C    0.980
    11   6 C    3.936 --    10 O    0.980    39 H    0.977    40 H    0.975
                            38 H    0.974
    12   6 C    3.969 --    13 C    1.399     9 C    1.398    41 H    0.964
    13   6 C    3.962 --     4 C    1.420    12 C    1.399    42 H    0.962
    14   6 C    3.940 --    15 C    1.272    44 H    0.968    43 H    0.946
                             3 C    0.687
    15   6 C    3.416 --    14 C    1.272    46 H    0.982    45 H    0.982
                             2 C    0.108
    16   6 C    3.453 --    17 N    1.420    48 H    0.971    47 H    0.967
    17   7 N    3.440 --    16 C    1.420    30 C    1.006    18 C    0.992
    18   6 C    3.957 --    17 N    0.992    50 H    0.967    49 H    0.966
                            19 C    0.963
    19   6 C    3.973 --    20 C    1.009    52 H    0.972    51 H    0.972
                            18 C    0.963
    20   6 C    3.951 --    21 C    1.413    29 C    1.378    19 C    1.009
    21   6 C    3.955 --    22 C    1.415    20 C    1.413    53 H    0.968
    22   6 C    3.963 --    21 C    1.415    23 C    1.387    54 H    0.963
    23   6 C    3.901 --    22 C    1.387    26 C    1.225    24 O    1.104
    24   8 O    2.254 --    23 C    1.104    25 C    0.977
    25   6 C    3.931 --    24 O    0.977    57 H    0.977    55 H    0.973
                            56 H    0.973
    26   6 C    3.904 --    29 C    1.398    23 C    1.225    27 O    1.098
    27   8 O    2.254 --    26 C    1.098    28 C    0.980
    28   6 C    3.934 --    27 O    0.980    58 H    0.977    59 H    0.974
                            60 H    0.974
    29   6 C    3.962 --    26 C    1.398    20 C    1.378    61 H    0.963
    30   6 C    3.959 --    17 N    1.006    63 H    0.975    64 H    0.967
                            62 H    0.963
    31   6 C    3.975 --    33 C    1.011    32 C    1.004    65 H    0.961
                             3 C    0.913
    32   6 C    3.987 --    31 C    1.004    66 H    0.983    67 H    0.983
                            68 H    0.982
    33   6 C    3.990 --    31 C    1.011    69 H    0.984    70 H    0.982
                            71 H    0.981
    34   1 H    0.996 --     5 C    0.957
    35   1 H    0.995 --     8 C    0.974
    36   1 H    0.993 --     8 C    0.977
    37   1 H    0.995 --     8 C    0.974
    38   1 H    0.995 --    11 C    0.974
    39   1 H    0.993 --    11 C    0.977
    40   1 H    0.996 --    11 C    0.975
    41   1 H    0.996 --    12 C    0.964
    42   1 H    0.999 --    13 C    0.962
    43   1 H    0.983 --    14 C    0.946
    44   1 H    0.989 --    14 C    0.968
    45   1 H    0.998 --    15 C    0.982
    46   1 H    0.998 --    15 C    0.982
    47   1 H    0.994 --    16 C    0.967
    48   1 H    0.994 --    16 C    0.971
    49   1 H    0.991 --    18 C    0.966
    50   1 H    0.992 --    18 C    0.967
    51   1 H    0.996 --    19 C    0.972
    52   1 H    0.996 --    19 C    0.972
    53   1 H    0.998 --    21 C    0.968
    54   1 H    0.995 --    22 C    0.963
    55   1 H    0.993 --    25 C    0.973
    56   1 H    0.993 --    25 C    0.973
    57   1 H    0.993 --    25 C    0.977
    58   1 H    0.993 --    28 C    0.977
    59   1 H    0.994 --    28 C    0.974
    60   1 H    0.994 --    28 C    0.974
    61   1 H    0.997 --    29 C    0.963
    62   1 H    0.982 --    30 C    0.963
    63   1 H    0.993 --    30 C    0.975
    64   1 H    0.985 --    30 C    0.967
    65   1 H    0.997 --    31 C    0.961
    66   1 H    0.998 --    32 C    0.983
    67   1 H    0.998 --    32 C    0.983
    68   1 H    0.995 --    32 C    0.982
    69   1 H    0.998 --    33 C    0.984
    70   1 H    0.997 --    33 C    0.982
    71   1 H    0.995 --    33 C    0.981
    72   1 H    0.937 --     1 N    0.904
 ---------------------------------------------------------------------------

molecular dipole:
                 x           y           z       tot (Debye)
 q only:        0.087       0.458       0.390
   full:       -0.042       0.564       0.611       2.117

           -------------------------------------------------
          | TOTAL ENERGY              -99.289969614958 Eh   |
          | GRADIENT NORM               0.002936844069 Eh/α |
          | HOMO-LUMO GAP               0.827320383408 eV   |
           -------------------------------------------------

 * finished run on 2024/04/06 at 11:13:20.078
