   * xtb version 6.6.1 (8d0f1dd) compiled by 'conda@1efc2f54142f' on 2023-08-01
          program call               : xtb xtbopt.xyz --opt crude --input .xc2 --gfn2

   ID    Z sym.   atoms
    1    6 C      1, 3, 5-7, 10, 11, 14
    2    7 N      2, 4, 9, 13
    3    8 O      8, 12
    4    1 H      15-25
########################################################################
[WARNING] Please study the warnings concerning your input carefully
-1- readin_getIntValue: could not parse ''
########################################################################

          :  Hamiltonian                  GFN2-xTB          :
 * total energy  :   -38.3432931 Eh     change       -0.1563194E-12 Eh
 * total energy  :   -42.1107017 Eh     change       -0.3767409E+01 Eh
 * total energy  :   -42.1555422 Eh     change       -0.4484047E-01 Eh
 * total energy  :   -42.1583637 Eh     change       -0.2821525E-02 Eh
 * total energy  :   -42.1598818 Eh     change       -0.1518084E-02 Eh
 * total energy  :   -42.1608167 Eh     change       -0.9348629E-03 Eh
 * total energy  :   -42.1619252 Eh     change       -0.1108557E-02 Eh
 * total energy  :   -42.1628539 Eh     change       -0.9286939E-03 Eh
 * total energy  :   -42.1634042 Eh     change       -0.5502980E-03 Eh
 * total energy  :   -42.1636078 Eh     change       -0.2035337E-03 Eh
 * total energy  :   -42.1635892 Eh     change        0.1859172E-04 Eh
 * total energy  :   -42.1637124 Eh     change       -0.1232273E-03 Eh
 * total energy  :   -42.1637443 Eh     change       -0.3191486E-04 Eh
 * total energy  :   -42.1638193 Eh     change       -0.7493706E-04 Eh
 * total energy  :   -42.1638638 Eh     change       -0.4452545E-04 Eh
   *** GEOMETRY OPTIMIZATION CONVERGED AFTER 15 ITERATIONS ***

 final structure:
================
25
 xtb: 6.6.1 (8d0f1dd)
C            3.21807542816201        1.14851398211263        0.07448399768978
N            2.31571299220467        0.02820287327002        0.04821624671451
C            2.63295123035790       -1.26526078551186        0.06452140954387
N            1.50434630985107       -2.01477750775253        0.03932238800833
C            0.43527877003572       -1.16576959181695        0.00627647328400
C            0.94412448340992        0.12489323401541        0.01278400734064
C            0.07076156539246        1.27703139646680       -0.00225023281373
O            0.39939297010154        2.44160027306046        0.00055464655989
N           -1.27891156926068        0.86531130941016       -0.02167496351508
C           -2.23924696320940        1.99261295399912        0.06429481350680
C           -1.75817396879029       -0.37310512787576       -0.03481566530111
O           -3.53367406552643        1.54341716941521        0.01447656639271
N           -0.89708745387016       -1.40953088503566       -0.02648964520159
C           -1.41321171145382       -2.76228398165564       -0.03318737753634
H            3.73661444990889        1.19656292435783        1.03309825246879
H            3.95773059967668        1.05958215784664       -0.72061061608544
H            2.63991167930324        2.06182175287330       -0.06167275397770
H            3.62794058957743       -1.66140891194584        0.09371222427527
H           -1.96865074642130        2.70393964281693       -0.72631701956739
H           -3.99594126924439        1.86989469865235       -0.77142491406641
H           -2.04490813124088        2.47973526335371        1.03071577190588
H           -1.10095774898658       -3.29743776715910        0.86477575356901
H           -1.07069613379213       -3.29951053989967       -0.91879704296751
H           -2.49880465637038       -2.70160433982416       -0.04950503830202
H            1.47785486428516       -3.02419165157377        0.05068433597594

          :  Hamiltonian                  GFN2-xTB          :
         :: total energy             -42.163863777592 Eh    ::
         :: gradient norm              0.008759454269 Eh/a0 ::
         :: HOMO-LUMO gap              2.060919854021 eV    ::
         :: SCC energy               -42.668334119429 Eh    ::
         :: -> dispersion             -0.022271868085 Eh    ::
         :: repulsion energy           0.504384110591 Eh    ::

    * Orbital Energies and Occupations

         #    Occupation            Energy/Eh            Energy/eV
      -------------------------------------------------------------
         1        2.0000           -0.9056429             -24.6438
       ...           ...                  ...                  ...
        25        2.0000           -0.6721772             -18.2909
        26        2.0000           -0.6551430             -17.8273
        27        2.0000           -0.6470055             -17.6059
        28        1.9999           -0.6284272             -17.1004
        29        1.9999           -0.6225293             -16.9399
        30        1.9999           -0.6215553             -16.9134
        31        1.9998           -0.6138313             -16.7032
        32        1.9997           -0.6102767             -16.6065
        33        1.9985           -0.5823308             -15.8460
        34        1.9962           -0.5679131             -15.4537
        35        1.9916           -0.5554157             -15.1136
        36        1.9819           -0.5432161             -14.7817
        37        1.8299           -0.5065050             -13.7827 (HOMO)
        38        0.1652           -0.4307676             -11.7218 (LUMO)
        39        0.0304           -0.4028463             -10.9620
        40        0.0074           -0.3802748             -10.3478
        41        0.0000           -0.2819621              -7.6726
        42                         -0.1940608              -5.2807
        43                         -0.1860044              -5.0614
        44                         -0.1330728              -3.6211
        45                         -0.1283733              -3.4932
        46                         -0.0699925              -1.9046
        47                         -0.0474246              -1.2905
        48                         -0.0371088              -1.0098
       ...                                ...                  ...
        67                          0.5359817              14.5848
      -------------------------------------------------------------
                  HL-Gap            0.0757374 Eh            2.0609 eV

     #   Z          covCN         q      C6AA      α(0)
     1   6 C        3.691    -0.091    22.427     6.777
     2   7 N        2.828     0.072    19.995     6.641
     3   6 C        3.049     0.049    26.858     8.500
     4   7 N        2.791    -0.064    22.487     7.043
     5   6 C        3.052     0.105    25.637     8.304
     6   6 C        3.119    -0.010    28.088     8.680
     7   6 C        2.770     0.258    22.652     7.795
     8   8 O        0.857    -0.383    21.341     6.194
     9   7 N        2.750    -0.034    21.901     6.951
    10   6 C        3.631     0.140    18.687     6.224
    11   6 C        1.892    -0.059    32.715     9.238
    12   8 O        1.657    -0.384    20.546     6.119
    13   7 N        2.744     0.028    20.761     6.767
    14   6 C        3.704    -0.079    22.166     6.731
    15   1 H        0.924     0.105     1.739     2.062
    16   1 H        0.925     0.103     1.762     2.076
    17   1 H        0.925     0.133     1.512     1.923
    18   1 H        0.926     0.120     1.615     1.987
    19   1 H        0.924     0.071     2.073     2.252
    20   1 H        0.804     0.327     0.645     1.262
    21   1 H        0.923     0.087     1.907     2.160
    22   1 H        0.924     0.081     1.974     2.197
    23   1 H        0.924     0.080     1.979     2.200
    24   1 H        0.925     0.121     1.608     1.983
    25   1 H        0.860     0.226     0.983     1.553

Wiberg/Mayer (AO) data.
largest (>0.10) Wiberg bond orders for each atom

     #   Z sym  total        # sym  WBO       # sym  WBO       # sym  WBO
 ---------------------------------------------------------------------------
     1   6 C    3.918 --     2 N    0.986    16 H    0.963    17 H    0.962
                            15 H    0.958
     2   7 N    3.651 --     3 C    1.372     6 C    1.156     1 C    0.986
     3   6 C    3.812 --     2 N    1.372     4 N    1.266    18 H    0.954
     4   7 N    3.569 --     3 C    1.266     5 C    1.185    25 H    0.921
     5   6 C    3.933 --     6 C    1.358     4 N    1.185    13 N    1.184
     6   6 C    3.919 --     5 C    1.358     2 N    1.156     7 C    1.089
     7   6 C    3.920 --     8 O    1.682     6 C    1.089     9 N    1.049
     8   8 O    2.006 --     7 C    1.682     9 N    0.127
     9   7 N    3.625 --    11 C    1.385     7 C    1.049    10 C    0.927
                             8 O    0.127
    10   6 C    3.927 --    12 O    1.058    19 H    0.957    21 H    0.942
                             9 N    0.927
    11   6 C    2.866 --     9 N    1.385    13 N    1.270
    12   8 O    2.014 --    10 C    1.058    20 H    0.879
    13   7 N    3.632 --    11 C    1.270     5 C    1.184    14 C    0.982
    14   6 C    3.936 --    13 N    0.982    23 H    0.971    24 H    0.971
                            22 H    0.971
    15   1 H    0.985 --     1 C    0.958
    16   1 H    0.986 --     1 C    0.963
    17   1 H    0.982 --     1 C    0.962
    18   1 H    0.985 --     3 C    0.954
    19   1 H    0.992 --    10 C    0.957
    20   1 H    0.892 --    12 O    0.879
    21   1 H    0.986 --    10 C    0.942
    22   1 H    0.991 --    14 C    0.971
    23   1 H    0.991 --    14 C    0.971
    24   1 H    0.985 --    14 C    0.971
    25   1 H    0.948 --     4 N    0.921
 ---------------------------------------------------------------------------

molecular dipole:
                 x           y           z       tot (Debye)
 q only:        1.707      -2.106      -0.321
   full:        2.349      -2.368      -0.461       8.559

           -------------------------------------------------
          | TOTAL ENERGY              -42.163863777592 Eh   |
          | GRADIENT NORM               0.008759454269 Eh/α |
          | HOMO-LUMO GAP               2.060919854021 eV   |
           -------------------------------------------------

 * finished run on 2024/06/05 at 19:57:55.174
