   * xtb version 6.6.1 (8d0f1dd) compiled by 'conda@1efc2f54142f' on 2023-08-01
          program call               : xtb struc.xyz --opt loose --input .xc1 --gfn2

   ID    Z sym.   atoms
    1    6 C      1, 3, 5-7, 10, 11, 14
    2    7 N      2, 4, 9, 13
    3    8 O      8, 12
    4    1 H      15-25
constraining bond 11 24 to    3.7133300 Å, actual value:    2.4695195 Å

          :  Hamiltonian                  GFN2-xTB          :
 * total energy  :   -45.0101919 Eh     change       -0.6650680E-10 Eh
 * total energy  :   -49.1293442 Eh     change       -0.4119152E+01 Eh
 * total energy  :   -55.0537778 Eh     change       -0.5924434E+01 Eh
 * total energy  :   -57.9677891 Eh     change       -0.2914011E+01 Eh
 * total energy  :   -58.2437442 Eh     change       -0.2759552E+00 Eh
 * total energy  :   -58.9846612 Eh     change       -0.7409170E+00 Eh
 * total energy  :   -58.3400925 Eh     change        0.6445687E+00 Eh
 * total energy  :   -59.4114886 Eh     change       -0.1071396E+01 Eh
 * total energy  :   -59.4924643 Eh     change       -0.8097570E-01 Eh
 * total energy  :   -59.5245724 Eh     change       -0.3210811E-01 Eh
 * total energy  :   -59.7460150 Eh     change       -0.1034466E-03 Eh
 * total energy  :   -59.7460870 Eh     change       -0.7199539E-04 Eh
 * total energy  :   -59.7459998 Eh     change        0.8721652E-04 Eh
 * total energy  :   -59.7461996 Eh     change       -0.1998053E-03 Eh
 * total energy  :   -59.7462357 Eh     change       -0.3612130E-04 Eh
 * total energy  :   -59.7462963 Eh     change       -0.6062758E-04 Eh
 * total energy  :   -59.7463520 Eh     change       -0.5571230E-04 Eh
 * total energy  :   -59.7463768 Eh     change       -0.2473759E-04 Eh
 * total energy  :   -59.7463883 Eh     change       -0.1154311E-04 Eh
   *** GEOMETRY OPTIMIZATION CONVERGED AFTER 139 ITERATIONS ***

 final structure:
================
25
 xtb: 6.6.1 (8d0f1dd)
C            2.81434673741073        1.18074512887194       -0.53748629761406
N            2.09235421577172       -0.00954893423761       -0.17789770695173
C            2.59173064571447       -1.23383814107381       -0.12924068569664
N            1.62399242423624       -2.09366103398438        0.21441309113280
C            0.45338289059052       -1.39553869535187        0.40523753363569
C            0.75853176123685       -0.06200050383986        0.13916589942042
C           -0.06748185694296        1.15127496872880        0.32296208998463
O            0.40759971197446        2.15443986067362        0.80605502697150
N           -1.39802171480687        1.05715607602283       -0.03774076739862
C           -2.30091718325141        2.09636444646928        0.43657329686764
C           -1.96118214210095        0.18003339323991       -1.02874718755071
O           -1.18520827463839       -0.62399584003011       -1.56446808923332
N           -0.69121313361543       -1.89562468399572        0.89405283090156
C           -1.26304099799360       -2.98504996881711        0.60738346513854
H            2.65109336001585        1.95056481501306        0.21750283772466
H            3.87483625113654        0.95601086124862       -0.61733022067986
H            2.45341640812794        1.56196596014828       -1.49387173843490
H            3.61210814184718       -1.49874904033504       -0.32984924853443
H           -1.78274259464209        2.69522527134577        1.18233493417965
H           -2.60760391688045        2.74618822702001       -0.38259150241950
H           -3.18072696089558        1.63615477594293        0.88350874933406
H           -2.14367982406000       -3.24892421556035        1.17308291510815
H           -0.95643927404256       -3.65154521623758       -0.19700292792474
H           -2.37544630666278        0.23973505631525       -1.09938804850083
H            1.74074314656954       -3.08914402597094        0.34451336844134

          :  Hamiltonian                  GFN2-xTB          :
         :: total energy             -59.746388312036 Eh    ::
         :: gradient norm              0.002786685660 Eh/a0 ::
         :: HOMO-LUMO gap              2.611434498268 eV    ::
         :: SCC energy               -42.710456042293 Eh    ::
         :: -> dispersion             -0.023014503872 Eh    ::
         :: repulsion energy           2.277312377549 Eh    ::

    * Orbital Energies and Occupations

         #    Occupation            Energy/Eh            Energy/eV
      -------------------------------------------------------------
         1        2.0000           -0.9013524             -24.5270
       ...           ...                  ...                  ...
        25        2.0000           -0.6695049             -18.2182
        26        2.0000           -0.6599764             -17.9589
        27        1.9999           -0.6514940             -17.7281
        28        1.9999           -0.6415611             -17.4578
        29        1.9998           -0.6339975             -17.2520
        30        1.9997           -0.6316890             -17.1891
        31        1.9990           -0.6104320             -16.6107
        32        1.9988           -0.6083410             -16.5538
        33        1.9972           -0.5944352             -16.1754
        34        1.9861           -0.5691707             -15.4879
        35        1.9737           -0.5590149             -15.2116
        36        1.9654           -0.5545937             -15.0913
        37        1.9220           -0.5413573             -14.7311 (HOMO)
        38        0.1087           -0.4453888             -12.1196 (LUMO)
        39        0.0386           -0.4284060             -11.6575
        40        0.0104           -0.4074550             -11.0874
        41        0.0009           -0.3681425             -10.0177
        42        0.0000           -0.3187970              -8.6749
        43                         -0.1787005              -4.8627
        44                         -0.1683259              -4.5804
        45                         -0.1278184              -3.4781
        46                         -0.0652153              -1.7746
        47                         -0.0448955              -1.2217
        48                         -0.0343322              -0.9342
       ...                                ...                  ...
        67                         10.3671211             282.1037
      -------------------------------------------------------------
                  HL-Gap            0.0959685 Eh            2.6114 eV

     #   Z          covCN         q      C6AA      α(0)
     1   6 C        3.693    -0.092    22.443     6.778
     2   7 N        2.847     0.091    19.664     6.586
     3   6 C        3.035     0.060    26.624     8.463
     4   7 N        2.809    -0.055    22.292     7.012
     5   6 C        3.022     0.141    24.897     8.185
     6   6 C        3.100     0.007    27.750     8.633
     7   6 C        2.759     0.286    22.150     7.707
     8   8 O        0.859    -0.352    20.747     6.107
     9   7 N        2.743    -0.092    23.036     7.128
    10   6 C        3.703    -0.071    22.013     6.708
    11   6 C        2.707     0.204    23.664     7.962
    12   8 O        0.865    -0.385    21.387     6.201
    13   7 N        1.825    -0.129    24.578     7.346
    14   6 C        2.793     0.040    27.084     8.525
    15   1 H        0.924     0.135     1.501     1.916
    16   1 H        0.925     0.102     1.771     2.081
    17   1 H        0.924     0.111     1.686     2.030
    18   1 H        0.926     0.125     1.576     1.963
    19   1 H        0.925     0.111     1.685     2.030
    20   1 H        0.925     0.088     1.895     2.153
    21   1 H        0.925     0.087     1.909     2.161
    22   1 H        0.926     0.115     1.651     2.009
    23   1 H        0.925     0.079     1.985     2.203
    24   1 H        0.951     0.166     1.289     1.775
    25   1 H        0.860     0.227     0.977     1.548

Wiberg/Mayer (AO) data.
largest (>0.10) Wiberg bond orders for each atom

     #   Z sym  total        # sym  WBO       # sym  WBO       # sym  WBO
 ---------------------------------------------------------------------------
     1   6 C    3.918 --     2 N    0.987    16 H    0.974    17 H    0.956
                            15 H    0.952
     2   7 N    3.716 --     3 C    1.392     6 C    1.189     1 C    0.987
     3   6 C    3.907 --     2 N    1.392     4 N    1.314    18 H    0.950
     4   7 N    3.606 --     3 C    1.314     5 C    1.160    25 H    0.920
     5   6 C    3.929 --     6 C    1.370    13 N    1.219     4 N    1.160
     6   6 C    3.895 --     5 C    1.370     2 N    1.189     7 C    1.009
     7   6 C    3.935 --     8 O    1.710     9 N    1.130     6 C    1.009
     8   8 O    2.031 --     7 C    1.710     9 N    0.128
     9   7 N    3.549 --     7 C    1.130    11 C    1.111    10 C    0.978
                            12 O    0.167     8 O    0.128
    10   6 C    3.926 --     9 N    0.978    19 H    0.969    21 H    0.969
                            20 H    0.968
    11   6 C    3.886 --    12 O    1.759     9 N    1.111    24 H    0.957
    12   8 O    2.004 --    11 C    1.759     9 N    0.167
    13   7 N    3.196 --    14 C    1.824     5 C    1.219
    14   6 C    3.842 --    13 N    1.824    22 H    0.956    23 H    0.946
    15   1 H    0.981 --     1 C    0.952
    16   1 H    0.989 --     1 C    0.974
    17   1 H    0.986 --     1 C    0.956
    18   1 H    0.984 --     3 C    0.950
    19   1 H    0.986 --    10 C    0.969
    20   1 H    0.986 --    10 C    0.968
    21   1 H    0.987 --    10 C    0.969
    22   1 H    0.981 --    14 C    0.956
    23   1 H    0.981 --    14 C    0.946
    24   1 H    0.970 --    11 C    0.957
    25   1 H    0.948 --     4 N    0.920
 ---------------------------------------------------------------------------

molecular dipole:
                 x           y           z       tot (Debye)
 q only:        1.397      -1.577       0.199
   full:        1.485      -2.074      -0.005       6.482

           -------------------------------------------------
          | TOTAL ENERGY              -59.746388312036 Eh   |
          | GRADIENT NORM               0.002786685660 Eh/α |
          | HOMO-LUMO GAP               2.611434498268 eV   |
           -------------------------------------------------

 * finished run on 2024/06/05 at 19:57:56.355
