   * xtb version 6.6.1 (8d0f1dd) compiled by 'conda@1efc2f54142f' on 2023-08-01
          program call               : xtb struc.xyz --opt loose --input .xc1 --gfn2

   ID    Z sym.   atoms
    1    7 N      1, 17
    2    6 C      2-6, 8, 9, 11-16, 18-23, 25, 26, 28-33
    3    8 O      7, 10, 24, 27
    4    1 H      34-72
constraining bond 4 42 to    2.7133300 Å, actual value:    2.1441058 Å

          :  Hamiltonian                  GFN2-xTB          :
 * total energy  :   -99.4619850 Eh     change       -0.4035485E-08 Eh
 * total energy  :   -99.5324683 Eh     change       -0.7048324E-01 Eh
 * total energy  :   -99.6111994 Eh     change       -0.7873112E-01 Eh
 * total energy  :   -99.6883863 Eh     change       -0.7718691E-01 Eh
 * total energy  :   -99.6972471 Eh     change       -0.8860808E-02 Eh
 * total energy  :   -99.7262433 Eh     change       -0.2899619E-01 Eh
 * total energy  :   -99.7477916 Eh     change       -0.2154827E-01 Eh
 * total energy  :   -99.7781657 Eh     change       -0.3037414E-01 Eh
 * total energy  :   -99.7970524 Eh     change       -0.1888672E-01 Eh
 * total energy  :   -99.8027102 Eh     change       -0.5657733E-02 Eh
 * total energy  :   -99.8688073 Eh     change       -0.6946419E-04 Eh
 * total energy  :   -99.8688896 Eh     change       -0.8223592E-04 Eh
 * total energy  :   -99.8689798 Eh     change       -0.9020507E-04 Eh
 * total energy  :   -99.8690726 Eh     change       -0.9288091E-04 Eh
 * total energy  :   -99.8691466 Eh     change       -0.7399885E-04 Eh
 * total energy  :   -99.8692182 Eh     change       -0.7158305E-04 Eh
 * total energy  :   -99.8692915 Eh     change       -0.7322775E-04 Eh
 * total energy  :   -99.8693616 Eh     change       -0.7015282E-04 Eh
 * total energy  :   -99.8693962 Eh     change       -0.3455931E-04 Eh
   *** GEOMETRY OPTIMIZATION CONVERGED AFTER 68 ITERATIONS ***

 final structure:
================
72
 xtb: 6.6.1 (8d0f1dd)
N           -1.44250143765936        1.29046117555023        1.94527881064833
C           -1.65520062167047        1.85133908890318        0.84136408243734
C           -2.91870000301977        1.61274316243668        0.06631702698252
C           -3.65914450650230        0.35202916938095        0.66044580746179
C           -4.99602654102906        0.12294831341954        0.00041901739294
C           -5.47965410966925       -1.10995123108434       -0.29319902415692
O           -6.69633506533870       -1.38263722350022       -0.82138223158575
C           -7.57957079962230       -0.31915795343783       -1.08893243072160
C           -4.68087805042438       -2.28593688843825       -0.05658058858447
O           -5.28271840841751       -3.44885278587873       -0.28859705181832
C           -4.60196158596252       -4.65922018448698       -0.04119198266667
C           -3.34409393551987       -2.10909164796573        0.35454903686107
C           -2.83985553401972       -0.88124561829930        0.62247465099327
C           -2.59580835184360        1.41697434544253       -1.42412250969825
C           -1.50594029415163        0.36518712795765       -1.69582426567089
C           -0.18367041480800        0.74726380815907       -1.15196731089758
N            0.52904591507417        0.04741882087357       -0.28667929652858
C            1.89412848585323        0.42050526796833        0.00896786610440
C            2.87346283125095       -0.41763407489410       -0.83537331139658
C            4.30767631358670       -0.09411342790518       -0.51958257140863
C            4.86325122226965        1.11517409162405       -0.90704118715426
C            6.19216256652410        1.40472641688158       -0.63970118762941
C            6.99830059252726        0.48551052408157        0.01643716441455
O            8.30273372473295        0.65102108466306        0.30837970488366
C            8.95697740520286        1.82587785688354       -0.11178436362573
C            6.43696436243521       -0.75554004132666        0.42284671693332
O            7.28967958444360       -1.59439013227118        1.04531141412795
C            6.84234658540517       -2.87197969308297        1.43147194645603
C            5.10241431310754       -1.01785524086610        0.15431724680066
C            0.03233485348455       -1.15271130152117        0.31822723396769
C           -3.81235560300250        2.88671394922156        0.24124431636618
C           -4.44907194554738        2.96178228108338        1.63069866821040
C           -3.05524006337306        4.19781566886941        0.00324456217305
H           -5.61071001210384        0.99040353145498       -0.16665414217592
H           -7.83692422203340        0.22865259072098       -0.17703294346661
H           -8.47643815089677       -0.78140652763018       -1.49633653079144
H           -7.16181394031442        0.37275643455179       -1.82709883761616
H           -4.26538635671352       -4.72084065819941        0.99755966910024
H           -5.32614205468197       -5.44788804598000       -0.23610368723215
H           -3.74662266917561       -4.78016449567132       -0.71237307814864
H           -2.70772484985375       -2.97936740573035        0.43558602805617
H           -3.77167693164116        0.53879164141383        1.47735585276036
H           -3.50579928657342        1.10673069667850       -1.93968955181560
H           -2.27522575481176        2.36667412939841       -1.85354606456471
H           -1.83669819372595       -0.59434321483363       -1.30309613586999
H           -1.41170845664658        0.28165186579493       -2.78473404364430
H           -0.98724692362611        2.59497492598993        0.38849118020248
H            0.28647173005112        1.63035056595144       -1.55993408935241
H            2.09095005041877        0.25210536755772        1.07041859582206
H            2.04361220318003        1.48032685665808       -0.20535585628768
H            2.67620230248350       -0.21747186342577       -1.89142189676597
H            2.68815102109658       -1.47603267108161       -0.64851400442768
H            4.26651476674579        1.84063482748587       -1.43888970625543
H            6.59649557156503        2.35151701347192       -0.95825698523842
H            8.53618146486501        2.71375079210685        0.37010155318536
H            8.91088471292216        1.94270098546607       -1.19865551605830
H            9.99452614818295        1.70762014185384        0.19466876223706
H            7.70798790538147       -3.36349646083670        1.87145218771220
H            6.04423867933312       -2.81037079362293        2.17811340104940
H            6.49567790746055       -3.45266391925330        0.57079568188257
H            4.67099541423829       -1.96022358668078        0.45361318591009
H            0.00209972288994       -1.97684458612059       -0.39665421488216
H           -1.03152632603733       -0.98439156083927        0.67927618114526
H            0.66107183417862       -1.42926111621776        1.15957209424428
H           -4.60250647286483        2.83134495754161       -0.51476991815128
H           -3.69329989766662        2.83557006718217        2.40296158565925
H           -5.22262300367597        2.21404845196399        1.77803274247151
H           -4.90908122714850        3.93794061910895        1.76395158769329
H           -2.38328018724736        4.41354046958594        0.83022552173771
H           -2.48550455630222        4.19243401128772       -0.92207869345699
H           -3.77211302307912        5.01292460774373       -0.06069508334914
H           -0.58824482559360        1.54628616908005        2.43094405151720

          :  Hamiltonian                  GFN2-xTB          :
         :: total energy             -99.869396174638 Eh    ::
         :: gradient norm              0.001444312339 Eh/a0 ::
         :: HOMO-LUMO gap              0.900093111301 eV    ::
         :: SCC energy              -100.675984994674 Eh    ::
         :: -> dispersion             -0.076594205187 Eh    ::
         :: repulsion energy           1.428580187315 Eh    ::

    * Orbital Energies and Occupations

         #    Occupation            Energy/Eh            Energy/eV
      -------------------------------------------------------------
         1        2.0000           -0.8225022             -22.3814
       ...           ...                  ...                  ...
        78        1.9992           -0.5335994             -14.5200
        79        1.9988           -0.5282735             -14.3751
        80        1.9985           -0.5249186             -14.2838
        81        1.9984           -0.5238625             -14.2550
        82        1.9982           -0.5218120             -14.1992
        83        1.9974           -0.5154472             -14.0260
        84        1.9973           -0.5151362             -14.0176
        85        1.9939           -0.5021879             -13.6652
        86        1.9803           -0.4834735             -13.1560
        87        1.9737           -0.4788678             -13.0307
        88        1.9624           -0.4731288             -12.8745
        89        1.8542           -0.4507554             -12.2657
        90        1.4084           -0.4242245             -11.5437 (HOMO)
        91        0.4553           -0.3911467             -10.6436 (LUMO)
        92        0.3675           -0.3868804             -10.5276
        93        0.0139           -0.3318880              -9.0311
        94        0.0029           -0.3069065              -8.3514
        95        0.0026           -0.3052755              -8.3070
        96        0.0023           -0.3032364              -8.2515
        97        0.0000           -0.2238651              -6.0917
        98        0.0000           -0.1820178              -4.9530
        99                         -0.1216869              -3.3113
       100                         -0.0773118              -2.1038
       101                         -0.0703233              -1.9136
       ...                                ...                  ...
       171                          0.8257223              22.4690
      -------------------------------------------------------------
                  HL-Gap            0.0330778 Eh            0.9001 eV

     #   Z          covCN         q      C6AA      α(0)
     1   7 N        1.776    -0.299    28.564     7.915
     2   6 C        2.825     0.095    25.889     8.337
     3   6 C        3.901     0.009    20.363     6.414
     4   6 C        3.865    -0.036    21.182     6.545
     5   6 C        2.903    -0.084    30.103     8.996
     6   6 C        2.848     0.129    25.160     8.221
     7   8 O        1.706    -0.244    18.042     5.735
     8   6 C        3.644     0.029    20.433     6.497
     9   6 C        2.863     0.144    24.870     8.174
    10   8 O        1.706    -0.196    17.267     5.610
    11   6 C        3.646     0.023    20.525     6.511
    12   6 C        2.899    -0.071    29.768     8.946
    13   6 C        1.984    -0.112    34.152     9.438
    14   6 C        3.808    -0.064    21.725     6.635
    15   6 C        3.803    -0.073    21.897     6.662
    16   6 C        2.847     0.005    27.903     8.657
    17   7 N        2.730     0.030    20.718     6.760
    18   6 C        3.756    -0.018    20.948     6.526
    19   6 C        3.808    -0.070    21.828     6.651
    20   6 C        2.967    -0.000    28.037     8.685
    21   6 C        2.922    -0.050    29.229     8.866
    22   6 C        2.914    -0.068    29.690     8.935
    23   6 C        2.865     0.133    25.097     8.212
    24   8 O        1.706    -0.224    17.717     5.683
    25   6 C        3.645     0.026    20.475     6.503
    26   6 C        2.863     0.133    25.095     8.211
    27   8 O        1.706    -0.226    17.750     5.688
    28   6 C        3.645     0.027    20.452     6.500
    29   6 C        2.920    -0.079    29.969     8.977
    30   6 C        3.695    -0.097    22.527     6.790
    31   6 C        3.853    -0.014    20.790     6.485
    32   6 C        3.756    -0.116    22.777     6.805
    33   6 C        3.756    -0.110    22.664     6.788
    34   1 H        0.926     0.058     2.218     2.329
    35   1 H        0.924     0.050     2.318     2.381
    36   1 H        0.925     0.080     1.975     2.198
    37   1 H        0.924     0.046     2.368     2.407
    38   1 H        0.924     0.062     2.170     2.304
    39   1 H        0.925     0.087     1.913     2.163
    40   1 H        0.924     0.059     2.214     2.327
    41   1 H        0.926     0.047     2.360     2.403
    42   1 H        0.930     0.152     1.375     1.833
    43   1 H        0.924     0.055     2.262     2.352
    44   1 H        0.924     0.053     2.278     2.360
    45   1 H        0.925     0.076     2.022     2.224
    46   1 H        0.924     0.075     2.027     2.226
    47   1 H        0.924     0.012     2.853     2.641
    48   1 H        0.926     0.065     2.146     2.291
    49   1 H        0.924     0.070     2.083     2.257
    50   1 H        0.924     0.066     2.131     2.283
    51   1 H        0.924     0.055     2.263     2.352
    52   1 H        0.924     0.055     2.255     2.348
    53   1 H        0.926     0.042     2.426     2.436
    54   1 H        0.926     0.057     2.237     2.339
    55   1 H        0.924     0.054     2.276     2.359
    56   1 H        0.924     0.054     2.269     2.356
    57   1 H        0.925     0.081     1.967     2.193
    58   1 H        0.925     0.081     1.970     2.195
    59   1 H        0.924     0.050     2.324     2.384
    60   1 H        0.924     0.051     2.303     2.373
    61   1 H        0.926     0.048     2.340     2.392
    62   1 H        0.924     0.069     2.092     2.262
    63   1 H        0.918     0.121     1.608     1.983
    64   1 H        0.925     0.077     2.011     2.218
    65   1 H        0.924     0.040     2.443     2.444
    66   1 H        0.925     0.047     2.359     2.402
    67   1 H        0.925     0.043     2.411     2.428
    68   1 H        0.925     0.054     2.276     2.359
    69   1 H        0.925     0.043     2.406     2.425
    70   1 H        0.925     0.035     2.522     2.483
    71   1 H        0.925     0.051     2.304     2.374
    72   1 H        0.860     0.146     1.427     1.871

Wiberg/Mayer (AO) data.
largest (>0.10) Wiberg bond orders for each atom

     #   Z sym  total        # sym  WBO       # sym  WBO       # sym  WBO
 ---------------------------------------------------------------------------
     1   7 N    2.985 --     2 C    1.918    72 H    0.948
     2   6 C    3.930 --     1 N    1.918     3 C    1.002    47 H    0.929
     3   6 C    3.951 --     2 C    1.002    14 C    0.979    31 C    0.937
                             4 C    0.911
     4   6 C    3.943 --    13 C    1.045     5 C    1.003     3 C    0.911
                            42 H    0.887
     5   6 C    3.785 --     6 C    1.584     4 C    1.003    34 H    0.951
                             7 O    0.105
     6   6 C    3.927 --     5 C    1.584     9 C    1.134     7 O    1.080
     7   8 O    2.244 --     6 C    1.080     8 C    0.979     5 C    0.105
     8   6 C    3.934 --     7 O    0.979    36 H    0.977    37 H    0.975
                            35 H    0.974
     9   6 C    3.677 --    12 C    1.258    10 O    1.162     6 C    1.134
    10   8 O    2.287 --     9 C    1.162    11 C    0.969
    11   6 C    3.924 --    39 H    0.976    38 H    0.972    40 H    0.971
                            10 O    0.969
    12   6 C    3.946 --    13 C    1.583     9 C    1.258    41 H    0.952
    13   6 C    2.965 --    12 C    1.583     4 C    1.045    63 H    0.117
    14   6 C    3.969 --     3 C    0.979    15 C    0.974    43 H    0.970
                            44 H    0.965
    15   6 C    3.980 --    16 C    1.057    14 C    0.974    45 H    0.947
                            46 H    0.937
    16   6 C    3.624 --    17 N    1.432    15 C    1.057    48 H    0.959
    17   7 N    3.513 --    16 C    1.432    30 C    1.009    18 C    0.987
    18   6 C    3.955 --    17 N    0.987    19 C    0.968    50 H    0.967
                            49 H    0.964
    19   6 C    3.976 --    20 C    1.008    52 H    0.973    18 C    0.968
                            51 H    0.967
    20   6 C    3.947 --    21 C    1.408    29 C    1.383    19 C    1.008
    21   6 C    3.952 --    22 C    1.419    20 C    1.408    53 H    0.968
    22   6 C    3.962 --    21 C    1.419    23 C    1.383    54 H    0.963
    23   6 C    3.897 --    22 C    1.383    26 C    1.224    24 O    1.107
    24   8 O    2.254 --    23 C    1.107    25 C    0.977
    25   6 C    3.930 --    57 H    0.977    24 O    0.977    56 H    0.973
                            55 H    0.973
    26   6 C    3.901 --    29 C    1.393    23 C    1.224    27 O    1.102
    27   8 O    2.254 --    26 C    1.102    28 C    0.979
    28   6 C    3.932 --    27 O    0.979    58 H    0.977    60 H    0.973
                            59 H    0.973
    29   6 C    3.960 --    26 C    1.393    20 C    1.383    61 H    0.962
    30   6 C    3.867 --    17 N    1.009    64 H    0.976    62 H    0.960
                            63 H    0.839
    31   6 C    3.987 --    32 C    1.010    33 C    1.007    65 H    0.961
                             3 C    0.937
    32   6 C    3.990 --    31 C    1.010    66 H    0.983    67 H    0.982
                            68 H    0.981
    33   6 C    3.991 --    31 C    1.007    69 H    0.984    71 H    0.983
                            70 H    0.979
    34   1 H    0.987 --     5 C    0.951
    35   1 H    0.995 --     8 C    0.974
    36   1 H    0.993 --     8 C    0.977
    37   1 H    0.996 --     8 C    0.975
    38   1 H    0.991 --    11 C    0.972
    39   1 H    0.992 --    11 C    0.976
    40   1 H    0.991 --    11 C    0.971
    41   1 H    0.985 --    12 C    0.952
    42   1 H    0.953 --     4 C    0.887
    43   1 H    0.995 --    14 C    0.970
    44   1 H    0.994 --    14 C    0.965
    45   1 H    0.994 --    15 C    0.947
    46   1 H    0.975 --    15 C    0.937
    47   1 H    0.987 --     2 C    0.929
    48   1 H    0.995 --    16 C    0.959
    49   1 H    0.991 --    18 C    0.964
    50   1 H    0.994 --    18 C    0.967
    51   1 H    0.995 --    19 C    0.967
    52   1 H    0.996 --    19 C    0.973
    53   1 H    0.998 --    21 C    0.968
    54   1 H    0.995 --    22 C    0.963
    55   1 H    0.992 --    25 C    0.973
    56   1 H    0.992 --    25 C    0.973
    57   1 H    0.993 --    25 C    0.977
    58   1 H    0.993 --    28 C    0.977
    59   1 H    0.993 --    28 C    0.973
    60   1 H    0.993 --    28 C    0.973
    61   1 H    0.996 --    29 C    0.962
    62   1 H    0.984 --    30 C    0.960
    63   1 H    0.980 --    30 C    0.839    13 C    0.117
    64   1 H    0.992 --    30 C    0.976
    65   1 H    0.997 --    31 C    0.961
    66   1 H    0.997 --    32 C    0.983
    67   1 H    0.998 --    32 C    0.982
    68   1 H    0.996 --    32 C    0.981
    69   1 H    0.997 --    33 C    0.984
    70   1 H    0.998 --    33 C    0.979
    71   1 H    0.996 --    33 C    0.983
    72   1 H    0.975 --     1 N    0.948
 ---------------------------------------------------------------------------

molecular dipole:
                 x           y           z       tot (Debye)
 q only:       -0.095      -0.247      -0.522
   full:       -0.146       0.125      -0.843       2.197

           -------------------------------------------------
          | TOTAL ENERGY              -99.869396174638 Eh   |
          | GRADIENT NORM               0.001444312339 Eh/α |
          | HOMO-LUMO GAP               0.900093111301 eV   |
           -------------------------------------------------

 * finished run on 2024/04/06 at 11:15:48.639
