   * xtb version 6.6.1 (8d0f1dd) compiled by 'conda@1efc2f54142f' on 2023-08-01
          program call               : xtb xtbopt.xyz --opt crude --input .xc2 --gfn2

   ID    Z sym.   atoms
    1    7 N      1, 17
    2    6 C      2-6, 8, 9, 11-16, 18-23, 25, 26, 28-33
    3    8 O      7, 10, 24, 27
    4    1 H      34-72
########################################################################
[WARNING] Please study the warnings concerning your input carefully
-1- readin_getIntValue: could not parse ''
########################################################################

          :  Hamiltonian                  GFN2-xTB          :
 * total energy  :   -99.2464679 Eh     change       -0.4263256E-11 Eh
 * total energy  :   -99.3073934 Eh     change       -0.6092550E-01 Eh
 * total energy  :   -99.3089383 Eh     change       -0.1544907E-02 Eh
 * total energy  :   -99.3096936 Eh     change       -0.7552740E-03 Eh
 * total energy  :   -99.3097521 Eh     change       -0.5850597E-04 Eh
   *** GEOMETRY OPTIMIZATION CONVERGED AFTER 5 ITERATIONS ***

 final structure:
================
72
 xtb: 6.6.1 (8d0f1dd)
N           -1.45723754282113        1.29640962900833        1.95629579170141
C           -1.65566728807943        1.84868515665449        0.84510920929289
C           -2.91423685915512        1.61065201038097        0.06137164320634
C           -3.64175926399463        0.33728455925638        0.59945309967876
C           -4.99031035364812        0.11983411889129       -0.00869311324853
C           -5.47903925339989       -1.11408730257611       -0.29430896987853
O           -6.70081647142522       -1.38430580572280       -0.81191712687951
C           -7.57968578419163       -0.31701683885507       -1.07783724887121
C           -4.68214235437735       -2.29102333567712       -0.05902436882680
O           -5.28740066825411       -3.45275065403458       -0.29256989065706
C           -4.60662480153490       -4.66363352392734       -0.04836007499164
C           -3.34655662106685       -2.11918374231413        0.35424777155877
C           -2.83352598813460       -0.88932506151652        0.60481801233466
C           -2.58273680109792        1.42924563262366       -1.43120150969174
C           -1.50099011760090        0.36935948976036       -1.70509441009667
C           -0.17829273109748        0.74332543186741       -1.15716344402679
N            0.53063491630281        0.04096884851769       -0.29109292067518
C            1.89492770952232        0.41232332725479        0.00719501167754
C            2.87349460398662       -0.42093219564555       -0.84299537909080
C            4.30677560621262       -0.09624023400780       -0.52628479966805
C            4.86134778545725        1.11298039276200       -0.91488889926993
C            6.18918333004880        1.40498669158029       -0.64488728889184
C            6.99455824310161        0.48803932850461        0.01515636999462
O            8.29806116301194        0.65495760747046        0.30994285128983
C            8.95145971971866        1.83162508326649       -0.10626200488581
C            6.43385343436514       -0.75274719298983        0.42312485813919
O            7.28593258188694       -1.58899778068439        1.04997471348604
C            6.83805601704276       -2.86594668956237        1.43755969293558
C            5.10050824707673       -1.01751315173443        0.15199242651475
C            0.03142381538953       -1.15942059590179        0.31054931657196
C           -3.80933683085096        2.88410627761169        0.23810402956790
C           -4.44469383100505        2.96583573041099        1.62750882240190
C           -3.05395162932763        4.19547995505447       -0.00442708070989
H           -5.60309205401981        0.98855263728408       -0.17549016735124
H           -7.82932398786149        0.23383763384261       -0.16591711014754
H           -8.48079602081712       -0.77494438479216       -1.48053177746434
H           -7.16162149368868        0.37129524884150       -1.81939067528788
H           -4.26744510715949       -4.72700126800725        0.98942153007834
H           -5.33118992940240       -5.45204437931447       -0.24245135073982
H           -3.75280427840505       -4.78339130781918       -0.72181728946501
H           -2.71622935633049       -2.99200027221620        0.45142255130319
H           -3.77714878969781        0.55694533160793        1.67338586415898
H           -3.49267510888301        1.13174597501463       -1.95450738246125
H           -2.25072638325394        2.37891791093239       -1.85147643392659
H           -1.83888012921072       -0.58945470540960       -1.31604175180616
H           -1.40468401343962        0.28846252186377       -2.79405937563980
H           -0.98020191201575        2.58559925074856        0.39363201155861
H            0.29492713468242        1.62611717822936       -1.56250360685807
H            2.09223418722481        0.23766467951607        1.06742907737416
H            2.04513096089665        1.47324257346824       -0.20112816314330
H            2.67460882767494       -0.21534680885097       -1.89760690622606
H            2.68924489976703       -1.48036473625033       -0.66132687039524
H            4.26442547533563        1.83612711579140       -1.44960917493629
H            6.59309015730499        2.35158106871126       -0.96446195117231
H            8.52449031405612        2.71837661621607        0.37213721508276
H            8.91269401810039        1.94780981874705       -1.19358871645309
H            9.98721548809112        1.71656215484534        0.20746588352687
H            7.70266147395617       -3.35635424860064        1.88063541787564
H            6.03802477298518       -2.80297364651530        2.18204982957474
H            6.49355458689048       -3.44823550688480        0.57715745181487
H            4.66874380462483       -1.95926814306732        0.45251248114238
H            0.00095494260652       -1.98243766707006       -0.40610914583302
H           -1.03450490560663       -0.99096754997668        0.66814762816893
H            0.65880636287718       -1.43891343822949        1.15198231815041
H           -4.60126740921531        2.82680916155761       -0.51560935222567
H           -3.68850068095741        2.84341686693214        2.40010523837833
H           -5.22024875434111        2.22034139880181        1.77622806541467
H           -4.90286725960349        3.94347031346977        1.75701181407645
H           -2.38276739238048        4.41618909066322        0.82192634576806
H           -2.48326381815409        4.18873273970034       -0.92907390210846
H           -3.77250057227121        5.00897596658543       -0.07212350164089
H           -0.60676443552368        1.55408916627366        2.44804363434955

          :  Hamiltonian                  GFN2-xTB          :
         :: total energy             -99.309752097290 Eh    ::
         :: gradient norm              0.002149486128 Eh/a0 ::
         :: HOMO-LUMO gap              0.924649931399 eV    ::
         :: SCC energy              -100.655610670464 Eh    ::
         :: -> dispersion             -0.076522659123 Eh    ::
         :: repulsion energy           1.344913673188 Eh    ::

    * Orbital Energies and Occupations

         #    Occupation            Energy/Eh            Energy/eV
      -------------------------------------------------------------
         1        2.0000           -0.8218501             -22.3637
       ...           ...                  ...                  ...
        78        1.9992           -0.5333358             -14.5128
        79        1.9988           -0.5280140             -14.3680
        80        1.9986           -0.5247108             -14.2781
        81        1.9985           -0.5238718             -14.2553
        82        1.9983           -0.5217759             -14.1982
        83        1.9974           -0.5153169             -14.0225
        84        1.9973           -0.5149096             -14.0114
        85        1.9937           -0.5012237             -13.6390
        86        1.9805           -0.4832122             -13.1489
        87        1.9745           -0.4789371             -13.0325
        88        1.9625           -0.4726952             -12.8627
        89        1.8556           -0.4504813             -12.2582
        90        1.4185           -0.4241702             -11.5423 (HOMO)
        91        0.4439           -0.3901899             -10.6176 (LUMO)
        92        0.3654           -0.3863284             -10.5125
        93        0.0146           -0.3322121              -9.0400
        94        0.0029           -0.3065947              -8.3429
        95        0.0026           -0.3049617              -8.2984
        96        0.0023           -0.3030088              -8.2453
        97        0.0000           -0.2242701              -6.1027
        98        0.0000           -0.1816792              -4.9437
        99                         -0.1207741              -3.2864
       100                         -0.0759808              -2.0675
       101                         -0.0672487              -1.8299
       ...                                ...                  ...
       171                          0.5812281              15.8160
      -------------------------------------------------------------
                  HL-Gap            0.0339803 Eh            0.9246 eV

     #   Z          covCN         q      C6AA      α(0)
     1   7 N        1.776    -0.300    28.601     7.920
     2   6 C        2.826     0.095    25.886     8.337
     3   6 C        3.903     0.010    20.358     6.413
     4   6 C        3.864    -0.016    20.818     6.488
     5   6 C        2.904    -0.081    30.029     8.985
     6   6 C        2.849     0.130    25.159     8.221
     7   8 O        1.706    -0.243    18.034     5.734
     8   6 C        3.645     0.029    20.429     6.497
     9   6 C        2.864     0.143    24.876     8.175
    10   8 O        1.706    -0.197    17.285     5.613
    11   6 C        3.646     0.023    20.522     6.510
    12   6 C        2.900    -0.071    29.777     8.947
    13   6 C        1.984    -0.110    34.108     9.431
    14   6 C        3.808    -0.064    21.717     6.634
    15   6 C        3.802    -0.073    21.885     6.660
    16   6 C        2.848     0.005    27.910     8.658
    17   7 N        2.730     0.030    20.716     6.760
    18   6 C        3.757    -0.018    20.946     6.525
    19   6 C        3.808    -0.070    21.826     6.650
    20   6 C        2.967    -0.001    28.039     8.686
    21   6 C        2.922    -0.050    29.232     8.866
    22   6 C        2.914    -0.068    29.691     8.935
    23   6 C        2.865     0.133    25.098     8.212
    24   8 O        1.706    -0.224    17.719     5.683
    25   6 C        3.645     0.026    20.474     6.503
    26   6 C        2.863     0.133    25.096     8.211
    27   8 O        1.706    -0.226    17.753     5.689
    28   6 C        3.645     0.027    20.450     6.500
    29   6 C        2.920    -0.079    29.972     8.978
    30   6 C        3.695    -0.097    22.532     6.791
    31   6 C        3.853    -0.014    20.789     6.485
    32   6 C        3.756    -0.116    22.767     6.803
    33   6 C        3.756    -0.110    22.665     6.788
    34   1 H        0.926     0.058     2.218     2.329
    35   1 H        0.924     0.050     2.320     2.382
    36   1 H        0.925     0.080     1.975     2.197
    37   1 H        0.924     0.046     2.370     2.407
    38   1 H        0.924     0.062     2.175     2.307
    39   1 H        0.925     0.086     1.915     2.164
    40   1 H        0.924     0.058     2.218     2.329
    41   1 H        0.926     0.047     2.356     2.400
    42   1 H        0.923     0.131     1.527     1.932
    43   1 H        0.924     0.054     2.268     2.355
    44   1 H        0.924     0.053     2.284     2.364
    45   1 H        0.925     0.075     2.027     2.226
    46   1 H        0.924     0.075     2.030     2.228
    47   1 H        0.924     0.013     2.845     2.638
    48   1 H        0.926     0.064     2.149     2.292
    49   1 H        0.924     0.070     2.084     2.258
    50   1 H        0.924     0.066     2.132     2.284
    51   1 H        0.924     0.055     2.264     2.353
    52   1 H        0.924     0.055     2.256     2.349
    53   1 H        0.926     0.042     2.427     2.436
    54   1 H        0.926     0.057     2.238     2.339
    55   1 H        0.924     0.053     2.278     2.360
    56   1 H        0.924     0.054     2.270     2.356
    57   1 H        0.925     0.081     1.967     2.193
    58   1 H        0.925     0.081     1.971     2.196
    59   1 H        0.924     0.050     2.325     2.385
    60   1 H        0.924     0.051     2.304     2.374
    61   1 H        0.926     0.048     2.341     2.393
    62   1 H        0.924     0.069     2.094     2.263
    63   1 H        0.918     0.121     1.610     1.984
    64   1 H        0.925     0.077     2.015     2.220
    65   1 H        0.924     0.041     2.442     2.444
    66   1 H        0.925     0.047     2.360     2.402
    67   1 H        0.925     0.043     2.411     2.428
    68   1 H        0.925     0.054     2.265     2.354
    69   1 H        0.925     0.043     2.407     2.426
    70   1 H        0.925     0.035     2.516     2.481
    71   1 H        0.925     0.051     2.304     2.374
    72   1 H        0.860     0.147     1.421     1.867

Wiberg/Mayer (AO) data.
largest (>0.10) Wiberg bond orders for each atom

     #   Z sym  total        # sym  WBO       # sym  WBO       # sym  WBO
 ---------------------------------------------------------------------------
     1   7 N    2.986 --     2 C    1.917    72 H    0.948
     2   6 C    3.930 --     1 N    1.917     3 C    1.002    47 H    0.930
     3   6 C    3.958 --     2 C    1.002    14 C    0.976    31 C    0.936
                             4 C    0.928
     4   6 C    3.950 --    13 C    1.057     5 C    1.016     3 C    0.928
                            42 H    0.852
     5   6 C    3.790 --     6 C    1.578     4 C    1.016    34 H    0.951
                             7 O    0.105
     6   6 C    3.928 --     5 C    1.578     9 C    1.137     7 O    1.081
     7   8 O    2.244 --     6 C    1.081     8 C    0.979     5 C    0.105
     8   6 C    3.934 --     7 O    0.979    36 H    0.977    37 H    0.975
                            35 H    0.974
     9   6 C    3.686 --    12 C    1.264    10 O    1.160     6 C    1.137
    10   8 O    2.287 --     9 C    1.160    11 C    0.969
    11   6 C    3.924 --    39 H    0.976    38 H    0.972    40 H    0.972
                            10 O    0.969
    12   6 C    3.946 --    13 C    1.572     9 C    1.264    41 H    0.953
    13   6 C    2.976 --    12 C    1.572     4 C    1.057    63 H    0.120
    14   6 C    3.969 --     3 C    0.976    15 C    0.974    43 H    0.970
                            44 H    0.966
    15   6 C    3.980 --    16 C    1.057    14 C    0.974    45 H    0.947
                            46 H    0.937
    16   6 C    3.624 --    17 N    1.432    15 C    1.057    48 H    0.959
    17   7 N    3.514 --    16 C    1.432    30 C    1.009    18 C    0.987
    18   6 C    3.955 --    17 N    0.987    19 C    0.968    50 H    0.967
                            49 H    0.964
    19   6 C    3.976 --    20 C    1.008    52 H    0.973    18 C    0.968
                            51 H    0.968
    20   6 C    3.947 --    21 C    1.408    29 C    1.383    19 C    1.008
    21   6 C    3.952 --    22 C    1.418    20 C    1.408    53 H    0.968
    22   6 C    3.962 --    21 C    1.418    23 C    1.384    54 H    0.963
    23   6 C    3.898 --    22 C    1.384    26 C    1.224    24 O    1.107
    24   8 O    2.254 --    23 C    1.107    25 C    0.977
    25   6 C    3.930 --    57 H    0.977    24 O    0.977    56 H    0.973
                            55 H    0.973
    26   6 C    3.901 --    29 C    1.393    23 C    1.224    27 O    1.102
    27   8 O    2.254 --    26 C    1.102    28 C    0.979
    28   6 C    3.933 --    27 O    0.979    58 H    0.977    60 H    0.974
                            59 H    0.973
    29   6 C    3.960 --    26 C    1.393    20 C    1.383    61 H    0.962
    30   6 C    3.864 --    17 N    1.009    64 H    0.976    62 H    0.960
                            63 H    0.836
    31   6 C    3.987 --    32 C    1.010    33 C    1.007    65 H    0.961
                             3 C    0.936
    32   6 C    3.989 --    31 C    1.010    66 H    0.982    67 H    0.981
                            68 H    0.980
    33   6 C    3.991 --    31 C    1.007    69 H    0.984    71 H    0.983
                            70 H    0.979
    34   1 H    0.988 --     5 C    0.951
    35   1 H    0.995 --     8 C    0.974
    36   1 H    0.993 --     8 C    0.977
    37   1 H    0.996 --     8 C    0.975
    38   1 H    0.991 --    11 C    0.972
    39   1 H    0.992 --    11 C    0.976
    40   1 H    0.991 --    11 C    0.972
    41   1 H    0.986 --    12 C    0.953
    42   1 H    0.939 --     4 C    0.852
    43   1 H    0.995 --    14 C    0.970
    44   1 H    0.994 --    14 C    0.966
    45   1 H    0.994 --    15 C    0.947
    46   1 H    0.975 --    15 C    0.937
    47   1 H    0.988 --     2 C    0.930
    48   1 H    0.995 --    16 C    0.959
    49   1 H    0.991 --    18 C    0.964
    50   1 H    0.994 --    18 C    0.967
    51   1 H    0.995 --    19 C    0.968
    52   1 H    0.996 --    19 C    0.973
    53   1 H    0.998 --    21 C    0.968
    54   1 H    0.995 --    22 C    0.963
    55   1 H    0.992 --    25 C    0.973
    56   1 H    0.992 --    25 C    0.973
    57   1 H    0.993 --    25 C    0.977
    58   1 H    0.993 --    28 C    0.977
    59   1 H    0.993 --    28 C    0.973
    60   1 H    0.993 --    28 C    0.974
    61   1 H    0.996 --    29 C    0.962
    62   1 H    0.984 --    30 C    0.960
    63   1 H    0.980 --    30 C    0.836    13 C    0.120
    64   1 H    0.992 --    30 C    0.976
    65   1 H    0.997 --    31 C    0.961
    66   1 H    0.997 --    32 C    0.982
    67   1 H    0.997 --    32 C    0.981
    68   1 H    0.995 --    32 C    0.980
    69   1 H    0.997 --    33 C    0.984
    70   1 H    0.998 --    33 C    0.979
    71   1 H    0.996 --    33 C    0.983
    72   1 H    0.975 --     1 N    0.948
 ---------------------------------------------------------------------------

molecular dipole:
                 x           y           z       tot (Debye)
 q only:       -0.135      -0.223      -0.501
   full:       -0.185       0.156      -0.809       2.145

           -------------------------------------------------
          | TOTAL ENERGY              -99.309752097290 Eh   |
          | GRADIENT NORM               0.002149486128 Eh/α |
          | HOMO-LUMO GAP               0.924649931399 eV   |
           -------------------------------------------------

 * finished run on 2024/04/06 at 11:15:49.780
