   * xtb version 6.6.1 (8d0f1dd) compiled by 'conda@1efc2f54142f' on 2023-08-01
          program call               : xtb struc.xyz --opt loose --input .xc1 --gfn2

   ID    Z sym.   atoms
    1    7 N      1, 17
    2    6 C      2-6, 8, 9, 11-16, 18-23, 25, 26, 28-33
    3    8 O      7, 10, 24, 27
    4    1 H      34-72
constraining bond 24 54 to    4.9000000 Å, actual value:    2.7212264 Å

          :  Hamiltonian                  GFN2-xTB          :
 * total energy  :   -98.5565291 Eh     change       -0.4035485E-08 Eh
 * total energy  :   -98.8559634 Eh     change       -0.2994343E+00 Eh
 * total energy  :   -99.0427723 Eh     change       -0.1868089E+00 Eh
 * total energy  :   -99.1185720 Eh     change       -0.7579970E-01 Eh
 * total energy  :   -99.1479615 Eh     change       -0.2938956E-01 Eh
 * total energy  :   -99.1622058 Eh     change       -0.1424430E-01 Eh
 * total energy  :   -99.1720256 Eh     change       -0.9819749E-02 Eh
 * total energy  :   -99.1819046 Eh     change       -0.9879033E-02 Eh
 * total energy  :   -99.1987194 Eh     change       -0.1681479E-01 Eh
 * total energy  :   -99.2107717 Eh     change       -0.1205232E-01 Eh
 * total energy  :   -99.2353499 Eh     change       -0.6743435E-03 Eh
 * total energy  :   -99.2359368 Eh     change       -0.5869097E-03 Eh
 * total energy  :   -99.2363935 Eh     change       -0.4567194E-03 Eh
 * total energy  :   -99.2372139 Eh     change       -0.8204581E-03 Eh
 * total energy  :   -99.2377824 Eh     change       -0.5684333E-03 Eh
 * total energy  :   -99.2380017 Eh     change       -0.2193214E-03 Eh
 * total energy  :   -99.2381428 Eh     change       -0.1411443E-03 Eh
 * total energy  :   -99.2382596 Eh     change       -0.1167974E-03 Eh
 * total energy  :   -99.2383078 Eh     change       -0.4814781E-04 Eh
   *** GEOMETRY OPTIMIZATION CONVERGED AFTER 27 ITERATIONS ***

 final structure:
================
72
 xtb: 6.6.1 (8d0f1dd)
N           -1.86886460147671        2.78110065606963        2.23557262728111
C           -1.81558843998816        2.11588477670049        1.18150228048104
C           -2.96430516783855        1.91190002704046        0.23325551338366
C           -3.44634962743483        0.47049728170105        0.31321701193996
C           -4.40113420343183        0.00953668599281       -0.59538320253194
C           -4.88625094887713       -1.28679551213148       -0.54129371649957
O           -5.81736177413509       -1.80583462817849       -1.36517618181375
C           -6.45078422971458       -0.97251992174413       -2.30779236886189
C           -4.39038312252681       -2.17943762715189        0.44879863790349
O           -4.90963507325395       -3.42132940643535        0.41963570970802
C           -4.52811306242356       -4.35039250743125        1.40747564827273
C           -3.44181675804451       -1.71559813107536        1.34652579257503
C           -2.98007083362187       -0.40678132650270        1.28076282442945
C           -2.40444019389638        2.19892153235818       -1.18419764072934
C           -1.45650453010452        1.11119602137833       -1.72154913678109
C           -0.12669721513134        1.10556744565691       -1.07101428491311
N            0.53210496550382        0.02370666072519       -0.68053618691848
C            1.90816014725086        0.11225325713802       -0.25094291240833
C            2.87734994890215       -0.39862059740190       -1.33471900529218
C            4.29636152003702       -0.22858647553934       -0.87024431770149
C            4.95190976282916        0.98856249489318       -1.08257069067276
C            6.22375454216320        1.12113787773549       -0.62029430413644
C            6.93456008174981        0.15209986768933        0.04058085467669
O            8.19045971129740        0.26282270276709        0.48873842719620
C            8.82612911206141        1.49575811879534        0.21818377943285
C            6.26214118027464       -1.09301662560719        0.26136906841942
O            6.98973354567672       -2.02250928879990        0.90731121389194
C            6.43452104679920       -3.29769758807594        1.13288409121689
C            4.95929319327432       -1.24686798823467       -0.19358822413516
C           -0.06532447494340       -1.29033319992009       -0.70977813426306
C           -4.17204320463909        2.85093533810162        0.53027252183717
C           -4.81624173284267        2.52211247451866        1.87488422355145
C           -3.80726077253129        4.33180191512213        0.48059513583222
H           -4.78419390865602        0.67993010992670       -1.34657921412584
H           -6.95202151050911       -0.12907098021963       -1.82366964376013
H           -7.19331537734982       -1.59918734005701       -2.79782739375648
H           -5.74383823024181       -0.60009213868360       -3.05610019560977
H           -4.77107110397723       -3.99045414872690        2.41145919843946
H           -5.10219366921353       -5.25082082569210        1.19821814843807
H           -3.45954693905821       -4.58105220299827        1.34985898960559
H           -3.06215219886488       -2.36377624079772        2.11964255165404
H           -2.26752187780255       -0.07321865759161        2.01934245213463
H           -3.23875369706682        2.29105379321958       -1.87844163601722
H           -1.88005027042272        3.15494429714745       -1.17029362111725
H           -1.94220431439041        0.13908720565443       -1.65614119964751
H           -1.29407658474247        1.33335621495040       -2.78414644750331
H           -0.89070702845760        1.63412723940098        0.80383436846953
H            0.42194661160398        2.03656821099584       -1.05589916486027
H            2.03836026958470       -0.47748659468931        0.66097926968881
H            2.15177078757376        1.15179721933621       -0.02265865336603
H            2.71671820019894        0.17594922785849       -2.24834674100461
H            2.67464967180799       -1.44905076624943       -1.54691459954002
H            4.46145472301888        1.79308614153141       -1.60696957120636
H            5.72856521358654        3.91435782342321       -1.65059182881116
H            8.28470245437400        2.32255257065696        0.68776417941235
H            8.87720364539752        1.67674156241003       -0.85949523932934
H            9.82922148084282        1.42236164003077        0.63274882045883
H            7.21151615032524       -3.87051350322965        1.63444551845739
H            5.55309638758040       -3.24071202601472        1.77920536169272
H            6.17063543378812       -3.79044099281208        0.19237236670343
H            4.44765116087934       -2.18353949390309       -0.03442309261438
H           -0.22184324298688       -1.62986919773161       -1.73571694728748
H           -1.02726591566043       -1.28428914053047       -0.19098915969940
H            0.59344104556317       -1.99434095204292       -0.20804552757578
H           -4.91363539565851        2.66074779188511       -0.25370486458701
H           -4.11508970202957        2.71512652298576        2.68046828385261
H           -5.12675939591404        1.48102520305370        1.91891711681494
H           -5.69286117654231        3.14755554429570        2.02129392517102
H           -3.04651999986370        4.56061638534458        1.22073832771967
H           -3.45388434778663        4.63104833463287       -0.50265969288010
H           -4.68980623854973        4.92310877425064        0.71003079003727
H           -1.02241430434435        2.87743860132478        2.78707455377854

          :  Hamiltonian                  GFN2-xTB          :
         :: total energy             -99.238307787376 Eh    ::
         :: gradient norm              0.001956373943 Eh/a0 ::
         :: HOMO-LUMO gap              0.209585983518 eV    ::
         :: SCC energy              -100.606016518407 Eh    ::
         :: -> dispersion             -0.075043837575 Eh    ::
         :: repulsion energy           1.366459231971 Eh    ::

    * Orbital Energies and Occupations

         #    Occupation            Energy/Eh            Energy/eV
      -------------------------------------------------------------
         1        2.0000           -0.8153616             -22.1871
       ...           ...                  ...                  ...
        78        1.9980           -0.5345424             -14.5456
        79        1.9979           -0.5338574             -14.5270
        80        1.9978           -0.5332100             -14.5094
        81        1.9971           -0.5288577             -14.3910
        82        1.9951           -0.5206915             -14.1687
        83        1.9942           -0.5179260             -14.0935
        84        1.9931           -0.5152183             -14.0198
        85        1.9783           -0.4969114             -13.5216
        86        1.9699           -0.4916842             -13.3794
        87        1.9303           -0.4780653             -13.0088
        88        1.8532           -0.4656305             -12.6704
        89        1.7897           -0.4593831             -12.5004
        90        1.1879           -0.4314967             -11.7416 (HOMO)
        91        0.9469           -0.4237945             -11.5320 (LUMO)
        92        0.3593           -0.4014263             -10.9234
        93        0.0134           -0.3462930              -9.4231
        94        0.0031           -0.3230918              -8.7918
        95        0.0026           -0.3203386              -8.7169
        96        0.0023           -0.3185693              -8.6687
        97        0.0013           -0.3089057              -8.4058
        98        0.0000           -0.1976479              -5.3783
        99        0.0000           -0.1875466              -5.1034
       100                         -0.1433355              -3.9004
       101                         -0.0752675              -2.0481
       ...                                ...                  ...
       171                          0.5658796              15.3984
      -------------------------------------------------------------
                  HL-Gap            0.0077021 Eh            0.2096 eV

     #   Z          covCN         q      C6AA      α(0)
     1   7 N        1.774    -0.262    27.629     7.784
     2   6 C        2.826     0.101    25.750     8.315
     3   6 C        3.907     0.007    20.408     6.421
     4   6 C        2.974     0.003    27.945     8.671
     5   6 C        2.920    -0.079    29.982     8.979
     6   6 C        2.862     0.131    25.132     8.217
     7   8 O        1.706    -0.226    17.753     5.689
     8   6 C        3.644     0.026    20.470     6.503
     9   6 C        2.864     0.130    25.156     8.221
    10   8 O        1.706    -0.225    17.731     5.685
    11   6 C        3.645     0.026    20.475     6.503
    12   6 C        2.913    -0.074    29.855     8.960
    13   6 C        2.921    -0.053    29.323     8.880
    14   6 C        3.812    -0.066    21.751     6.638
    15   6 C        3.802    -0.070    21.834     6.653
    16   6 C        2.843     0.011    27.761     8.635
    17   7 N        2.729     0.014    21.002     6.806
    18   6 C        3.756    -0.017    20.939     6.524
    19   6 C        3.807    -0.069    21.814     6.649
    20   6 C        2.979     0.004    27.940     8.670
    21   6 C        2.917    -0.035    28.868     8.811
    22   6 C        2.008    -0.076    33.102     9.292
    23   6 C        2.879     0.147    24.810     8.166
    24   8 O        1.705    -0.207    17.443     5.639
    25   6 C        3.663     0.023    20.445     6.486
    26   6 C        2.869     0.135    25.057     8.206
    27   8 O        1.706    -0.218    17.619     5.667
    28   6 C        3.645     0.026    20.474     6.503
    29   6 C        2.916    -0.084    30.097     8.996
    30   6 C        3.700    -0.072    22.048     6.715
    31   6 C        3.853    -0.007    20.673     6.467
    32   6 C        3.756    -0.120    22.847     6.815
    33   6 C        3.755    -0.119    22.829     6.813
    34   1 H        0.926     0.054     2.274     2.358
    35   1 H        0.924     0.055     2.253     2.347
    36   1 H        0.925     0.083     1.947     2.182
    37   1 H        0.924     0.049     2.329     2.386
    38   1 H        0.924     0.057     2.238     2.340
    39   1 H        0.925     0.083     1.948     2.183
    40   1 H        0.924     0.049     2.329     2.387
    41   1 H        0.926     0.053     2.280     2.361
    42   1 H        0.926     0.039     2.462     2.454
    43   1 H        0.925     0.062     2.177     2.308
    44   1 H        0.924     0.056     2.248     2.345
    45   1 H        0.925     0.067     2.121     2.277
    46   1 H        0.924     0.084     1.941     2.179
    47   1 H        0.922     0.010     2.898     2.662
    48   1 H        0.926     0.075     2.036     2.231
    49   1 H        0.924     0.069     2.101     2.267
    50   1 H        0.924     0.071     2.070     2.250
    51   1 H        0.924     0.061     2.189     2.314
    52   1 H        0.924     0.058     2.219     2.329
    53   1 H        0.926     0.072     2.068     2.249
    54   1 H        0.000    -0.121    15.797     7.267
    55   1 H        0.924     0.065     2.146     2.291
    56   1 H        0.924     0.066     2.135     2.285
    57   1 H        0.925     0.083     1.951     2.185
    58   1 H        0.925     0.085     1.924     2.169
    59   1 H        0.924     0.051     2.306     2.375
    60   1 H        0.924     0.055     2.258     2.350
    61   1 H        0.926     0.053     2.286     2.365
    62   1 H        0.924     0.078     1.997     2.210
    63   1 H        0.924     0.081     1.971     2.196
    64   1 H        0.925     0.081     1.967     2.193
    65   1 H        0.924     0.039     2.461     2.453
    66   1 H        0.925     0.071     2.072     2.251
    67   1 H        0.925     0.036     2.499     2.472
    68   1 H        0.925     0.053     2.283     2.363
    69   1 H        0.925     0.060     2.202     2.320
    70   1 H        0.925     0.036     2.502     2.473
    71   1 H        0.925     0.057     2.240     2.341
    72   1 H        0.860     0.161     1.331     1.807

Wiberg/Mayer (AO) data.
largest (>0.10) Wiberg bond orders for each atom

     #   Z sym  total        # sym  WBO       # sym  WBO       # sym  WBO
 ---------------------------------------------------------------------------
     1   7 N    3.048 --     2 C    1.961    72 H    0.940
     2   6 C    3.927 --     1 N    1.961     3 C    0.994    47 H    0.891
     3   6 C    3.974 --     2 C    0.994     4 C    0.968    14 C    0.958
                            31 C    0.940
     4   6 C    3.945 --    13 C    1.411     5 C    1.369     3 C    0.968
     5   6 C    3.960 --     6 C    1.399     4 C    1.369    34 H    0.957
     6   6 C    3.902 --     5 C    1.399     9 C    1.217     7 O    1.104
     7   8 O    2.256 --     6 C    1.104     8 C    0.977
     8   6 C    3.930 --     7 O    0.977    36 H    0.976    35 H    0.973
                            37 H    0.973
     9   6 C    3.898 --    12 C    1.390     6 C    1.217    10 O    1.106
    10   8 O    2.254 --     9 C    1.106    11 C    0.977
    11   6 C    3.929 --    39 H    0.977    10 O    0.977    40 H    0.973
                            38 H    0.973
    12   6 C    3.960 --    13 C    1.404     9 C    1.390    41 H    0.964
    13   6 C    3.951 --     4 C    1.411    12 C    1.404    42 H    0.962
    14   6 C    3.972 --    15 C    0.981    44 H    0.972    43 H    0.969
                             3 C    0.958
    15   6 C    3.986 --    16 C    1.060    14 C    0.981    45 H    0.962
                            46 H    0.926
    16   6 C    3.620 --    17 N    1.412    15 C    1.060    48 H    0.956
    17   7 N    3.494 --    16 C    1.412    30 C    0.997    18 C    0.988
    18   6 C    3.954 --    17 N    0.988    50 H    0.967    19 C    0.966
                            49 H    0.963
    19   6 C    3.967 --    20 C    1.003    51 H    0.970    52 H    0.969
                            18 C    0.966
    20   6 C    3.873 --    29 C    1.395    21 C    1.331    19 C    1.003
    21   6 C    3.908 --    22 C    1.475    20 C    1.331    53 H    0.947
    22   6 C    3.074 --    21 C    1.475    23 C    1.380
    23   6 C    3.853 --    22 C    1.380    26 C    1.171    24 O    1.126
    24   8 O    2.251 --    23 C    1.126    25 C    0.968
    25   6 C    3.912 --    57 H    0.978    56 H    0.970    55 H    0.970
                            24 O    0.968
    26   6 C    3.837 --    29 C    1.386    23 C    1.171    27 O    1.109
    27   8 O    2.247 --    26 C    1.109    28 C    0.973
    28   6 C    3.923 --    58 H    0.976    27 O    0.973    59 H    0.973
                            60 H    0.973
    29   6 C    3.953 --    20 C    1.395    26 C    1.386    61 H    0.957
    30   6 C    3.956 --    17 N    0.997    64 H    0.977    62 H    0.966
                            63 H    0.960
    31   6 C    3.970 --    33 C    1.009    32 C    1.008    65 H    0.959
                             3 C    0.940
    32   6 C    3.975 --    31 C    1.008    67 H    0.981    68 H    0.980
                            66 H    0.972
    33   6 C    3.981 --    31 C    1.009    70 H    0.982    71 H    0.979
                            69 H    0.976
    34   1 H    0.996 --     5 C    0.957
    35   1 H    0.993 --     8 C    0.973
    36   1 H    0.992 --     8 C    0.976
    37   1 H    0.993 --     8 C    0.973
    38   1 H    0.992 --    11 C    0.973
    39   1 H    0.992 --    11 C    0.977
    40   1 H    0.993 --    11 C    0.973
    41   1 H    0.995 --    12 C    0.964
    42   1 H    0.998 --    13 C    0.962
    43   1 H    0.995 --    14 C    0.969
    44   1 H    0.996 --    14 C    0.972
    45   1 H    0.995 --    15 C    0.962
    46   1 H    0.971 --    15 C    0.926
    47   1 H    0.985 --     2 C    0.891
    48   1 H    0.994 --    16 C    0.956
    49   1 H    0.990 --    18 C    0.963
    50   1 H    0.994 --    18 C    0.967
    51   1 H    0.994 --    19 C    0.970
    52   1 H    0.993 --    19 C    0.969
    53   1 H    0.977 --    21 C    0.947
    54   1 H    0.017
    55   1 H    0.988 --    25 C    0.970
    56   1 H    0.988 --    25 C    0.970
    57   1 H    0.992 --    25 C    0.978
    58   1 H    0.991 --    28 C    0.976
    59   1 H    0.992 --    28 C    0.973
    60   1 H    0.992 --    28 C    0.973
    61   1 H    0.990 --    29 C    0.957
    62   1 H    0.985 --    30 C    0.966
    63   1 H    0.987 --    30 C    0.960
    64   1 H    0.993 --    30 C    0.977
    65   1 H    0.991 --    31 C    0.959
    66   1 H    0.990 --    32 C    0.972
    67   1 H    0.996 --    32 C    0.981
    68   1 H    0.993 --    32 C    0.980
    69   1 H    0.993 --    33 C    0.976
    70   1 H    0.997 --    33 C    0.982
    71   1 H    0.993 --    33 C    0.979
    72   1 H    0.969 --     1 N    0.940
 ---------------------------------------------------------------------------

molecular dipole:
                 x           y           z       tot (Debye)
 q only:       -0.459      -1.027      -0.454
   full:       -0.232      -1.202      -0.605       3.470

           -------------------------------------------------
          | TOTAL ENERGY              -99.238307787376 Eh   |
          | GRADIENT NORM               0.001956373943 Eh/α |
          | HOMO-LUMO GAP               0.209585983518 eV   |
           -------------------------------------------------

 * finished run on 2024/04/06 at 11:14:26.690
