   * xtb version 6.6.1 (8d0f1dd) compiled by 'conda@1efc2f54142f' on 2023-08-01
          program call               : xtb xtbopt.xyz --opt crude --input .xc2 --gfn2

   ID    Z sym.   atoms
    1    6 C      1, 3, 5-7, 10, 11, 14
    2    7 N      2, 4, 9, 13
    3    8 O      8, 12
    4    1 H      15-25
########################################################################
[WARNING] Please study the warnings concerning your input carefully
-1- readin_getIntValue: could not parse ''
########################################################################

          :  Hamiltonian                  GFN2-xTB          :
 * total energy  :   -42.1579390 Eh     change        0.1065814E-12 Eh
 * total energy  :   -42.1583321 Eh     change       -0.3931243E-03 Eh
   *** GEOMETRY OPTIMIZATION CONVERGED AFTER 2 ITERATIONS ***

 final structure:
================
25
 xtb: 6.6.1 (8d0f1dd)
C            3.04374615787820        1.15091485403835        0.18766083107006
N            2.12659037009742        0.05546758338523        0.04617753837570
C            2.45449940734813       -1.20020596325637       -0.16590701273243
N            1.36060644624213       -1.96527547854705       -0.24869137986647
C            0.20572668609153       -1.17101578928001       -0.07951427599913
C            0.73324008617265        0.15503375181099        0.12772643101338
C            0.11191804358199        1.39135499952530        0.28106862336053
O            0.54505819271077        2.51129831152884        0.30604934183034
N           -1.43817538683767        1.28276454779958        0.44444121142126
C           -2.19872549718875        2.03636382053230       -0.54629620595316
C           -1.88643977355754        0.77291250645484        1.48435161966738
O           -2.14696125742319        0.33238628175292        2.51130823619172
N           -1.01165814340669       -1.52727920240204       -0.12974406918248
C           -1.45375805270987       -2.85600329200713       -0.40764886094712
H            2.90365020605431        1.63746816960229        1.15325848380186
H            4.06371621046060        0.78222561144956        0.10950936598208
H            2.86218055757298        1.89615403721185       -0.58751737275131
H            3.46157057393304       -1.56296914909877       -0.25607593744572
H           -1.67302915119589        2.97336847275965       -0.73600673298733
H           -2.25145793380505        1.45034234659965       -1.46398236492482
H           -3.20219075612289        2.24687964233702       -0.18393887199999
H           -1.65971571765716       -3.37402092125544        0.53269476860719
H           -0.75310266268411       -3.45958942691341       -0.99656696800140
H           -2.39350851633492       -2.77829978179050       -0.95465994061180
H            1.35665142487832       -2.96203739064230       -0.39652484001594

          :  Hamiltonian                  GFN2-xTB          :
         :: total energy             -42.158332090923 Eh    ::
         :: gradient norm              0.007546530942 Eh/a0 ::
         :: HOMO-LUMO gap              1.959485950982 eV    ::
         :: SCC energy               -42.727444255112 Eh    ::
         :: -> dispersion             -0.021951643785 Eh    ::
         :: repulsion energy           0.568885086338 Eh    ::

    * Orbital Energies and Occupations

         #    Occupation            Energy/Eh            Energy/eV
      -------------------------------------------------------------
         1        2.0000           -0.9311003             -25.3365
       ...           ...                  ...                  ...
        25        2.0000           -0.6711460             -18.2628
        26        2.0000           -0.6644184             -18.0797
        27        2.0000           -0.6493918             -17.6709
        28        1.9999           -0.6376226             -17.3506
        29        1.9999           -0.6321523             -17.2017
        30        1.9999           -0.6304763             -17.1561
        31        1.9996           -0.6082817             -16.5522
        32        1.9993           -0.6007655             -16.3477
        33        1.9989           -0.5935318             -16.1508
        34        1.9986           -0.5893312             -16.0365
        35        1.9978           -0.5822372             -15.8435
        36        1.9180           -0.5242990             -14.2669
        37        1.8216           -0.5111661             -13.9095 (HOMO)
        38        0.1952           -0.4391563             -11.9501 (LUMO)
        39        0.0653           -0.4207223             -11.4484
        40        0.0041           -0.3762158             -10.2374
        41        0.0020           -0.3648696              -9.9286
        42        0.0000           -0.2934283              -7.9846
        43        0.0000           -0.2404887              -6.5440
        44                         -0.1724392              -4.6923
        45                         -0.1271565              -3.4601
        46                         -0.0874683              -2.3801
        47                         -0.0753136              -2.0494
        48                         -0.0315702              -0.8591
       ...                                ...                  ...
        67                          1.0127542              27.5584
      -------------------------------------------------------------
                  HL-Gap            0.0720098 Eh            1.9595 eV

     #   Z          covCN         q      C6AA      α(0)
     1   6 C        3.693    -0.084    22.301     6.757
     2   7 N        2.815     0.066    20.088     6.657
     3   6 C        2.975     0.075    26.321     8.416
     4   7 N        2.782    -0.097    23.133     7.143
     5   6 C        2.940     0.143    24.889     8.182
     6   6 C        3.056    -0.043    29.019     8.834
     7   6 C        2.751     0.256    22.690     7.800
     8   8 O        0.857    -0.327    20.280     6.038
     9   7 N        2.714    -0.022    21.675     6.914
    10   6 C        3.697    -0.066    21.941     6.700
    11   6 C        1.794     0.328    23.885     7.899
    12   8 O        0.856    -0.111    16.679     5.476
    13   7 N        1.824    -0.259    27.575     7.781
    14   6 C        3.700    -0.031    21.289     6.598
    15   1 H        0.924     0.110     1.693     2.034
    16   1 H        0.925     0.096     1.824     2.112
    17   1 H        0.924     0.115     1.650     2.009
    18   1 H        0.926     0.110     1.697     2.037
    19   1 H        0.924     0.124     1.584     1.968
    20   1 H        0.925     0.106     1.731     2.058
    21   1 H        0.925     0.101     1.777     2.085
    22   1 H        0.924     0.076     2.020     2.223
    23   1 H        0.924     0.038     2.470     2.458
    24   1 H        0.925     0.082     1.961     2.190
    25   1 H        0.860     0.214     1.036     1.594

Wiberg/Mayer (AO) data.
largest (>0.10) Wiberg bond orders for each atom

     #   Z sym  total        # sym  WBO       # sym  WBO       # sym  WBO
 ---------------------------------------------------------------------------
     1   6 C    3.929 --     2 N    0.993    16 H    0.975    15 H    0.959
                            17 H    0.957
     2   7 N    3.669 --     3 C    1.418     6 C    1.089     1 C    0.993
                             4 N    0.108
     3   6 C    3.881 --     2 N    1.418     4 N    1.312    18 H    0.951
     4   7 N    3.536 --     3 C    1.312     5 C    1.045    25 H    0.924
                             2 N    0.108
     5   6 C    3.945 --    13 N    1.628     6 C    1.140     4 N    1.045
     6   6 C    3.831 --     7 C    1.277     5 C    1.140     2 N    1.089
                             8 O    0.113
     7   6 C    3.867 --     8 O    1.730     6 C    1.277     9 N    0.714
     8   8 O    2.105 --     7 C    1.730     6 C    0.113
     9   7 N    3.578 --    11 C    1.594    10 C    0.929     7 C    0.714
                            12 O    0.238
    10   6 C    3.890 --    21 H    0.976    20 H    0.967    19 H    0.962
                             9 N    0.929
    11   6 C    3.786 --    12 O    2.076     9 N    1.594
    12   8 O    2.414 --    11 C    2.076     9 N    0.238
    13   7 N    2.931 --     5 C    1.628    14 C    1.038
    14   6 C    3.951 --    13 N    1.038    23 H    0.963    24 H    0.962
                            22 H    0.947
    15   1 H    0.985 --     1 C    0.959
    16   1 H    0.990 --     1 C    0.975
    17   1 H    0.984 --     1 C    0.957
    18   1 H    0.986 --     3 C    0.951
    19   1 H    0.984 --    10 C    0.962
    20   1 H    0.988 --    10 C    0.967
    21   1 H    0.989 --    10 C    0.976
    22   1 H    0.975 --    14 C    0.947
    23   1 H    0.983 --    14 C    0.963
    24   1 H    0.981 --    14 C    0.962
    25   1 H    0.953 --     4 N    0.924
 ---------------------------------------------------------------------------

molecular dipole:
                 x           y           z       tot (Debye)
 q only:        0.905      -0.558      -0.282
   full:        1.182      -1.150      -0.351       4.286

           -------------------------------------------------
          | TOTAL ENERGY              -42.158332090923 Eh   |
          | GRADIENT NORM               0.007546530942 Eh/α |
          | HOMO-LUMO GAP               1.959485950982 eV   |
           -------------------------------------------------

 * finished run on 2024/06/05 at 19:58:01.303
