   * xtb version 6.6.1 (8d0f1dd) compiled by 'conda@1efc2f54142f' on 2023-08-01
          program call               : xtb xtbopt.xyz --opt crude --input .xc2 --gfn2

   ID    Z sym.   atoms
    1    7 N      1, 17
    2    6 C      2-6, 8, 9, 11-16, 18-23, 25, 26, 28-33
    3    8 O      7, 10, 24, 27
    4    1 H      34-72

          :  Hamiltonian                  GFN2-xTB          :
 * total energy  :   -99.3308925 Eh     change       -0.1679723E-10 Eh
   *** GEOMETRY OPTIMIZATION CONVERGED AFTER 1 ITERATIONS ***

 final structure:
================
72
 xtb: 6.6.1 (8d0f1dd)
N           -1.83210586968350        3.05031804550274        2.21296524563904
C           -1.91121146227576        2.38726035101503        1.15804143066042
C           -3.18715380534064        2.23616347287281        0.36487496473376
C           -3.55026255048266        0.74344748806586        0.32324403166020
C           -4.40375964869841        0.26335187598821       -0.66705223927057
C           -4.77277651149462       -1.07237917196133       -0.71169891312517
O           -5.57964743625481       -1.62576293511155       -1.63545731780276
C           -6.12349997544743       -0.81795345636172       -2.65283155777049
C           -4.27958360186748       -1.96815782809157        0.27830657967819
O           -4.69001456491821       -3.24488739167662        0.16109246871474
C           -4.30909800315140       -4.18402144192312        1.13990713273967
C           -3.43615550193430       -1.47445790144949        1.26272594883824
C           -3.07309952205287       -0.13396871774578        1.28357813027935
C           -2.88950689535253        2.71050008904470       -0.99950601748883
C           -1.35442206344109        0.02430052348406       -2.23916408178748
C           -0.17801920567589        0.36038811011126       -1.69410678218393
N            0.48943546765118       -0.31247846616188       -0.71645627243969
C            1.85655461508608        0.02738293753112       -0.42738456650618
C            2.86148168993792       -0.65096325272437       -1.38642182422867
C            4.26624234576488       -0.34827263621164       -0.95808197027463
C            4.84393907937878        0.88286156812918       -1.24109242712406
C            6.12307857938097        1.18610642692551       -0.80537823032515
C            6.85924327444326        0.26166791779055       -0.07466551627237
O            8.10101826073232        0.44726849354995        0.40346663018621
C            8.75495854229779        1.67473155741916        0.17601263148812
C            6.28127434231323       -1.00864775095325        0.21120344270963
O            7.06514738305568       -1.84967631249260        0.90936709575793
C            6.59835912545330       -3.14450631194073        1.20803265322289
C            4.99493464546268       -1.28403985544520       -0.22932933597150
C           -0.00511965914898       -1.58165799349719       -0.24996913644015
C           -4.41505874864528        3.01092351116661        0.94271501069171
C           -4.82309348112875        2.51265681749844        2.32297076001157
C           -4.14401202364274        4.51170982194999        0.97773901534607
H           -4.78782107826565        0.94383468751052       -1.40751718833738
H           -6.77587885266860       -0.04153946280725       -2.24304056806042
H           -6.71107926872675       -1.48965077345577       -3.27496141443903
H           -5.33937471580519       -0.35547232309690       -3.25991004079473
H           -4.64129670214207       -3.88113328795140        2.13712353608312
H           -4.80432303254222       -5.11258721113015        0.86167804895067
H           -3.22546832523777       -4.33932750206175        1.14632893606641
H           -3.05962072239582       -2.12733796356846        2.03383937904992
H           -2.43178262585286        0.21783101186982        2.07636641929237
H           -3.68136690034625        3.01358615007408       -1.65687048783277
H           -1.88047344933421        2.81250559668098       -1.34596312127745
H           -1.89549771331012       -0.86495230077042       -1.97814870747255
H           -1.79721508952657        0.65659458337617       -2.98489231911051
H           -1.06382649434239        1.86843976317271        0.68321570425424
H            0.31886699145926        1.26723886217770       -2.01308152334044
H            2.08533221975990       -0.27482011581571        0.59827255646231
H            1.97970279342877        1.11137109432745       -0.49667629230078
H            2.68424251824077       -0.28175622709121       -2.39813678539336
H            2.68970453591441       -1.72775304053707       -1.37731450887106
H            4.29721028606973        1.61482836593098       -1.81568494133365
H            6.54485598896958        2.14901841667402       -1.04302852887947
H            8.20340302973332        2.50955041264508        0.61834208521781
H            8.90163146002870        1.85828836808337       -0.89241003038455
H            9.72379180980097        1.58355987265712        0.66308720569901
H            7.40855904605477       -3.62976331538925        1.74875210196250
H            5.70767082256732       -3.11307561448142        1.84331518620494
H            6.37980282518827       -3.71076026593245        0.29761884737003
H            4.54800838491876       -2.24265936788048       -0.01705104446868
H            0.08849937154432       -2.36148170103931       -1.01189471911320
H           -1.05790465027047       -1.48606550516589        0.01798817079183
H            0.55411097987893       -1.88298562901825        0.63261753108569
H           -5.24176575884880        2.82165084803917        0.24777435427440
H           -4.01508676034293        2.67191799197737        3.03079208556626
H           -5.07742325060727        1.45547014279921        2.30374625877498
H           -5.69375946072789        3.06767030678004        2.66332435408636
H           -3.37378817026972        4.73540297405767        1.70966130149093
H           -3.81521447509318        4.87097248039903        0.00453643698905
H           -5.05047050318398        5.04249335275026        1.25647274449639
H           -0.92650628704389        3.12582826327892        2.66534683665637

          :  Hamiltonian                  GFN2-xTB          :
         :: total energy             -99.330892513901 Eh    ::
         :: gradient norm              0.002281399376 Eh/a0 ::
         :: HOMO-LUMO gap              0.848544890665 eV    ::
         :: SCC energy              -100.735604398209 Eh    ::
         :: -> dispersion             -0.074055096117 Eh    ::
         :: repulsion energy           1.403278013825 Eh    ::

    * Orbital Energies and Occupations

         #    Occupation            Energy/Eh            Energy/eV
      -------------------------------------------------------------
         1        2.0000           -0.8161364             -22.2082
       ...           ...                  ...                  ...
        78        1.9971           -0.5322199             -14.4824
        79        1.9970           -0.5315028             -14.4629
        80        1.9961           -0.5271276             -14.3439
        81        1.9950           -0.5234324             -14.2433
        82        1.9939           -0.5202411             -14.1565
        83        1.9925           -0.5167869             -14.0625
        84        1.9922           -0.5162927             -14.0490
        85        1.9717           -0.4956923             -13.4885
        86        1.9669           -0.4931859             -13.4203
        87        1.8931           -0.4739965             -12.8981
        88        1.8211           -0.4652279             -12.6595
        89        1.8040           -0.4636370             -12.6162
        90        1.6995           -0.4559268             -12.4064 (HOMO)
        91        0.8822           -0.4247434             -11.5579 (LUMO)
        92        0.0075           -0.3400804              -9.2541
        93        0.0023           -0.3215698              -8.7504
        94        0.0019           -0.3186941              -8.6721
        95        0.0017           -0.3167183              -8.6183
        96        0.0015           -0.3150711              -8.5735
        97        0.0003           -0.2912493              -7.9253
        98        0.0000           -0.1958587              -5.3296
        99        0.0000           -0.1916258              -5.2144
       100                         -0.1006985              -2.7401
       101                         -0.0689384              -1.8759
       ...                                ...                  ...
       171                          0.5692673              15.4906
      -------------------------------------------------------------
                  HL-Gap            0.0311835 Eh            0.8485 eV

     #   Z          covCN         q      C6AA      α(0)
     1   7 N        1.774    -0.263    27.656     7.787
     2   6 C        2.836     0.106    25.641     8.298
     3   6 C        3.910     0.023    20.124     6.376
     4   6 C        2.979     0.014    27.704     8.634
     5   6 C        2.918    -0.074    29.840     8.958
     6   6 C        2.863     0.134    25.066     8.206
     7   8 O        1.706    -0.220    17.660     5.674
     8   6 C        3.645     0.025    20.495     6.507
     9   6 C        2.863     0.131    25.129     8.217
    10   8 O        1.706    -0.221    17.676     5.676
    11   6 C        3.645     0.025    20.496     6.507
    12   6 C        2.914    -0.072    29.785     8.949
    13   6 C        2.920    -0.046    29.150     8.854
    14   6 C        2.861    -0.085    30.132     8.998
    15   6 C        2.838    -0.121    31.055     9.133
    16   6 C        2.840     0.021    27.531     8.599
    17   7 N        2.732    -0.048    22.168     6.993
    18   6 C        3.753    -0.006    20.738     6.494
    19   6 C        3.807    -0.071    21.847     6.654
    20   6 C        2.968     0.008    27.839     8.655
    21   6 C        2.922    -0.044    29.104     8.847
    22   6 C        2.913    -0.065    29.623     8.925
    23   6 C        2.864     0.136    25.035     8.202
    24   8 O        1.706    -0.214    17.558     5.658
    25   6 C        3.645     0.023    20.522     6.511
    26   6 C        2.862     0.136    25.031     8.201
    27   8 O        1.706    -0.217    17.606     5.665
    28   6 C        3.645     0.025    20.492     6.506
    29   6 C        2.919    -0.076    29.908     8.968
    30   6 C        3.699    -0.057    21.772     6.673
    31   6 C        3.854    -0.004    20.621     6.459
    32   6 C        3.755    -0.118    22.820     6.811
    33   6 C        3.755    -0.117    22.800     6.808
    34   1 H        0.926     0.060     2.196     2.317
    35   1 H        0.924     0.057     2.234     2.337
    36   1 H        0.925     0.084     1.934     2.175
    37   1 H        0.924     0.053     2.277     2.360
    38   1 H        0.924     0.058     2.225     2.332
    39   1 H        0.925     0.084     1.935     2.175
    40   1 H        0.924     0.051     2.304     2.374
    41   1 H        0.926     0.057     2.232     2.336
    42   1 H        0.926     0.050     2.326     2.385
    43   1 H        0.926     0.064     2.147     2.291
    44   1 H        0.926     0.053     2.282     2.362
    45   1 H        0.926     0.044     2.401     2.423
    46   1 H        0.926     0.050     2.316     2.380
    47   1 H        0.923     0.016     2.797     2.616
    48   1 H        0.925     0.047     2.352     2.398
    49   1 H        0.924     0.054     2.271     2.356
    50   1 H        0.924     0.057     2.239     2.340
    51   1 H        0.924     0.057     2.235     2.338
    52   1 H        0.924     0.054     2.274     2.358
    53   1 H        0.926     0.051     2.307     2.375
    54   1 H        0.926     0.061     2.183     2.310
    55   1 H        0.924     0.058     2.227     2.334
    56   1 H        0.924     0.060     2.202     2.321
    57   1 H        0.925     0.085     1.927     2.171
    58   1 H        0.925     0.084     1.934     2.175
    59   1 H        0.924     0.053     2.280     2.361
    60   1 H        0.924     0.057     2.236     2.339
    61   1 H        0.926     0.053     2.277     2.360
    62   1 H        0.924     0.060     2.199     2.319
    63   1 H        0.924     0.065     2.137     2.286
    64   1 H        0.925     0.062     2.180     2.309
    65   1 H        0.924     0.045     2.384     2.415
    66   1 H        0.925     0.068     2.109     2.271
    67   1 H        0.925     0.037     2.483     2.464
    68   1 H        0.925     0.057     2.233     2.337
    69   1 H        0.925     0.069     2.101     2.267
    70   1 H        0.925     0.041     2.440     2.443
    71   1 H        0.925     0.056     2.247     2.344
    72   1 H        0.860     0.162     1.325     1.803

Wiberg/Mayer (AO) data.
largest (>0.10) Wiberg bond orders for each atom

     #   Z sym  total        # sym  WBO       # sym  WBO       # sym  WBO
 ---------------------------------------------------------------------------
     1   7 N    3.014 --     2 C    1.961    72 H    0.938
     2   6 C    3.935 --     1 N    1.961     3 C    0.975    47 H    0.930
     3   6 C    3.961 --    14 C    1.068     2 C    0.975    31 C    0.914
                             4 C    0.907
     4   6 C    3.876 --    13 C    1.402     5 C    1.378     3 C    0.907
     5   6 C    3.952 --     6 C    1.391     4 C    1.378    34 H    0.958
     6   6 C    3.894 --     5 C    1.391     9 C    1.214     7 O    1.110
     7   8 O    2.255 --     6 C    1.110     8 C    0.976
     8   6 C    3.927 --    36 H    0.976     7 O    0.976    37 H    0.972
                            35 H    0.972
     9   6 C    3.888 --    12 C    1.384     6 C    1.214    10 O    1.109
    10   8 O    2.250 --     9 C    1.109    11 C    0.976
    11   6 C    3.928 --    39 H    0.976    10 O    0.976    40 H    0.973
                            38 H    0.972
    12   6 C    3.952 --    13 C    1.406     9 C    1.384    41 H    0.962
    13   6 C    3.935 --    12 C    1.406     4 C    1.402    42 H    0.962
    14   6 C    3.140 --     3 C    1.068    44 H    0.978    43 H    0.975
    15   6 C    3.804 --    16 C    1.729    46 H    0.976    45 H    0.973
    16   6 C    3.941 --    15 C    1.729    17 N    1.203    48 H    0.957
    17   7 N    3.356 --    16 C    1.203    30 C    1.007    18 C    1.006
    18   6 C    3.962 --    17 N    1.006    49 H    0.968    50 H    0.967
                            19 C    0.959
    19   6 C    3.971 --    20 C    1.015    52 H    0.973    51 H    0.968
                            18 C    0.959
    20   6 C    3.926 --    21 C    1.388    29 C    1.386    19 C    1.015
    21   6 C    3.928 --    22 C    1.428    20 C    1.388    53 H    0.967
    22   6 C    3.949 --    21 C    1.428    23 C    1.371    54 H    0.962
    23   6 C    3.872 --    22 C    1.371    26 C    1.209    24 O    1.119
    24   8 O    2.249 --    23 C    1.119    25 C    0.974
    25   6 C    3.924 --    57 H    0.976    24 O    0.974    55 H    0.971
                            56 H    0.971
    26   6 C    3.880 --    29 C    1.386    23 C    1.209    27 O    1.113
    27   8 O    2.250 --    26 C    1.113    28 C    0.976
    28   6 C    3.927 --    27 O    0.976    58 H    0.976    59 H    0.972
                            60 H    0.972
    29   6 C    3.949 --    20 C    1.386    26 C    1.386    61 H    0.961
    30   6 C    3.965 --    17 N    1.007    64 H    0.979    63 H    0.967
                            62 H    0.966
    31   6 C    3.942 --    32 C    1.011    33 C    1.006    65 H    0.959
                             3 C    0.914
    32   6 C    3.974 --    31 C    1.011    67 H    0.980    68 H    0.977
                            66 H    0.973
    33   6 C    3.967 --    31 C    1.006    71 H    0.979    70 H    0.976
                            69 H    0.972
    34   1 H    0.995 --     5 C    0.958
    35   1 H    0.991 --     8 C    0.972
    36   1 H    0.992 --     8 C    0.976
    37   1 H    0.992 --     8 C    0.972
    38   1 H    0.991 --    11 C    0.972
    39   1 H    0.992 --    11 C    0.976
    40   1 H    0.991 --    11 C    0.973
    41   1 H    0.994 --    12 C    0.962
    42   1 H    0.996 --    13 C    0.962
    43   1 H    0.995 --    14 C    0.975
    44   1 H    0.996 --    14 C    0.978
    45   1 H    0.997 --    15 C    0.973
    46   1 H    0.997 --    15 C    0.976
    47   1 H    0.977 --     2 C    0.930
    48   1 H    0.997 --    16 C    0.957
    49   1 H    0.993 --    18 C    0.968
    50   1 H    0.994 --    18 C    0.967
    51   1 H    0.993 --    19 C    0.968
    52   1 H    0.996 --    19 C    0.973
    53   1 H    0.996 --    21 C    0.967
    54   1 H    0.994 --    22 C    0.962
    55   1 H    0.989 --    25 C    0.971
    56   1 H    0.989 --    25 C    0.971
    57   1 H    0.992 --    25 C    0.976
    58   1 H    0.992 --    28 C    0.976
    59   1 H    0.990 --    28 C    0.972
    60   1 H    0.990 --    28 C    0.972
    61   1 H    0.996 --    29 C    0.961
    62   1 H    0.982 --    30 C    0.966
    63   1 H    0.989 --    30 C    0.967
    64   1 H    0.995 --    30 C    0.979
    65   1 H    0.988 --    31 C    0.959
    66   1 H    0.989 --    32 C    0.973
    67   1 H    0.995 --    32 C    0.980
    68   1 H    0.991 --    32 C    0.977
    69   1 H    0.989 --    33 C    0.972
    70   1 H    0.995 --    33 C    0.976
    71   1 H    0.992 --    33 C    0.979
    72   1 H    0.965 --     1 N    0.938
 ---------------------------------------------------------------------------

molecular dipole:
                 x           y           z       tot (Debye)
 q only:        0.584      -0.056      -0.102
   full:        0.924      -0.126      -0.357       2.537

           -------------------------------------------------
          | TOTAL ENERGY              -99.330892513901 Eh   |
          | GRADIENT NORM               0.002281399376 Eh/α |
          | HOMO-LUMO GAP               0.848544890665 eV   |
           -------------------------------------------------

 * finished run on 2024/04/06 at 11:15:06.187
