   * xtb version 6.6.1 (8d0f1dd) compiled by 'conda@1efc2f54142f' on 2023-08-01
          program call               : xtb struc.xyz --opt loose --input .xc1 --gfn2

   ID    Z sym.   atoms
    1    6 C      1, 3, 5-7, 10, 11, 14
    2    7 N      2, 4, 9, 13
    3    8 O      8, 12
    4    1 H      15-25
constraining bond 8 20 to    4.6333300 Å, actual value:    3.4833385 Å

          :  Hamiltonian                  GFN2-xTB          :
 * total energy  :   -44.6091898 Eh     change       -0.6650680E-10 Eh
 * total energy  :   -48.5511703 Eh     change       -0.3941980E+01 Eh
 * total energy  :   -54.3420546 Eh     change       -0.5790884E+01 Eh
 * total energy  :   -62.0971329 Eh     change       -0.7755078E+01 Eh
 * total energy  :   -71.0792178 Eh     change       -0.8982085E+01 Eh
 * total energy  :   -45.7799013 Eh     change        0.2529932E+02 Eh
 * total energy  :   -67.4211415 Eh     change       -0.2164124E+02 Eh
 * total energy  :   -67.7811348 Eh     change       -0.3599934E+00 Eh
 * total energy  :   -68.8881232 Eh     change       -0.1106988E+01 Eh
 * total energy  :   -71.4428424 Eh     change       -0.2554719E+01 Eh
 * total energy  :   -72.2068714 Eh     change       -0.5014441E-04 Eh
 * total energy  :   -72.2069187 Eh     change       -0.4730297E-04 Eh
 * total energy  :   -72.2069864 Eh     change       -0.6767779E-04 Eh
 * total energy  :   -72.2070707 Eh     change       -0.8434939E-04 Eh
 * total energy  :   -72.2071721 Eh     change       -0.1013320E-03 Eh
 * total energy  :   -72.2072773 Eh     change       -0.1052720E-03 Eh
 * total energy  :   -72.1965242 Eh     change        0.1075318E-01 Eh
 * total energy  :   -72.2073254 Eh     change       -0.1080125E-01 Eh
 * total energy  :   -72.2073412 Eh     change       -0.1581653E-04 Eh
   *** GEOMETRY OPTIMIZATION CONVERGED AFTER 70 ITERATIONS ***

 final structure:
================
25
 xtb: 6.6.1 (8d0f1dd)
C            3.27044621347277        1.05213985724976       -0.05857190501417
N            2.32441532475355       -0.02849961451305       -0.04801036767862
C            2.58474855571574       -1.33186121573783       -0.03259075981535
N            1.42471649735991       -2.03541316485132        0.01292351335347
C            0.39892487216791       -1.14495020249030        0.03102568145158
C            0.95805681942543        0.13665948858701       -0.01003561622444
C            0.16878642845144        1.29824118822447       -0.03252304255013
O           -1.49268052412087        3.31603224895306       -0.51142737127883
N           -1.14238252209180        1.03782196758877        0.02570982417552
C           -2.07257411939198        2.19065140641176        0.02717832373918
C           -1.77265267816936       -0.21042259901571        0.10626710896825
O           -2.96421890659689       -0.32735405952703        0.18139466368519
N           -0.92896377461397       -1.33731918706268        0.08346638911924
C           -1.52377598307966       -2.65885788442696        0.12239266940827
H            3.71907077823347        1.17510826598864        0.92876220806727
H            4.06082068126539        0.86174556982854       -0.78284463251960
H            2.73892540883646        1.96547742305488       -0.31906661204879
H            3.56060184834915       -1.77372422324635       -0.05625716026174
H           -2.38133159125044        2.35784182789491        1.07392095363823
H           -1.10109013082885        3.37874676112084       -0.59993709864888
H           -2.96689573267325        1.88936036155767       -0.53891636849836
H           -1.24233031614361       -3.17795654873669        1.03924143487847
H           -1.21582630803989       -3.23913247369917       -0.74752853760528
H           -2.60564485817823       -2.53233370907686        0.10500466466378
H            1.36128553124763       -3.04376294247548        0.03159365489675

          :  Hamiltonian                  GFN2-xTB          :
         :: total energy             -72.207341231630 Eh    ::
         :: gradient norm              0.003805579798 Eh/a0 ::
         :: HOMO-LUMO gap              1.798690809215 eV    ::
         :: SCC energy               -42.702370117660 Eh    ::
         :: -> dispersion             -0.022166900239 Eh    ::
         :: repulsion energy           2.397861301118 Eh    ::

    * Orbital Energies and Occupations

         #    Occupation            Energy/Eh            Energy/eV
      -------------------------------------------------------------
         1        2.0000           -0.9050289             -24.6271
       ...           ...                  ...                  ...
        25        2.0000           -0.6701206             -18.2349
        26        2.0000           -0.6593791             -17.9426
        27        2.0000           -0.6473170             -17.6144
        28        1.9999           -0.6336239             -17.2418
        29        1.9999           -0.6304403             -17.1552
        30        1.9998           -0.6250302             -17.0079
        31        1.9998           -0.6186150             -16.8334
        32        1.9994           -0.6048786             -16.4596
        33        1.9988           -0.5922736             -16.1166
        34        1.9970           -0.5781445             -15.7321
        35        1.9893           -0.5579203             -15.1818
        36        1.9630           -0.5380316             -14.6406
        37        1.7917           -0.5092093             -13.8563 (HOMO)
        38        0.2337           -0.4431086             -12.0576 (LUMO)
        39        0.0243           -0.4055136             -11.0346
        40        0.0033           -0.3736467             -10.1674
        41        0.0000           -0.2854027              -7.7662
        42                         -0.2026557              -5.5145
        43                         -0.1918821              -5.2214
        44                         -0.1377976              -3.7497
        45                         -0.1238367              -3.3698
        46                         -0.0732211              -1.9924
        47                         -0.0459394              -1.2501
        48                         -0.0344320              -0.9369
       ...                                ...                  ...
        67                          5.2828031             143.7524
      -------------------------------------------------------------
                  HL-Gap            0.0661007 Eh            1.7987 eV

     #   Z          covCN         q      C6AA      α(0)
     1   6 C        3.692    -0.089    22.399     6.772
     2   7 N        2.828     0.068    20.062     6.652
     3   6 C        3.052     0.050    26.831     8.495
     4   7 N        2.784    -0.063    22.453     7.038
     5   6 C        3.048     0.113    25.471     8.277
     6   6 C        3.123     0.021    27.350     8.564
     7   6 C        1.919    -0.120    34.463     9.481
     8   8 O        1.662    -0.418    21.192     6.215
     9   7 N        2.759    -0.034    21.898     6.950
    10   6 C        3.670     0.125    18.765     6.210
    11   6 C        2.726     0.309    21.744     7.634
    12   8 O        0.859    -0.370    21.094     6.158
    13   7 N        2.738    -0.045    22.104     6.983
    14   6 C        3.697    -0.071    22.029     6.714
    15   1 H        0.924     0.107     1.721     2.052
    16   1 H        0.925     0.103     1.758     2.073
    17   1 H        0.925     0.122     1.598     1.977
    18   1 H        0.926     0.117     1.636     2.000
    19   1 H        0.923     0.091     1.874     2.141
    20   1 H        0.849     0.367     0.546     1.158
    21   1 H        0.923     0.104     1.747     2.067
    22   1 H        0.924     0.083     1.948     2.183
    23   1 H        0.925     0.081     1.967     2.193
    24   1 H        0.925     0.125     1.575     1.963
    25   1 H        0.860     0.223     0.994     1.562

Wiberg/Mayer (AO) data.
largest (>0.10) Wiberg bond orders for each atom

     #   Z sym  total        # sym  WBO       # sym  WBO       # sym  WBO
 ---------------------------------------------------------------------------
     1   6 C    3.924 --     2 N    0.990    17 H    0.968    16 H    0.966
                            15 H    0.956
     2   7 N    3.645 --     3 C    1.385     6 C    1.136     1 C    0.990
     3   6 C    3.805 --     2 N    1.385     4 N    1.256    18 H    0.955
     4   7 N    3.584 --     3 C    1.256     5 C    1.203    25 H    0.920
     5   6 C    3.906 --     6 C    1.284    13 N    1.224     4 N    1.203
     6   6 C    3.899 --     5 C    1.284     7 C    1.236     2 N    1.136
     7   6 C    2.783 --     9 N    1.350     6 C    1.236
     8   8 O    2.011 --    10 C    1.059    20 H    0.859
     9   7 N    3.599 --     7 C    1.350    11 C    1.072    10 C    0.928
                            12 O    0.116
    10   6 C    3.909 --     8 O    1.059    21 H    0.941    19 H    0.934
                             9 N    0.928
    11   6 C    3.937 --    12 O    1.706     9 N    1.072    13 N    1.058
    12   8 O    2.045 --    11 C    1.706    13 N    0.133     9 N    0.116
    13   7 N    3.564 --     5 C    1.224    11 C    1.058    14 C    0.974
                            12 O    0.133
    14   6 C    3.926 --    13 N    0.974    23 H    0.971    22 H    0.970
                            24 H    0.965
    15   1 H    0.984 --     1 C    0.956
    16   1 H    0.987 --     1 C    0.966
    17   1 H    0.985 --     1 C    0.968
    18   1 H    0.985 --     3 C    0.955
    19   1 H    0.977 --    10 C    0.934
    20   1 H    0.866 --     8 O    0.859
    21   1 H    0.979 --    10 C    0.941
    22   1 H    0.991 --    14 C    0.970
    23   1 H    0.991 --    14 C    0.971
    24   1 H    0.984 --    14 C    0.965
    25   1 H    0.949 --     4 N    0.920
 ---------------------------------------------------------------------------

molecular dipole:
                 x           y           z       tot (Debye)
 q only:        2.771      -1.487       0.031
   full:        3.121      -2.345       0.064       9.925

           -------------------------------------------------
          | TOTAL ENERGY              -72.207341231630 Eh   |
          | GRADIENT NORM               0.003805579798 Eh/α |
          | HOMO-LUMO GAP               1.798690809215 eV   |
           -------------------------------------------------

 * finished run on 2024/06/05 at 19:59:15.234
