   * xtb version 6.6.1 (8d0f1dd) compiled by 'conda@1efc2f54142f' on 2023-08-01
          program call               : xtb struc.xyz --opt loose --input .xc1 --gfn2

   ID    Z sym.   atoms
    1    6 C      1, 3, 5-7, 10, 11, 14
    2    7 N      2, 4, 9, 13
    3    8 O      8, 12
    4    1 H      15-25
constraining bond 11 21 to    5.1400000 Å, actual value:    2.6553777 Å

          :  Hamiltonian                  GFN2-xTB          :
 * total energy  :   -31.2373395 Eh     change       -0.2401990E-09 Eh
 * total energy  :   -35.5034657 Eh     change       -0.4266126E+01 Eh
 * total energy  :   -38.7216552 Eh     change       -0.3218189E+01 Eh
 * total energy  :   -40.6567130 Eh     change       -0.1935058E+01 Eh
 * total energy  :   -41.6009421 Eh     change       -0.9442291E+00 Eh
 * total energy  :   -41.8477904 Eh     change       -0.2468483E+00 Eh
 * total energy  :   -41.8880132 Eh     change       -0.4022285E-01 Eh
 * total energy  :   -41.9407125 Eh     change       -0.5269923E-01 Eh
 * total energy  :   -41.9595974 Eh     change       -0.1888496E-01 Eh
 * total energy  :   -41.9736767 Eh     change       -0.1407924E-01 Eh
 * total energy  :   -42.1300203 Eh     change       -0.4887644E-02 Eh
 * total energy  :   -42.1338166 Eh     change       -0.3796368E-02 Eh
 * total energy  :   -42.1350130 Eh     change       -0.1196408E-02 Eh
 * total energy  :   -42.1355582 Eh     change       -0.5451616E-03 Eh
 * total energy  :   -42.1357121 Eh     change       -0.1538951E-03 Eh
 * total energy  :   -42.1358475 Eh     change       -0.1353792E-03 Eh
 * total energy  :   -42.1359248 Eh     change       -0.7735445E-04 Eh
 * total energy  :   -42.1359914 Eh     change       -0.6658278E-04 Eh
 * total energy  :   -42.1360256 Eh     change       -0.3418069E-04 Eh
   *** GEOMETRY OPTIMIZATION CONVERGED AFTER 32 ITERATIONS ***

 final structure:
================
25
 xtb: 6.6.1 (8d0f1dd)
C            3.24347954849453        1.11386699897935        0.05813827382657
N            2.30733878965395        0.02451271946455        0.01328757420218
C            2.60126323326531       -1.28082201364264        0.03390364015482
N            1.45538935807430       -2.00968141862577       -0.00009638625797
C            0.40428985728103       -1.14099214793903       -0.04375559427483
C            0.93422779322249        0.14691841762131       -0.03691060835012
C            0.11522763749311        1.31489929929252       -0.08965028603712
O            0.46883214033662        2.47680113213119       -0.09114426985888
N           -1.28411602774673        0.97345773778090       -0.15329611594487
C           -2.15721259015545        1.99073361531154       -0.22721279556671
C           -1.82596684497887       -0.33932795164434       -0.14135760102784
O           -3.01467585156797       -0.52371857868327       -0.17939866139008
N           -0.92128020067441       -1.39816743357649       -0.08228941352129
C           -1.43506440924986       -2.75346319735167       -0.07657159600886
H            3.74467438685969        1.14409893940259        1.02712632811877
H            3.99564280053220        0.99990858226173       -0.72230763804282
H            2.70168663096004        2.04746207152420       -0.08877993886641
H            3.58877456046272       -1.69301878808489        0.07151108056920
H           -1.76259798043600        2.99069506837391       -0.23275298777642
H           -3.20631044789219        1.77055220964902       -0.28021836603872
H           -3.46366541419429        4.24868715176743        1.49766654774704
H           -1.09548618828723       -3.28449668956624        0.81303955099787
H           -1.12022959030778       -3.28672689731686       -0.97469438749066
H           -2.52276993117913       -2.69606773487954       -0.06286894999283
H            1.40898025413408       -3.01787255064932       -0.00019578127016

          :  Hamiltonian                  GFN2-xTB          :
         :: total energy             -42.136025602753 Eh    ::
         :: gradient norm              0.002500861678 Eh/a0 ::
         :: HOMO-LUMO gap              0.229175463252 eV    ::
         :: SCC energy               -42.651193128668 Eh    ::
         :: -> dispersion             -0.022631489067 Eh    ::
         :: repulsion energy           0.515081479452 Eh    ::

    * Orbital Energies and Occupations

         #    Occupation            Energy/Eh            Energy/eV
      -------------------------------------------------------------
         1        2.0000           -0.9054968             -24.6398
       ...           ...                  ...                  ...
        25        1.9994           -0.6721206             -18.2893
        26        1.9993           -0.6682121             -18.1830
        27        1.9992           -0.6632096             -18.0469
        28        1.9969           -0.6316163             -17.1872
        29        1.9966           -0.6294106             -17.1271
        30        1.9964           -0.6280624             -17.0904
        31        1.9943           -0.6173424             -16.7987
        32        1.9935           -0.6142104             -16.7135
        33        1.9930           -0.6123788             -16.6637
        34        1.9793           -0.5864321             -15.9576
        35        1.9555           -0.5679932             -15.4559
        36        1.9312           -0.5573424             -15.1661
        37        1.0152           -0.4788531             -13.0303 (HOMO)
        38        0.8393           -0.4704310             -12.8011 (LUMO)
        39        0.2205           -0.4285377             -11.6611
        40        0.0685           -0.3988384             -10.8529
        41        0.0229           -0.3722744             -10.1301
        42        0.0007           -0.2875721              -7.8252
        43        0.0000           -0.2077546              -5.6533
        44        0.0000           -0.1954329              -5.3180
        45        0.0000           -0.1496817              -4.0730
        46        0.0000           -0.1448213              -3.9408
        47                         -0.0764191              -2.0795
        48                         -0.0523096              -1.4234
       ...                                ...                  ...
        67                          0.5398773              14.6908
      -------------------------------------------------------------
                  HL-Gap            0.0084220 Eh            0.2292 eV

     #   Z          covCN         q      C6AA      α(0)
     1   6 C        3.691    -0.091    22.442     6.779
     2   7 N        2.822     0.069    20.035     6.648
     3   6 C        3.037     0.041    27.052     8.531
     4   7 N        2.783    -0.062    22.437     7.035
     5   6 C        3.031     0.103    25.701     8.316
     6   6 C        3.098    -0.019    28.368     8.729
     7   6 C        2.774     0.250    22.797     7.820
     8   8 O        0.857    -0.356    20.831     6.119
     9   7 N        2.740    -0.030    21.824     6.938
    10   6 C        2.815    -0.023    28.566     8.757
    11   6 C        2.737     0.306    21.810     7.646
    12   8 O        0.859    -0.348    20.673     6.096
    13   7 N        2.736    -0.046    22.123     6.986
    14   6 C        3.699    -0.073    22.069     6.719
    15   1 H        0.924     0.107     1.726     2.054
    16   1 H        0.925     0.105     1.742     2.064
    17   1 H        0.925     0.133     1.511     1.923
    18   1 H        0.926     0.120     1.609     1.984
    19   1 H        0.926     0.135     1.500     1.915
    20   1 H        0.926     0.131     1.526     1.932
    21   1 H        0.000     0.021     6.776     4.760
    22   1 H        0.924     0.086     1.916     2.165
    23   1 H        0.924     0.088     1.902     2.157
    24   1 H        0.925     0.129     1.545     1.944
    25   1 H        0.860     0.226     0.981     1.552

Wiberg/Mayer (AO) data.
largest (>0.10) Wiberg bond orders for each atom

     #   Z sym  total        # sym  WBO       # sym  WBO       # sym  WBO
 ---------------------------------------------------------------------------
     1   6 C    3.911 --     2 N    0.990    16 H    0.961    17 H    0.959
                            15 H    0.955
     2   7 N    3.600 --     3 C    1.341     6 C    1.143     1 C    0.990
     3   6 C    3.734 --     2 N    1.341     4 N    1.248    18 H    0.955
     4   7 N    3.542 --     3 C    1.248     5 C    1.189    25 H    0.921
     5   6 C    3.857 --     6 C    1.310     4 N    1.189    13 N    1.184
     6   6 C    3.868 --     5 C    1.310     2 N    1.143     7 C    1.127
     7   6 C    3.838 --     8 O    1.649     6 C    1.127     9 N    0.978
     8   8 O    1.906 --     7 C    1.649
     9   7 N    3.583 --    10 C    1.332    11 C    1.023     7 C    0.978
    10   6 C    3.319 --     9 N    1.332    20 H    0.957    19 H    0.954
    11   6 C    3.879 --    12 O    1.684    13 N    1.083     9 N    1.023
    12   8 O    1.975 --    11 C    1.684    13 N    0.124
    13   7 N    3.526 --     5 C    1.184    11 C    1.083    14 C    0.974
                            12 O    0.124
    14   6 C    3.915 --    13 N    0.974    22 H    0.968    23 H    0.967
                            24 H    0.962
    15   1 H    0.979 --     1 C    0.955
    16   1 H    0.981 --     1 C    0.961
    17   1 H    0.980 --     1 C    0.959
    18   1 H    0.984 --     3 C    0.955
    19   1 H    0.978 --    10 C    0.954
    20   1 H    0.979 --    10 C    0.957
    21   1 H    0.008
    22   1 H    0.986 --    14 C    0.968
    23   1 H    0.985 --    14 C    0.967
    24   1 H    0.981 --    14 C    0.962
    25   1 H    0.948 --     4 N    0.921
 ---------------------------------------------------------------------------

molecular dipole:
                 x           y           z       tot (Debye)
 q only:        2.215      -1.917       0.023
   full:        2.436      -2.350       0.037       8.603

           -------------------------------------------------
          | TOTAL ENERGY              -42.136025602753 Eh   |
          | GRADIENT NORM               0.002500861678 Eh/α |
          | HOMO-LUMO GAP               0.229175463252 eV   |
           -------------------------------------------------

 * finished run on 2024/06/05 at 19:58:53.668
