   * xtb version 6.6.1 (8d0f1dd) compiled by 'conda@1efc2f54142f' on 2023-08-01
          program call               : xtb struc.xyz --opt loose --input .xc1 --gfn2

   ID    Z sym.   atoms
    1    6 C      1, 3, 5-7, 10, 11, 14
    2    7 N      2, 4, 9, 13
    3    8 O      8, 12
    4    1 H      15-25
constraining bond 7 21 to    3.7133300 Å, actual value:    3.1541658 Å

          :  Hamiltonian                  GFN2-xTB          :
 * total energy  :   -42.8183230 Eh     change       -0.2401990E-09 Eh
 * total energy  :   -45.0766535 Eh     change       -0.2258330E+01 Eh
 * total energy  :   -48.9847338 Eh     change       -0.3908080E+01 Eh
 * total energy  :   -54.7643256 Eh     change       -0.5779592E+01 Eh
 * total energy  :   -57.4999142 Eh     change       -0.2735589E+01 Eh
 * total energy  :   -58.0388028 Eh     change       -0.5388886E+00 Eh
 * total energy  :   -58.8432666 Eh     change       -0.8044638E+00 Eh
 * total energy  :   -58.1368095 Eh     change        0.7064571E+00 Eh
 * total energy  :   -59.3157482 Eh     change       -0.1178939E+01 Eh
 * total energy  :   -59.4079412 Eh     change       -0.9219291E-01 Eh
 * total energy  :   -59.7525063 Eh     change       -0.2145136E-03 Eh
 * total energy  :   -59.7526765 Eh     change       -0.1702231E-03 Eh
 * total energy  :   -59.7528815 Eh     change       -0.2050285E-03 Eh
 * total energy  :   -59.7529879 Eh     change       -0.1063293E-03 Eh
 * total energy  :   -59.7530945 Eh     change       -0.1066336E-03 Eh
 * total energy  :   -59.7532144 Eh     change       -0.1199119E-03 Eh
 * total energy  :   -59.7533110 Eh     change       -0.9658031E-04 Eh
 * total energy  :   -59.7533713 Eh     change       -0.6032511E-04 Eh
 * total energy  :   -59.7534034 Eh     change       -0.3212957E-04 Eh
   *** GEOMETRY OPTIMIZATION CONVERGED AFTER 40 ITERATIONS ***

 final structure:
================
25
 xtb: 6.6.1 (8d0f1dd)
C            3.12303353633799        1.19621283792265        0.20731977325217
N            2.14685656843518        0.14496151728287        0.10594890536041
C            2.39148936667045       -1.13080359219661       -0.19544829790942
N            1.22766278604314       -1.81383762010974       -0.20034032470083
C            0.21474366019862       -0.94311033774589        0.11307954691749
C            0.80417781037562        0.29031550495101        0.32575409500551
C            0.06092614639795        1.58945980038804        0.76192946533690
O            0.46546148350130        2.61170246890302        0.13832139257699
N           -1.58398075166250        1.02997392536655       -0.13231967925057
C           -2.22217296038996        2.00728175907060       -0.67187404760145
C           -2.08687891615408       -0.26802945463847       -0.08939013492794
O           -3.25304996355399       -0.54626917437932       -0.21177456936080
N           -1.11232887491747       -1.25234686345193        0.11334157300918
C           -1.53893961311526       -2.63758294205338        0.12977383910131
H            3.54645503152392        1.22871054709935        1.21359001879369
H            3.92552400491724        1.02931746296386       -0.50868643493982
H            2.63662861268546        2.15021752417132       -0.00252992380803
H            3.35641507928661       -1.54857971736195       -0.40070239267216
H           -1.76307920043271        2.98589324376588       -0.62188791398330
H           -3.16731066255715        1.87006652011971       -1.17778453562142
H           -0.14119323751867        1.57088830380968        1.13451817907853
H           -1.06253358878710       -3.16709668448892        0.95475421798871
H           -1.31498751015283       -3.13508382489887       -0.81676665501722
H           -2.61948320889861       -2.64773764931946        0.27154318379331
H            1.12699591586732       -2.79628501356905       -0.40919766252140

          :  Hamiltonian                  GFN2-xTB          :
         :: total energy             -59.753403439636 Eh    ::
         :: gradient norm              0.003515370596 Eh/a0 ::
         :: HOMO-LUMO gap              2.424616146356 eV    ::
         :: SCC energy               -42.698587960087 Eh    ::
         :: -> dispersion             -0.023058546721 Eh    ::
         :: repulsion energy           2.260553626224 Eh    ::

    * Orbital Energies and Occupations

         #    Occupation            Energy/Eh            Energy/eV
      -------------------------------------------------------------
         1        2.0000           -0.9063187             -24.6622
       ...           ...                  ...                  ...
        25        1.9991           -0.6707847             -18.2530
        26        1.9990           -0.6674761             -18.1629
        27        1.9986           -0.6612501             -17.9935
        28        1.9958           -0.6343662             -17.2620
        29        1.9950           -0.6300976             -17.1458
        30        1.9942           -0.6267193             -17.0539
        31        1.9935           -0.6238871             -16.9768
        32        1.9910           -0.6162130             -16.7680
        33        1.9892           -0.6117493             -16.6465
        34        1.9715           -0.5885521             -16.0153
        35        1.9216           -0.5638629             -15.3435
        36        1.8454           -0.5467853             -14.8788
        37        1.7986           -0.5398875             -14.6911 (HOMO)
        38        0.3467           -0.4507845             -12.2665 (LUMO)
        39        0.1028           -0.4186371             -11.3917
        40        0.0525           -0.4020562             -10.9405
        41        0.0058           -0.3491219              -9.5001
        42        0.0025           -0.3288128              -8.9475
        43        0.0000           -0.1922921              -5.2325
        44        0.0000           -0.1866819              -5.0799
        45        0.0000           -0.1537364              -4.1834
        46        0.0000           -0.0944297              -2.5696
        47                         -0.0681211              -1.8537
        48                         -0.0451096              -1.2275
       ...                                ...                  ...
        67                         10.4768408             285.0893
      -------------------------------------------------------------
                  HL-Gap            0.0891030 Eh            2.4246 eV

     #   Z          covCN         q      C6AA      α(0)
     1   6 C        3.692    -0.092    22.457     6.781
     2   7 N        2.842     0.082    19.818     6.612
     3   6 C        3.036     0.044    26.978     8.519
     4   7 N        2.800    -0.062    22.438     7.035
     5   6 C        3.023     0.104    25.677     8.312
     6   6 C        3.092    -0.013    28.236     8.710
     7   6 C        3.198     0.149    24.273     8.030
     8   8 O        0.862    -0.384    21.352     6.195
     9   7 N        2.268    -0.145    24.443     7.339
    10   6 C        2.792     0.035    27.198     8.543
    11   6 C        2.729     0.322    21.520     7.595
    12   8 O        0.858    -0.340    20.525     6.074
    13   7 N        2.737    -0.054    22.282     7.011
    14   6 C        3.700    -0.071    22.036     6.713
    15   1 H        0.924     0.109     1.709     2.044
    16   1 H        0.925     0.105     1.743     2.064
    17   1 H        0.924     0.139     1.470     1.896
    18   1 H        0.926     0.122     1.596     1.976
    19   1 H        0.925     0.136     1.491     1.910
    20   1 H        0.926     0.121     1.606     1.982
    21   1 H        0.939     0.171     1.259     1.754
    22   1 H        0.925     0.085     1.927     2.171
    23   1 H        0.924     0.083     1.944     2.180
    24   1 H        0.925     0.127     1.562     1.954
    25   1 H        0.860     0.228     0.975     1.546

Wiberg/Mayer (AO) data.
largest (>0.10) Wiberg bond orders for each atom

     #   Z sym  total        # sym  WBO       # sym  WBO       # sym  WBO
 ---------------------------------------------------------------------------
     1   6 C    3.905 --     2 N    0.988    16 H    0.966    15 H    0.952
                            17 H    0.952
     2   7 N    3.664 --     3 C    1.349     6 C    1.196     1 C    0.988
     3   6 C    3.798 --     2 N    1.349     4 N    1.280    18 H    0.953
     4   7 N    3.558 --     3 C    1.280     5 C    1.172    25 H    0.918
     5   6 C    3.889 --     6 C    1.395     4 N    1.172    13 N    1.152
     6   6 C    3.789 --     5 C    1.395     2 N    1.196     7 C    0.919
     7   6 C    3.869 --     8 O    1.590    21 H    0.939     6 C    0.919
                             9 N    0.346
     8   8 O    1.823 --     7 C    1.590     9 N    0.116
     9   7 N    3.300 --    10 C    1.659    11 C    1.053     7 C    0.346
                             8 O    0.116
    10   6 C    3.601 --     9 N    1.659    19 H    0.943    20 H    0.937
    11   6 C    3.874 --    12 O    1.681    13 N    1.066     9 N    1.053
    12   8 O    1.957 --    11 C    1.681    13 N    0.118
    13   7 N    3.464 --     5 C    1.152    11 C    1.066    14 C    0.980
                            12 O    0.118
    14   6 C    3.914 --    13 N    0.980    22 H    0.969    23 H    0.962
                            24 H    0.960
    15   1 H    0.980 --     1 C    0.952
    16   1 H    0.984 --     1 C    0.966
    17   1 H    0.976 --     1 C    0.952
    18   1 H    0.984 --     3 C    0.953
    19   1 H    0.971 --    10 C    0.943
    20   1 H    0.966 --    10 C    0.937
    21   1 H    0.955 --     7 C    0.939
    22   1 H    0.983 --    14 C    0.969
    23   1 H    0.980 --    14 C    0.962
    24   1 H    0.979 --    14 C    0.960
    25   1 H    0.947 --     4 N    0.918
 ---------------------------------------------------------------------------

molecular dipole:
                 x           y           z       tot (Debye)
 q only:        2.201      -1.660       0.067
   full:        2.243      -2.032      -0.007       7.694

           -------------------------------------------------
          | TOTAL ENERGY              -59.753403439636 Eh   |
          | GRADIENT NORM               0.003515370596 Eh/α |
          | HOMO-LUMO GAP               2.424616146356 eV   |
           -------------------------------------------------

 * finished run on 2024/06/05 at 19:59:00.593
