   * xtb version 6.6.1 (8d0f1dd) compiled by 'conda@1efc2f54142f' on 2023-08-01
          program call               : xtb xtbopt.xyz --opt crude --input .xc2 --gfn2

   ID    Z sym.   atoms
    1    6 C      1, 3, 5-7, 10, 11, 14
    2    7 N      2, 4, 9, 13
    3    8 O      8, 12
    4    1 H      15-25
########################################################################
[WARNING] Please study the warnings concerning your input carefully
-1- readin_getIntValue: could not parse ''
########################################################################

          :  Hamiltonian                  GFN2-xTB          :
 * total energy  :   -40.4378686 Eh     change       -0.1989520E-12 Eh
 * total energy  :   -42.1442169 Eh     change       -0.1706348E+01 Eh
 * total energy  :   -42.1641069 Eh     change       -0.1989004E-01 Eh
 * total energy  :   -42.1691295 Eh     change       -0.5022620E-02 Eh
 * total energy  :   -42.1718042 Eh     change       -0.2674702E-02 Eh
 * total energy  :   -42.1723414 Eh     change       -0.5372177E-03 Eh
 * total energy  :   -42.1736350 Eh     change       -0.1293589E-02 Eh
 * total energy  :   -42.1744818 Eh     change       -0.8467305E-03 Eh
 * total energy  :   -42.1753307 Eh     change       -0.8489792E-03 Eh
 * total energy  :   -42.1759869 Eh     change       -0.6561116E-03 Eh
 * total energy  :   -42.1762861 Eh     change       -0.2992092E-03 Eh
 * total energy  :   -42.1766088 Eh     change       -0.3226957E-03 Eh
 * total energy  :   -42.1769409 Eh     change       -0.3321390E-03 Eh
 * total energy  :   -42.1772684 Eh     change       -0.3274888E-03 Eh
 * total energy  :   -42.1775981 Eh     change       -0.3297317E-03 Eh
 * total energy  :   -42.1778854 Eh     change       -0.2872944E-03 Eh
   *** GEOMETRY OPTIMIZATION CONVERGED AFTER 16 ITERATIONS ***

 final structure:
================
25
 xtb: 6.6.1 (8d0f1dd)
C            3.06526225719089        1.24112805434077        0.14732277709404
N            2.14396636913657        0.14053665939500        0.05086360426044
C            2.42920470479291       -1.14511586644092       -0.17192372622578
N            1.28521931888792       -1.86986757376338       -0.15492860510702
C            0.25067675987860       -1.00680662443925        0.08786642003704
C            0.79680970427856        0.24715145825080        0.22303692828094
C           -0.05196927200602        1.46493927836547        0.52545541378733
O            0.38291867164145        2.59498403193210        0.14688008307030
N           -1.42466980818852        1.07020221667197       -0.15516151072199
C           -2.11479872921207        2.05493133509762       -0.67768831680217
C           -1.98579940493815       -0.22790114178689       -0.10190271673156
O           -3.16322747466198       -0.41717061570063       -0.26369693039206
N           -1.08636170592817       -1.27049300282195        0.11049035433255
C           -1.58661834886713       -2.63045635408901        0.13465112145186
H            3.53788184786202        1.25161950440789        1.13359591616364
H            3.83914646186988        1.16046837095480       -0.61494330569356
H            2.50270190065183        2.16938723789257        0.01277625199474
H            3.40776600210564       -1.54484255352549       -0.34929557730457
H           -1.66112137398395        3.03244566582347       -0.66268367669237
H           -3.08671462099824        1.85880911730275       -1.10056355939588
H           -0.35345362394276        1.41308810907130        1.60395358189613
H           -1.13855050459595       -3.17748776407597        0.96358964545369
H           -1.38042380511538       -3.14220565721591       -0.80783730804667
H           -2.66600035097395       -2.58559839875877        0.27329989158201
H            1.21858653921650       -2.86350694528749       -0.32198513839115

          :  Hamiltonian                  GFN2-xTB          :
         :: total energy             -42.177885413947 Eh    ::
         :: gradient norm              0.008092289806 Eh/a0 ::
         :: HOMO-LUMO gap              1.913023646037 eV    ::
         :: SCC energy               -42.684539946717 Eh    ::
         :: -> dispersion             -0.022915387218 Eh    ::
         :: repulsion energy           0.506488648690 Eh    ::

    * Orbital Energies and Occupations

         #    Occupation            Energy/Eh            Energy/eV
      -------------------------------------------------------------
         1        2.0000           -0.9087148             -24.7274
       ...           ...                  ...                  ...
        25        1.9993           -0.6759106             -18.3925
        26        1.9991           -0.6688507             -18.2004
        27        1.9983           -0.6536689             -17.7872
        28        1.9961           -0.6342807             -17.2597
        29        1.9956           -0.6316759             -17.1888
        30        1.9949           -0.6282486             -17.0955
        31        1.9927           -0.6194557             -16.8562
        32        1.9922           -0.6179867             -16.8163
        33        1.9902           -0.6124159             -16.6647
        34        1.9737           -0.5889011             -16.0248
        35        1.9063           -0.5578623             -15.1802
        36        1.8497           -0.5459368             -14.8557
        37        1.7068           -0.5281489             -14.3717 (HOMO)
        38        0.4635           -0.4578466             -12.4586 (LUMO)
        39        0.1108           -0.4189615             -11.4005
        40        0.0291           -0.3861543             -10.5078
        41        0.0041           -0.3394733              -9.2375
        42        0.0001           -0.2367512              -6.4423
        43        0.0000           -0.1963330              -5.3425
        44        0.0000           -0.1806412              -4.9155
        45        0.0000           -0.1535299              -4.1778
        46                         -0.0809408              -2.2025
        47                         -0.0696222              -1.8945
        48                         -0.0494267              -1.3450
       ...                                ...                  ...
        67                          0.5044522              13.7268
      -------------------------------------------------------------
                  HL-Gap            0.0703023 Eh            1.9130 eV

     #   Z          covCN         q      C6AA      α(0)
     1   6 C        3.691    -0.093    22.478     6.785
     2   7 N        2.838     0.083    19.797     6.608
     3   6 C        3.059     0.041    27.014     8.523
     4   7 N        2.797    -0.062    22.433     7.035
     5   6 C        3.043     0.098    25.792     8.330
     6   6 C        3.120    -0.008    28.043     8.673
     7   6 C        3.650     0.216    17.490     6.007
     8   8 O        0.856    -0.439    22.477     6.356
     9   7 N        2.719    -0.054    22.293     7.012
    10   6 C        2.797     0.008    27.836     8.643
    11   6 C        2.734     0.309    21.749     7.635
    12   8 O        0.858    -0.339    20.504     6.071
    13   7 N        2.737    -0.056    22.324     7.017
    14   6 C        3.698    -0.070    22.023     6.712
    15   1 H        0.924     0.109     1.703     2.041
    16   1 H        0.925     0.106     1.729     2.056
    17   1 H        0.924     0.145     1.423     1.865
    18   1 H        0.926     0.123     1.585     1.969
    19   1 H        0.926     0.150     1.393     1.845
    20   1 H        0.926     0.135     1.498     1.914
    21   1 H        0.920     0.070     2.083     2.257
    22   1 H        0.925     0.087     1.906     2.159
    23   1 H        0.924     0.086     1.916     2.165
    24   1 H        0.925     0.126     1.569     1.959
    25   1 H        0.860     0.228     0.972     1.544

Wiberg/Mayer (AO) data.
largest (>0.10) Wiberg bond orders for each atom

     #   Z sym  total        # sym  WBO       # sym  WBO       # sym  WBO
 ---------------------------------------------------------------------------
     1   6 C    3.897 --     2 N    0.986    16 H    0.964    15 H    0.951
                            17 H    0.947
     2   7 N    3.665 --     3 C    1.344     6 C    1.205     1 C    0.986
     3   6 C    3.785 --     2 N    1.344     4 N    1.270    18 H    0.953
     4   7 N    3.552 --     3 C    1.270     5 C    1.177    25 H    0.920
     5   6 C    3.897 --     6 C    1.407     4 N    1.177    13 N    1.143
     6   6 C    3.820 --     5 C    1.407     2 N    1.205     7 C    0.936
     7   6 C    3.938 --     8 O    1.315     6 C    0.936    21 H    0.862
                             9 N    0.751
     8   8 O    1.501 --     7 C    1.315
     9   7 N    3.495 --    10 C    1.504    11 C    1.022     7 C    0.751
    10   6 C    3.474 --     9 N    1.504    20 H    0.950    19 H    0.945
    11   6 C    3.874 --    12 O    1.687    13 N    1.085     9 N    1.022
    12   8 O    1.969 --    11 C    1.687    13 N    0.125
    13   7 N    3.473 --     5 C    1.143    11 C    1.085    14 C    0.977
                            12 O    0.125
    14   6 C    3.914 --    13 N    0.977    22 H    0.969    23 H    0.963
                            24 H    0.962
    15   1 H    0.980 --     1 C    0.951
    16   1 H    0.983 --     1 C    0.964
    17   1 H    0.974 --     1 C    0.947
    18   1 H    0.983 --     3 C    0.953
    19   1 H    0.973 --    10 C    0.945
    20   1 H    0.975 --    10 C    0.950
    21   1 H    0.915 --     7 C    0.862
    22   1 H    0.984 --    14 C    0.969
    23   1 H    0.981 --    14 C    0.963
    24   1 H    0.980 --    14 C    0.962
    25   1 H    0.947 --     4 N    0.920
 ---------------------------------------------------------------------------

molecular dipole:
                 x           y           z       tot (Debye)
 q only:        2.004      -1.912      -0.091
   full:        2.115      -2.363      -0.026       8.061

           -------------------------------------------------
          | TOTAL ENERGY              -42.177885413947 Eh   |
          | GRADIENT NORM               0.008092289806 Eh/α |
          | HOMO-LUMO GAP               1.913023646037 eV   |
           -------------------------------------------------

 * finished run on 2024/06/05 at 19:59:01.163
