   * xtb version 6.6.1 (8d0f1dd) compiled by 'conda@1efc2f54142f' on 2023-08-01
          program call               : xtb struc.xyz --opt loose --input .xc1 --gfn2

   ID    Z sym.   atoms
    1    7 N      1, 17
    2    6 C      2-6, 8, 9, 11-16, 18-23, 25, 26, 28-33
    3    8 O      7, 10, 24, 27
    4    1 H      34-72
constraining bond 3 5 to    5.0000000 Å, actual value:    2.5247967 Å

          :  Hamiltonian                  GFN2-xTB          :
 * total energy  :   -98.3102012 Eh     change       -0.4035485E-08 Eh
 * total energy  :   -98.5703105 Eh     change       -0.2601093E+00 Eh
 * total energy  :   -98.7267519 Eh     change       -0.1564414E+00 Eh
 * total energy  :   -98.8384894 Eh     change       -0.1117374E+00 Eh
 * total energy  :   -98.9308873 Eh     change       -0.9239791E-01 Eh
 * total energy  :   -98.9993668 Eh     change       -0.6847957E-01 Eh
 * total energy  :   -99.0514699 Eh     change       -0.5210312E-01 Eh
 * total energy  :   -99.1079325 Eh     change       -0.5646254E-01 Eh
 * total energy  :   -99.1662070 Eh     change       -0.5827449E-01 Eh
 * total energy  :   -99.1911662 Eh     change       -0.2495921E-01 Eh
 * total energy  :   -99.3702079 Eh     change       -0.8908402E-04 Eh
 * total energy  :   -99.3703054 Eh     change       -0.9753217E-04 Eh
 * total energy  :   -99.3703928 Eh     change       -0.8741542E-04 Eh
 * total energy  :   -99.3704356 Eh     change       -0.4278784E-04 Eh
 * total energy  :   -99.3705356 Eh     change       -0.9996222E-04 Eh
 * total energy  :   -99.3705986 Eh     change       -0.6307895E-04 Eh
 * total energy  :   -99.3706619 Eh     change       -0.6329372E-04 Eh
 * total energy  :   -99.3707135 Eh     change       -0.5151272E-04 Eh
 * total energy  :   -99.3707396 Eh     change       -0.2618241E-04 Eh
   *** GEOMETRY OPTIMIZATION CONVERGED AFTER 94 ITERATIONS ***

 final structure:
================
72
 xtb: 6.6.1 (8d0f1dd)
N           -3.40598023702350        2.62943064580118        2.57464931452301
C           -2.55063725424872        2.52827389951931        1.61328218134693
C           -2.64609699637805        3.25538962189306        0.42386146687777
C           -4.27197456918842       -0.27215838884312        0.15204013152022
C           -4.84909774693773       -1.05237305869969       -0.83889630603057
C           -5.20864105847941       -2.36828573523869       -0.57795891651106
O           -5.77733576302959       -3.21550778937226       -1.45584652613359
C           -6.10499662231391       -2.75715809815256       -2.74656355252729
C           -4.97757597304275       -2.90969307520956        0.71906489439592
O           -5.36265535739809       -4.18961635896417        0.87999802622496
C           -5.21527072863179       -4.80185621300900        2.14007339337470
C           -4.39669788980643       -2.11074503957574        1.69515680261596
C           -4.04696846484329       -0.79986288756687        1.41029846118312
C           -1.60574375069818        3.06222923628974       -0.63832418023845
C           -1.00719070113652        1.69268240408546       -0.65603081862852
C            0.27041237013000        1.44816524660399       -0.31270468879880
N            0.87865937786965        0.23506948292760       -0.25928602044636
C            2.29619593116306        0.14492060849480       -0.03973508089736
C            3.10273609449782        0.06123939681249       -1.35507802270494
C            4.57228482675029        0.08420243862988       -1.05513344291041
C            5.28834918343982        1.27207468564102       -1.09884792292280
C            6.63777048642792        1.30237122702972       -0.78633670779329
C            7.30321426904849        0.14214178991013       -0.41217527510558
O            8.60445925388996        0.05184992198408       -0.08914872703278
C            9.40992723844281        1.20760567671181       -0.13411042097575
C            6.57606878369405       -1.08160303713691       -0.35683955531658
O            7.29515086280261       -2.15602598476792        0.01888326409732
C            6.67356655781303       -3.41741763056151        0.08306397541050
C            5.22739930066783       -1.08624227541216       -0.67919839718162
C            0.18452294397630       -0.94751812360316       -0.69972390394015
C           -3.71704602361541        4.27589175980894        0.20725460473061
C           -5.10214918979521        3.61485119746896        0.18957136581950
C           -3.67402346371316        5.35052088582893        1.30001164911371
H           -5.02573119795020       -0.62486359163450       -1.81301298196426
H           -6.82120125407276       -1.93100525832483       -2.70710944487193
H           -6.56126173954189       -3.60690668933321       -3.25074558146548
H           -5.21445364194862       -2.44321770177043       -3.29978404365727
H           -5.79889475772489       -4.28398665547448        2.90716639403412
H           -5.59613146635576       -5.81407357328394        2.01879166416477
H           -4.16544013030189       -4.84337005449270        2.44597674751587
H           -4.22316030181794       -2.50163366437717        2.68458579137412
H           -3.60911206009494       -0.18724344200899        2.18187979427191
H           -2.05896486674732        3.27347259913605       -1.61228973570303
H           -0.81622624216084        3.80958052164463       -0.48785909035599
H           -4.01114215747683        0.75414338203906       -0.05424799178086
H           -1.66982724094394        0.89382295721367       -0.94951447351650
H           -1.68648556817789        1.85237317884644        1.68041307597216
H            0.90470678152687        2.27373717324404       -0.01585079810482
H            2.50717161619549       -0.74096639155627        0.56694079368490
H            2.62656423227600        1.02321422650995        0.51930610724519
H            2.83494159739952        0.91168945412883       -1.98398021796973
H            2.83785365714090       -0.85632765529555       -1.88244472668031
H            4.79556687920768        2.18720444161566       -1.38987878745006
H            7.16747983439205        2.23954189656644       -0.83783819152531
H            9.06549741651222        1.96283227332459        0.57868617818077
H            9.43617768077626        1.63809406706936       -1.13937727295320
H           10.40910745434399        0.87797617300014        0.14393337893508
H            7.44996337521623       -4.10994640867994        0.40286513781554
H            5.85834916118782       -3.42659863357345        0.81361941204648
H            6.29303244962579       -3.72661061262818       -0.89530601004571
H            4.67122762126425       -2.01012270506186       -0.65068840060880
H           -0.01977191364226       -0.91655144771573       -1.77455452149617
H           -0.76632291545381       -1.04435012906213       -0.17205037880078
H            0.79020771373804       -1.82432749530117       -0.48370251647184
H           -3.55022942290265        4.76098398683657       -0.76159866561112
H           -5.27383720177659        3.10714188442075        1.13429997778359
H           -5.17790181540278        2.89550231180603       -0.62318855228502
H           -5.86809512277096        4.37295381089367        0.05060181829370
H           -3.86084483801675        4.89305537437332        2.26752802355502
H           -2.70246401547585        5.83933830417638        1.32036948399149
H           -4.43645819643924        6.10071648991197        1.10854845756820
H           -3.22800949664168        2.09602069645715        3.41550392457651

          :  Hamiltonian                  GFN2-xTB          :
         :: total energy             -99.370739639761 Eh    ::
         :: gradient norm              0.001494706892 Eh/a0 ::
         :: HOMO-LUMO gap              0.661234697587 eV    ::
         :: SCC energy              -100.776569909425 Eh    ::
         :: -> dispersion             -0.066664894904 Eh    ::
         :: repulsion energy           1.405295886223 Eh    ::

    * Orbital Energies and Occupations

         #    Occupation            Energy/Eh            Energy/eV
      -------------------------------------------------------------
         1        2.0000           -0.8099251             -22.0392
       ...           ...                  ...                  ...
        78        1.9971           -0.5284620             -14.3802
        79        1.9966           -0.5255519             -14.3010
        80        1.9952           -0.5204245             -14.1615
        81        1.9949           -0.5194066             -14.1338
        82        1.9939           -0.5165298             -14.0555
        83        1.9939           -0.5163598             -14.0509
        84        1.9903           -0.5091517             -13.8547
        85        1.9674           -0.4897279             -13.3262
        86        1.9665           -0.4892935             -13.3144
        87        1.8502           -0.4646110             -12.6427
        88        1.7859           -0.4583921             -12.4735
        89        1.7753           -0.4575333             -12.4501
        90        1.6667           -0.4502887             -12.2530 (HOMO)
        91        1.0373           -0.4259888             -11.5917 (LUMO)
        92        0.0018           -0.3139910              -8.5441
        93        0.0016           -0.3116444              -8.4803
        94        0.0016           -0.3114759              -8.4757
        95        0.0013           -0.3090574              -8.4099
        96        0.0004           -0.2915736              -7.9341
        97        0.0002           -0.2761905              -7.5155
        98        0.0000           -0.1885512              -5.1307
        99        0.0000           -0.1838926              -5.0040
       100                         -0.1051434              -2.8611
       101                         -0.0624217              -1.6986
       ...                                ...                  ...
       171                          0.5817229              15.8295
      -------------------------------------------------------------
                  HL-Gap            0.0242999 Eh            0.6612 eV

     #   Z          covCN         q      C6AA      α(0)
     1   7 N        1.781    -0.286    28.247     7.871
     2   6 C        2.820     0.074    26.339     8.409
     3   6 C        2.957     0.010    27.782     8.645
     4   6 C        2.917    -0.039    28.970     8.826
     5   6 C        2.914    -0.067    29.666     8.932
     6   6 C        2.864     0.135    25.043     8.203
     7   8 O        1.706    -0.220    17.657     5.673
     8   6 C        3.645     0.025    20.483     6.505
     9   6 C        2.864     0.136    25.037     8.202
    10   8 O        1.706    -0.220    17.651     5.672
    11   6 C        3.645     0.025    20.489     6.506
    12   6 C        2.914    -0.066    29.641     8.928
    13   6 C        2.918    -0.037    28.918     8.818
    14   6 C        3.811    -0.063    21.699     6.631
    15   6 C        2.892    -0.068    29.682     8.932
    16   6 C        2.843     0.009    27.800     8.641
    17   7 N        2.732    -0.039    22.002     6.966
    18   6 C        3.752    -0.009    20.787     6.502
    19   6 C        3.807    -0.071    21.859     6.656
    20   6 C        2.968     0.007    27.852     8.657
    21   6 C        2.922    -0.044    29.105     8.847
    22   6 C        2.913    -0.065    29.628     8.926
    23   6 C        2.864     0.135    25.038     8.202
    24   8 O        1.706    -0.215    17.578     5.661
    25   6 C        3.645     0.023    20.517     6.510
    26   6 C        2.862     0.135    25.043     8.203
    27   8 O        1.706    -0.219    17.634     5.670
    28   6 C        3.645     0.026    20.479     6.504
    29   6 C        2.919    -0.077    29.921     8.970
    30   6 C        3.699    -0.059    21.798     6.677
    31   6 C        3.853    -0.004    20.617     6.458
    32   6 C        3.757    -0.110    22.665     6.788
    33   6 C        3.757    -0.113    22.711     6.795
    34   1 H        0.926     0.053     2.285     2.364
    35   1 H        0.924     0.058     2.227     2.334
    36   1 H        0.925     0.083     1.950     2.184
    37   1 H        0.924     0.053     2.286     2.365
    38   1 H        0.924     0.058     2.219     2.329
    39   1 H        0.925     0.083     1.950     2.184
    40   1 H        0.924     0.054     2.274     2.358
    41   1 H        0.926     0.056     2.247     2.344
    42   1 H        0.926     0.048     2.345     2.395
    43   1 H        0.924     0.069     2.097     2.265
    44   1 H        0.924     0.069     2.096     2.264
    45   1 H        0.926     0.050     2.319     2.381
    46   1 H        0.926     0.045     2.377     2.411
    47   1 H        0.923     0.015     2.806     2.620
    48   1 H        0.925     0.052     2.292     2.368
    49   1 H        0.924     0.057     2.235     2.338
    50   1 H        0.924     0.061     2.186     2.312
    51   1 H        0.924     0.055     2.258     2.350
    52   1 H        0.924     0.055     2.258     2.350
    53   1 H        0.926     0.052     2.298     2.370
    54   1 H        0.926     0.061     2.186     2.312
    55   1 H        0.924     0.058     2.226     2.333
    56   1 H        0.924     0.059     2.214     2.327
    57   1 H        0.925     0.084     1.934     2.175
    58   1 H        0.925     0.084     1.942     2.180
    59   1 H        0.924     0.052     2.294     2.369
    60   1 H        0.924     0.055     2.253     2.347
    61   1 H        0.926     0.051     2.303     2.373
    62   1 H        0.924     0.061     2.186     2.312
    63   1 H        0.924     0.065     2.147     2.291
    64   1 H        0.925     0.067     2.123     2.278
    65   1 H        0.924     0.044     2.400     2.423
    66   1 H        0.925     0.071     2.079     2.255
    67   1 H        0.925     0.037     2.496     2.470
    68   1 H        0.925     0.056     2.241     2.341
    69   1 H        0.925     0.073     2.049     2.238
    70   1 H        0.925     0.041     2.442     2.444
    71   1 H        0.925     0.056     2.242     2.342
    72   1 H        0.860     0.150     1.401     1.854

Wiberg/Mayer (AO) data.
largest (>0.10) Wiberg bond orders for each atom

     #   Z sym  total        # sym  WBO       # sym  WBO       # sym  WBO
 ---------------------------------------------------------------------------
     1   7 N    2.629 --     2 C    1.615    72 H    0.945
     2   6 C    3.913 --     1 N    1.615     3 C    1.327    47 H    0.920
     3   6 C    3.489 --     2 C    1.327    31 C    1.030    14 C    1.022
     4   6 C    3.932 --    13 C    1.423     5 C    1.417    45 H    0.963
     5   6 C    3.952 --     4 C    1.417     6 C    1.379    34 H    0.963
     6   6 C    3.878 --     5 C    1.379     9 C    1.214     7 O    1.110
     7   8 O    2.246 --     6 C    1.110     8 C    0.977
     8   6 C    3.927 --     7 O    0.977    36 H    0.977    37 H    0.972
                            35 H    0.972
     9   6 C    3.878 --    12 C    1.379     6 C    1.214    10 O    1.111
    10   8 O    2.246 --     9 C    1.111    11 C    0.976
    11   6 C    3.927 --    39 H    0.977    10 O    0.976    40 H    0.972
                            38 H    0.971
    12   6 C    3.951 --    13 C    1.418     9 C    1.379    41 H    0.963
    13   6 C    3.934 --     4 C    1.423    12 C    1.418    42 H    0.967
    14   6 C    3.977 --    15 C    1.026     3 C    1.022    43 H    0.942
                            44 H    0.929
    15   6 C    3.800 --    16 C    1.665    14 C    1.026    46 H    0.961
    16   6 C    3.927 --    15 C    1.665    17 N    1.216    48 H    0.955
    17   7 N    3.365 --    16 C    1.216    30 C    1.007    18 C    1.006
    18   6 C    3.960 --    17 N    1.006    50 H    0.968    49 H    0.965
                            19 C    0.960
    19   6 C    3.972 --    20 C    1.014    51 H    0.972    52 H    0.969
                            18 C    0.960
    20   6 C    3.928 --    21 C    1.395    29 C    1.381    19 C    1.014
    21   6 C    3.931 --    22 C    1.423    20 C    1.395    53 H    0.967
    22   6 C    3.950 --    21 C    1.423    23 C    1.375    54 H    0.962
    23   6 C    3.875 --    22 C    1.375    26 C    1.209    24 O    1.117
    24   8 O    2.249 --    23 C    1.117    25 C    0.975
    25   6 C    3.925 --    57 H    0.976    24 O    0.975    56 H    0.971
                            55 H    0.971
    26   6 C    3.882 --    29 C    1.390    23 C    1.209    27 O    1.110
    27   8 O    2.250 --    26 C    1.110    28 C    0.977
    28   6 C    3.929 --    27 O    0.977    58 H    0.976    59 H    0.972
                            60 H    0.972
    29   6 C    3.951 --    26 C    1.390    20 C    1.381    61 H    0.962
    30   6 C    3.966 --    17 N    1.007    64 H    0.980    63 H    0.971
                            62 H    0.967
    31   6 C    3.968 --     3 C    1.030    33 C    0.973    32 C    0.970
                            65 H    0.960
    32   6 C    3.946 --    67 H    0.984    68 H    0.978    66 H    0.975
                            31 C    0.970
    33   6 C    3.945 --    70 H    0.985    71 H    0.978    31 C    0.973
                            69 H    0.971
    34   1 H    0.995 --     5 C    0.963
    35   1 H    0.990 --     8 C    0.972
    36   1 H    0.992 --     8 C    0.977
    37   1 H    0.990 --     8 C    0.972
    38   1 H    0.990 --    11 C    0.971
    39   1 H    0.992 --    11 C    0.977
    40   1 H    0.990 --    11 C    0.972
    41   1 H    0.995 --    12 C    0.963
    42   1 H    0.996 --    13 C    0.967
    43   1 H    0.975 --    14 C    0.942
    44   1 H    0.961 --    14 C    0.929
    45   1 H    0.996 --     4 C    0.963
    46   1 H    0.996 --    15 C    0.961
    47   1 H    0.961 --     2 C    0.920
    48   1 H    0.997 --    16 C    0.955
    49   1 H    0.990 --    18 C    0.965
    50   1 H    0.995 --    18 C    0.968
    51   1 H    0.995 --    19 C    0.972
    52   1 H    0.994 --    19 C    0.969
    53   1 H    0.996 --    21 C    0.967
    54   1 H    0.994 --    22 C    0.962
    55   1 H    0.989 --    25 C    0.971
    56   1 H    0.989 --    25 C    0.971
    57   1 H    0.992 --    25 C    0.976
    58   1 H    0.992 --    28 C    0.976
    59   1 H    0.991 --    28 C    0.972
    60   1 H    0.991 --    28 C    0.972
    61   1 H    0.996 --    29 C    0.962
    62   1 H    0.983 --    30 C    0.967
    63   1 H    0.988 --    30 C    0.971
    64   1 H    0.995 --    30 C    0.980
    65   1 H    0.989 --    31 C    0.960
    66   1 H    0.990 --    32 C    0.975
    67   1 H    0.996 --    32 C    0.984
    68   1 H    0.991 --    32 C    0.978
    69   1 H    0.989 --    33 C    0.971
    70   1 H    0.995 --    33 C    0.985
    71   1 H    0.991 --    33 C    0.978
    72   1 H    0.965 --     1 N    0.945
 ---------------------------------------------------------------------------

molecular dipole:
                 x           y           z       tot (Debye)
 q only:        0.705      -0.186      -0.470
   full:        0.982      -0.224      -0.493       2.852

           -------------------------------------------------
          | TOTAL ENERGY              -99.370739639761 Eh   |
          | GRADIENT NORM               0.001494706892 Eh/α |
          | HOMO-LUMO GAP               0.661234697587 eV   |
           -------------------------------------------------

 * finished run on 2024/04/06 at 11:11:58.654
