   * xtb version 6.6.1 (8d0f1dd) compiled by 'conda@1efc2f54142f' on 2023-08-01
          program call               : xtb xtbopt.xyz --opt crude --input .xc2 --gfn2

   ID    Z sym.   atoms
    1    7 N      1, 17
    2    6 C      2-6, 8, 9, 11-16, 18-23, 25, 26, 28-33
    3    8 O      7, 10, 24, 27
    4    1 H      34-72
########################################################################
[WARNING] Please study the warnings concerning your input carefully
-1- readin_getIntValue: could not parse ''
########################################################################

          :  Hamiltonian                  GFN2-xTB          :
 * total energy  :   -99.1882914 Eh     change       -0.1016076E-09 Eh
   *** GEOMETRY OPTIMIZATION CONVERGED AFTER 1 ITERATIONS ***

 final structure:
================
72
 xtb: 6.6.1 (8d0f1dd)
N           -1.72356222538149        2.84816138149521        2.20717612305882
C           -1.76785633628362        2.09676831063159        1.21034996476916
C           -2.96169749146138        1.94296836785106        0.30875231952594
C           -3.38802401339565        0.48397269706660        0.28142718029662
C           -4.31167673028552        0.04366821189083       -0.66896741160682
C           -4.76017891327798       -1.26658776424258       -0.68924777717640
O           -5.65781029302399       -1.77100617401663       -1.56184573137482
C           -6.28868668746749       -0.90882849796789       -2.47899877331907
C           -4.26606285097564       -2.19105441239423        0.27015427215843
O           -4.75766801754672       -3.44333877350027        0.17711527034784
C           -4.40281710286328       -4.39180723200456        1.15623789802586
C           -3.34899530079668       -1.74794460964553        1.20946258981878
C           -2.92091792779958       -0.42673897373261        1.21624835762708
C           -2.48674401886868        2.40356651254974       -1.09546138664212
C           -1.58768077144574        1.39778789273478       -1.83644895654512
C           -0.24878746553055        1.24660160307971       -1.22785083344292
N            0.37938050555066        0.09198674136537       -1.04675379966824
C            1.71474568738675        0.06341150162290       -0.49578016571518
C            2.79183703365378        0.00198462154840       -1.59105280303748
C            4.15597003849774       -0.17097900580932       -0.93798822239428
C            4.68646204993517        1.05392357952443       -0.33347599771771
C            5.76614485162422        1.16208405433063        0.45840225431068
C            6.70245336049961        0.09768913121315        0.78785177348753
O            7.37923448700057       -0.61569409914723       -0.18453185083724
C            7.65880977687470        0.03765685356208       -1.40479250471914
C            7.06855536204891       -0.06672172214172        2.07305666419431
O            7.58006926995339       -0.98675977612874        2.80066409339042
C            7.53903075056917       -2.36171935615003        2.39405783944832
C            4.68018394525059       -1.36666340031359       -0.87486041250515
C           -0.21798614099546       -1.17006225766366       -1.41316187254111
C           -4.18871718554987        2.79281956862165        0.75378927938186
C           -4.69069551834812        2.36581181524951        2.13113571926983
C           -3.91853384334616        4.29501712334457        0.74727048701111
H           -4.69976483315409        0.74230343305830       -1.39178797138959
H           -6.81818185428959       -0.09834748459632       -1.96919335139754
H           -7.00710152586293       -1.52743781657531       -3.01322890295493
H           -5.57407154830528       -0.48802471227177       -3.19407038251060
H           -4.68465351746911       -4.05681753176292        2.15885276346890
H           -4.96079195457281       -5.29202345870691        0.90646402014546
H           -3.33085493034994       -4.61272078850316        1.13258739500724
H           -2.97021606146664       -2.42180584782180        1.96065500946876
H           -2.23542812007589       -0.11214927945595        1.98783788337022
H           -3.36315594635967        2.58839881623842       -1.71612047082771
H           -1.95376113362255        3.34912309657515       -0.98905133651663
H           -2.09919688630245        0.43970602672014       -1.91035383200964
H           -1.45367714253409        1.78678949163223       -2.85434917894909
H           -0.90849292890984        1.49977467590220        0.85223938388261
H            0.30836779247561        2.14445517860666       -1.00578740824388
H            1.81122425841464       -0.81534491812626        0.14751771016917
H            1.87122599169848        0.95287721756066        0.11933006392082
H            2.76853209750484        0.91914327787854       -2.18249974691191
H            2.59573759209017       -0.84326405254015       -2.25050010028913
H            4.08897964634799        1.93942547404868       -0.50350019789312
H            5.94126984371255        2.10058817394616        0.96630676517958
H            8.18529298796746        0.97985190266910       -1.23252373292250
H            6.74665938823924        0.22948176432186       -1.97547267398893
H            8.30242975105493       -0.64180918559179       -1.96110304715938
H            7.84553078238163       -2.94956577669432        3.25631401092540
H            6.52942963393104       -2.63721312923113        2.08304364142474
H            8.22902985561080       -2.51508026818025        1.56245711323977
H            5.52912554128348       -1.92426562568530       -0.57122816631513
H           -0.49752971117934       -1.17906768985317       -2.46771753836297
H           -1.11061258180256       -1.36218338474521       -0.81106940695622
H            0.49736427188081       -1.96948690239857       -1.23966401902966
H           -4.98457778674494        2.58725257661042        0.02838100385700
H           -3.94101299910414        2.58360162677438        2.88514179111016
H           -4.91890249536024        1.30288469703884        2.15474545076861
H           -5.59584814296305        2.91516851632844        2.37568586451869
H           -3.09652390259504        4.53158425758455        1.41534232936012
H           -3.69054387650759        4.66336568143179       -0.24931897070488
H           -4.80456301797150        4.81666547748423        1.09944009993566
H           -0.85199922427400        2.89833210031429        2.72552939127864

          :  Hamiltonian                  GFN2-xTB          :
         :: total energy             -99.188291353210 Eh    ::
         :: gradient norm              0.003077528881 Eh/a0 ::
         :: HOMO-LUMO gap              0.149076270887 eV    ::
         :: SCC energy              -100.564827804019 Eh    ::
         :: -> dispersion             -0.075231958925 Eh    ::
         :: repulsion energy           1.375021100500 Eh    ::

    * Orbital Energies and Occupations

         #    Occupation            Energy/Eh            Energy/eV
      -------------------------------------------------------------
         1        2.0000           -0.8229075             -22.3925
       ...           ...                  ...                  ...
        78        1.9983           -0.5272654             -14.3476
        79        1.9982           -0.5266133             -14.3299
        80        1.9975           -0.5209836             -14.1767
        81        1.9974           -0.5205837             -14.1658
        82        1.9959           -0.5133054             -13.9678
        83        1.9953           -0.5109941             -13.9049
        84        1.9944           -0.5082330             -13.8297
        85        1.9827           -0.4902059             -13.3392
        86        1.9813           -0.4889914             -13.3061
        87        1.9379           -0.4696288             -12.7793
        88        1.9190           -0.4652469             -12.6600
        89        1.8752           -0.4580459             -12.4641
        90        1.0305           -0.4161055             -11.3228 (HOMO)
        91        0.8585           -0.4106271             -11.1737 (LUMO)
        92        0.3980           -0.3930908             -10.6965
        93        0.0256           -0.3463233              -9.4239
        94        0.0143           -0.3370433              -9.1714
        95        0.0036           -0.3151582              -8.5759
        96        0.0029           -0.3118711              -8.4864
        97        0.0005           -0.2852708              -7.7626
        98        0.0000           -0.2419821              -6.5847
        99        0.0000           -0.1894510              -5.1552
       100                         -0.1368457              -3.7238
       101                         -0.0669029              -1.8205
       ...                                ...                  ...
       171                          0.6897902              18.7701
      -------------------------------------------------------------
                  HL-Gap            0.0054785 Eh            0.1491 eV

     #   Z          covCN         q      C6AA      α(0)
     1   7 N        1.774    -0.271    27.850     7.815
     2   6 C        2.828     0.101    25.746     8.315
     3   6 C        3.907     0.006    20.415     6.422
     4   6 C        2.974     0.000    28.014     8.682
     5   6 C        2.920    -0.081    30.016     8.984
     6   6 C        2.862     0.128    25.182     8.225
     7   8 O        1.706    -0.231    17.838     5.702
     8   6 C        3.644     0.028    20.440     6.498
     9   6 C        2.864     0.128    25.194     8.228
    10   8 O        1.706    -0.230    17.812     5.698
    11   6 C        3.645     0.027    20.448     6.499
    12   6 C        2.914    -0.074    29.859     8.960
    13   6 C        2.922    -0.053    29.309     8.878
    14   6 C        3.813    -0.064    21.713     6.632
    15   6 C        3.802    -0.070    21.834     6.653
    16   6 C        2.844     0.007    27.847     8.648
    17   7 N        2.729     0.011    21.059     6.816
    18   6 C        3.756    -0.015    20.892     6.517
    19   6 C        3.813    -0.067    21.778     6.642
    20   6 C        2.942     0.021    27.545     8.608
    21   6 C        2.898    -0.038    28.954     8.823
    22   6 C        2.903    -0.052    29.287     8.873
    23   6 C        2.834     0.117    25.410     8.261
    24   8 O        1.703    -0.264    18.371     5.787
    25   6 C        3.641     0.032    20.383     6.492
    26   6 C        1.878     0.041    30.087     8.859
    27   8 O        1.703    -0.134    16.327     5.456
    28   6 C        3.647     0.010    20.741     6.544
    29   6 C        1.923    -0.119    34.414     9.474
    30   6 C        3.699    -0.070    22.011     6.710
    31   6 C        3.853    -0.007    20.672     6.467
    32   6 C        3.756    -0.117    22.802     6.809
    33   6 C        3.755    -0.120    22.858     6.817
    34   1 H        0.926     0.051     2.308     2.376
    35   1 H        0.924     0.053     2.279     2.361
    36   1 H        0.925     0.081     1.971     2.196
    37   1 H        0.924     0.046     2.366     2.405
    38   1 H        0.924     0.055     2.264     2.353
    39   1 H        0.925     0.081     1.972     2.196
    40   1 H        0.924     0.048     2.346     2.395
    41   1 H        0.926     0.052     2.301     2.372
    42   1 H        0.926     0.039     2.466     2.456
    43   1 H        0.925     0.061     2.185     2.312
    44   1 H        0.924     0.055     2.263     2.353
    45   1 H        0.925     0.067     2.116     2.275
    46   1 H        0.924     0.079     1.990     2.206
    47   1 H        0.922     0.003     3.001     2.709
    48   1 H        0.926     0.069     2.096     2.264
    49   1 H        0.924     0.069     2.093     2.262
    50   1 H        0.924     0.064     2.158     2.297
    51   1 H        0.924     0.053     2.288     2.365
    52   1 H        0.925     0.058     2.218     2.329
    53   1 H        0.925     0.044     2.395     2.420
    54   1 H        0.925     0.067     2.118     2.276
    55   1 H        0.924     0.052     2.294     2.369
    56   1 H        0.924     0.049     2.332     2.388
    57   1 H        0.925     0.074     2.042     2.235
    58   1 H        0.925     0.087     1.910     2.161
    59   1 H        0.924     0.063     2.168     2.303
    60   1 H        0.924     0.082     1.963     2.191
    61   1 H        0.927     0.082     1.956     2.187
    62   1 H        0.924     0.078     2.003     2.213
    63   1 H        0.924     0.077     2.007     2.215
    64   1 H        0.925     0.084     1.939     2.178
    65   1 H        0.924     0.037     2.495     2.470
    66   1 H        0.925     0.066     2.134     2.285
    67   1 H        0.925     0.035     2.523     2.484
    68   1 H        0.925     0.051     2.310     2.377
    69   1 H        0.925     0.064     2.150     2.293
    70   1 H        0.925     0.035     2.517     2.481
    71   1 H        0.925     0.054     2.268     2.355
    72   1 H        0.860     0.155     1.367     1.831

Wiberg/Mayer (AO) data.
largest (>0.10) Wiberg bond orders for each atom

     #   Z sym  total        # sym  WBO       # sym  WBO       # sym  WBO
 ---------------------------------------------------------------------------
     1   7 N    3.035 --     2 C    1.954    72 H    0.942
     2   6 C    3.931 --     1 N    1.954     3 C    0.994    47 H    0.906
     3   6 C    3.976 --     2 C    0.994     4 C    0.974    14 C    0.954
                            31 C    0.943
     4   6 C    3.950 --    13 C    1.415     5 C    1.368     3 C    0.974
     5   6 C    3.963 --     6 C    1.401     4 C    1.368    34 H    0.958
     6   6 C    3.906 --     5 C    1.401     9 C    1.223     7 O    1.097
     7   8 O    2.253 --     6 C    1.097     8 C    0.978
     8   6 C    3.933 --     7 O    0.978    36 H    0.977    35 H    0.974
                            37 H    0.974
     9   6 C    3.902 --    12 C    1.392     6 C    1.223    10 O    1.100
    10   8 O    2.251 --     9 C    1.100    11 C    0.978
    11   6 C    3.932 --    10 O    0.978    39 H    0.977    38 H    0.974
                            40 H    0.974
    12   6 C    3.963 --    13 C    1.405     9 C    1.392    41 H    0.964
    13   6 C    3.955 --     4 C    1.415    12 C    1.405    42 H    0.962
    14   6 C    3.972 --    15 C    0.981    44 H    0.972    43 H    0.967
                             3 C    0.954
    15   6 C    3.988 --    16 C    1.061    14 C    0.981    45 H    0.960
                            46 H    0.928
    16   6 C    3.587 --    17 N    1.406    15 C    1.061    48 H    0.957
    17   7 N    3.478 --    16 C    1.406    30 C    0.998    18 C    0.985
    18   6 C    3.957 --    17 N    0.985    19 C    0.973    50 H    0.967
                            49 H    0.964
    19   6 C    3.936 --    52 H    0.975    18 C    0.973    51 H    0.970
                            20 C    0.961
    20   6 C    3.953 --    29 C    1.890    21 C    1.051    19 C    0.961
    21   6 C    3.843 --    22 C    1.743    20 C    1.051    53 H    0.958
    22   6 C    3.946 --    21 C    1.743    23 C    1.080    54 H    0.948
    23   6 C    3.782 --    26 C    1.558    22 C    1.080    24 O    1.015
    24   8 O    2.141 --    23 C    1.015    25 C    0.973
    25   6 C    3.931 --    57 H    0.975    55 H    0.975    56 H    0.974
                            24 O    0.973
    26   6 C    3.119 --    23 C    1.558    27 O    1.345
    27   8 O    2.358 --    26 C    1.345    28 C    0.916
    28   6 C    3.887 --    58 H    0.979    59 H    0.976    60 H    0.968
                            27 O    0.916
    29   6 C    3.018 --    20 C    1.890    61 H    0.951
    30   6 C    3.957 --    17 N    0.998    64 H    0.977    62 H    0.969
                            63 H    0.962
    31   6 C    3.973 --    33 C    1.008    32 C    1.008    65 H    0.961
                             3 C    0.943
    32   6 C    3.981 --    31 C    1.008    67 H    0.982    68 H    0.982
                            66 H    0.975
    33   6 C    3.981 --    31 C    1.008    70 H    0.983    71 H    0.980
                            69 H    0.975
    34   1 H    0.996 --     5 C    0.958
    35   1 H    0.994 --     8 C    0.974
    36   1 H    0.993 --     8 C    0.977
    37   1 H    0.994 --     8 C    0.974
    38   1 H    0.993 --    11 C    0.974
    39   1 H    0.993 --    11 C    0.977
    40   1 H    0.993 --    11 C    0.974
    41   1 H    0.996 --    12 C    0.964
    42   1 H    0.998 --    13 C    0.962
    43   1 H    0.994 --    14 C    0.967
    44   1 H    0.996 --    14 C    0.972
    45   1 H    0.994 --    15 C    0.960
    46   1 H    0.970 --    15 C    0.928
    47   1 H    0.987 --     2 C    0.906
    48   1 H    0.995 --    16 C    0.957
    49   1 H    0.990 --    18 C    0.964
    50   1 H    0.994 --    18 C    0.967
    51   1 H    0.996 --    19 C    0.970
    52   1 H    0.996 --    19 C    0.975
    53   1 H    0.989 --    21 C    0.958
    54   1 H    0.984 --    22 C    0.948
    55   1 H    0.990 --    25 C    0.975
    56   1 H    0.993 --    25 C    0.974
    57   1 H    0.992 --    25 C    0.975
    58   1 H    0.992 --    28 C    0.979
    59   1 H    0.992 --    28 C    0.976
    60   1 H    0.983 --    28 C    0.968
    61   1 H    0.976 --    29 C    0.951
    62   1 H    0.986 --    30 C    0.969
    63   1 H    0.985 --    30 C    0.962
    64   1 H    0.993 --    30 C    0.977
    65   1 H    0.993 --    31 C    0.961
    66   1 H    0.992 --    32 C    0.975
    67   1 H    0.997 --    32 C    0.982
    68   1 H    0.994 --    32 C    0.982
    69   1 H    0.992 --    33 C    0.975
    70   1 H    0.997 --    33 C    0.983
    71   1 H    0.994 --    33 C    0.980
    72   1 H    0.971 --     1 N    0.942
 ---------------------------------------------------------------------------

molecular dipole:
                 x           y           z       tot (Debye)
 q only:        1.051      -0.276      -0.997
   full:        1.439      -0.375      -1.235       4.912

           -------------------------------------------------
          | TOTAL ENERGY              -99.188291353210 Eh   |
          | GRADIENT NORM               0.003077528881 Eh/α |
          | HOMO-LUMO GAP               0.149076270887 eV   |
           -------------------------------------------------

 * finished run on 2024/04/06 at 11:14:44.028
