   * xtb version 6.6.1 (8d0f1dd) compiled by 'conda@1efc2f54142f' on 2023-08-01
          program call               : xtb xtbopt.xyz --opt crude --input .xc2 --gfn2

   ID    Z sym.   atoms
    1    6 C      1, 3, 5-7, 10, 11, 14
    2    7 N      2, 4, 9, 13
    3    8 O      8, 12
    4    1 H      15-25

          :  Hamiltonian                  GFN2-xTB          :
 * total energy  :   -42.1046103 Eh     change       -0.9805490E-12 Eh
   *** GEOMETRY OPTIMIZATION CONVERGED AFTER 1 ITERATIONS ***

 final structure:
================
25
 xtb: 6.6.1 (8d0f1dd)
C            3.28215295010727        1.09609026948569        0.00009653519532
N            2.33123921283842        0.01716135434470       -0.00904663430862
C            2.59984152053771       -1.28519968671532       -0.04006418865587
N            1.44567087339107       -1.99284348545308       -0.01307485061930
C            0.40931820023688       -1.10943174651904        0.03920124044216
C            0.96175783292925        0.16575605334410        0.04243202817982
C            0.16207733026942        1.35156399383115        0.07299968530508
O            0.53873138660253        2.50206055833977        0.03299225315231
N           -1.23839390509760        1.03477899979691        0.16681752413532
C           -2.09454431888853        2.06362437912554        0.24794773916154
C           -1.80469668183378       -0.27134891278966        0.15817671968617
O           -2.99163300605913       -0.43733968320945        0.21581312727361
N           -0.91798268940591       -1.34399603935714        0.07548465376542
C           -1.45069618537638       -2.69384958831881        0.04513237111496
H            3.77427773397976        1.15895490704020        0.97208023663552
H            4.03853350443463        0.94053349129352       -0.76780022127843
H            2.75318663665748        2.03040845961262       -0.18493322475123
H            3.58024827481010       -1.71576069715581       -0.08112234541231
H           -1.68179833649132        3.05675651014279        0.23600477141833
H           -3.97718998159281        3.47111443428378       -1.57842004260770
H           -3.14618966268144        1.85827813610804        0.32056950235235
H           -1.12358550181205       -3.25332667240276        0.92185222554204
H           -1.13707663307742       -3.20270188200761       -0.86641923590143
H           -2.53712835862258       -2.62247211514143        0.05661236326278
H            1.38431131824757       -3.00057249606100       -0.03216061517897

          :  Hamiltonian                  GFN2-xTB          :
         :: total energy             -42.104610250979 Eh    ::
         :: gradient norm              0.003538206689 Eh/a0 ::
         :: HOMO-LUMO gap              0.297282000248 eV    ::
         :: SCC energy               -42.624845641898 Eh    ::
         :: -> dispersion             -0.022712026636 Eh    ::
         :: repulsion energy           0.520144591699 Eh    ::

    * Orbital Energies and Occupations

         #    Occupation            Energy/Eh            Energy/eV
      -------------------------------------------------------------
         1        2.0000           -0.9114853             -24.8028
       ...           ...                  ...                  ...
        25        2.0000           -0.6712801             -18.2665
        26        2.0000           -0.6693078             -18.2128
        27        2.0000           -0.6631433             -18.0450
        28        1.9999           -0.6333019             -17.2330
        29        1.9999           -0.6300236             -17.1438
        30        1.9999           -0.6279286             -17.0868
        31        1.9998           -0.6191282             -16.8473
        32        1.9997           -0.6145711             -16.7233
        33        1.9997           -0.6131580             -16.6849
        34        1.9982           -0.5855968             -15.9349
        35        1.9940           -0.5668870             -15.4258
        36        1.9900           -0.5587566             -15.2045
        37        1.1116           -0.4784586             -13.0195 (HOMO)
        38        0.7712           -0.4675337             -12.7222 (LUMO)
        39        0.1159           -0.4307503             -11.7213
        40        0.0173           -0.3998373             -10.8801
        41        0.0031           -0.3722742             -10.1301
        42        0.0000           -0.2879791              -7.8363
        43                         -0.2082215              -5.6660
        44                         -0.1974086              -5.3718
        45                         -0.1507907              -4.1032
        46                         -0.1454066              -3.9567
        47                         -0.0789212              -2.1476
        48                         -0.0548565              -1.4927
       ...                                ...                  ...
        67                          0.5477362              14.9047
      -------------------------------------------------------------
                  HL-Gap            0.0109249 Eh            0.2973 eV

     #   Z          covCN         q      C6AA      α(0)
     1   6 C        3.691    -0.094    22.487     6.786
     2   7 N        2.829     0.078    19.890     6.624
     3   6 C        3.049     0.047    26.901     8.506
     4   7 N        2.792    -0.058    22.354     7.022
     5   6 C        3.039     0.106    25.620     8.302
     6   6 C        3.110    -0.023    28.433     8.736
     7   6 C        2.775     0.254    22.730     7.809
     8   8 O        0.857    -0.362    20.941     6.135
     9   7 N        2.741    -0.031    21.847     6.942
    10   6 C        2.815    -0.022    28.537     8.753
    11   6 C        2.737     0.309    21.751     7.636
    12   8 O        0.859    -0.350    20.706     6.101
    13   7 N        2.737    -0.050    22.199     6.998
    14   6 C        3.698    -0.073    22.078     6.720
    15   1 H        0.924     0.108     1.713     2.047
    16   1 H        0.925     0.104     1.747     2.067
    17   1 H        0.925     0.135     1.501     1.916
    18   1 H        0.926     0.124     1.583     1.968
    19   1 H        0.926     0.135     1.500     1.915
    20   1 H        0.000     0.008     7.287     4.936
    21   1 H        0.926     0.132     1.522     1.929
    22   1 H        0.924     0.084     1.935     2.175
    23   1 H        0.925     0.084     1.943     2.180
    24   1 H        0.925     0.127     1.556     1.951
    25   1 H        0.860     0.229     0.969     1.542

Wiberg/Mayer (AO) data.
largest (>0.10) Wiberg bond orders for each atom

     #   Z sym  total        # sym  WBO       # sym  WBO       # sym  WBO
 ---------------------------------------------------------------------------
     1   6 C    3.917 --     2 N    0.986    16 H    0.965    17 H    0.961
                            15 H    0.955
     2   7 N    3.650 --     3 C    1.379     6 C    1.146     1 C    0.986
     3   6 C    3.822 --     2 N    1.379     4 N    1.266    18 H    0.953
     4   7 N    3.580 --     3 C    1.266     5 C    1.194    25 H    0.919
     5   6 C    3.900 --     6 C    1.327     4 N    1.194    13 N    1.191
     6   6 C    3.909 --     5 C    1.327     2 N    1.146     7 C    1.117
     7   6 C    3.869 --     8 O    1.674     6 C    1.117     9 N    0.985
     8   8 O    1.959 --     7 C    1.674     9 N    0.107
     9   7 N    3.615 --    10 C    1.343    11 C    1.017     7 C    0.985
                             8 O    0.107
    10   6 C    3.364 --     9 N    1.343    19 H    0.958    21 H    0.958
    11   6 C    3.906 --    12 O    1.709    13 N    1.085     9 N    1.017
    12   8 O    2.021 --    11 C    1.709    13 N    0.134
    13   7 N    3.565 --     5 C    1.191    11 C    1.085    14 C    0.971
                            12 O    0.134
    14   6 C    3.924 --    23 H    0.972    22 H    0.971    13 N    0.971
                            24 H    0.965
    15   1 H    0.983 --     1 C    0.955
    16   1 H    0.986 --     1 C    0.965
    17   1 H    0.982 --     1 C    0.961
    18   1 H    0.984 --     3 C    0.953
    19   1 H    0.981 --    10 C    0.958
    20   1 H    0.031
    21   1 H    0.982 --    10 C    0.958
    22   1 H    0.991 --    14 C    0.971
    23   1 H    0.991 --    14 C    0.972
    24   1 H    0.983 --    14 C    0.965
    25   1 H    0.947 --     4 N    0.919
 ---------------------------------------------------------------------------

molecular dipole:
                 x           y           z       tot (Debye)
 q only:        2.417      -2.021       0.039
   full:        2.645      -2.473       0.026       9.205

           -------------------------------------------------
          | TOTAL ENERGY              -42.104610250979 Eh   |
          | GRADIENT NORM               0.003538206689 Eh/α |
          | HOMO-LUMO GAP               0.297282000248 eV   |
           -------------------------------------------------

 * finished run on 2024/06/05 at 19:59:17.886
