   * xtb version 6.6.1 (8d0f1dd) compiled by 'conda@1efc2f54142f' on 2023-08-01
          program call               : xtb struc.xyz --opt loose --input .xc1 --gfn2

   ID    Z sym.   atoms
    1    6 C      1, 3, 5-7, 10, 11, 14
    2    7 N      2, 4, 9, 13
    3    8 O      8, 12
    4    1 H      15-25
constraining bond 5 14 to    5.0000000 Å, actual value:    2.4460888 Å

          :  Hamiltonian                  GFN2-xTB          :
 * total energy  :   -30.6017924 Eh     change       -0.6650680E-10 Eh
 * total energy  :   -34.8085301 Eh     change       -0.4206738E+01 Eh
 * total energy  :   -37.9759403 Eh     change       -0.3167410E+01 Eh
 * total energy  :   -40.0354233 Eh     change       -0.2059483E+01 Eh
 * total energy  :   -41.0761991 Eh     change       -0.1040776E+01 Eh
 * total energy  :   -41.3596893 Eh     change       -0.2834902E+00 Eh
 * total energy  :   -41.4083257 Eh     change       -0.4863645E-01 Eh
 * total energy  :   -41.4513111 Eh     change       -0.4298541E-01 Eh
 * total energy  :   -41.4927405 Eh     change       -0.4142937E-01 Eh
 * total energy  :   -41.5337561 Eh     change       -0.4101559E-01 Eh
 * total energy  :   -42.1868824 Eh     change       -0.9974312E-02 Eh
 * total energy  :   -42.1910423 Eh     change       -0.4159947E-02 Eh
 * total energy  :   -42.1940179 Eh     change       -0.2975615E-02 Eh
 * total energy  :   -42.1948965 Eh     change       -0.8785451E-03 Eh
 * total energy  :   -42.1954509 Eh     change       -0.5543924E-03 Eh
 * total energy  :   -42.1956603 Eh     change       -0.2094544E-03 Eh
 * total energy  :   -42.1955799 Eh     change        0.8042701E-04 Eh
 * total energy  :   -42.1958270 Eh     change       -0.2470688E-03 Eh
 * total energy  :   -42.1958352 Eh     change       -0.8265246E-05 Eh
   *** GEOMETRY OPTIMIZATION CONVERGED AFTER 54 ITERATIONS ***

 final structure:
================
25
 xtb: 6.6.1 (8d0f1dd)
C            3.35646376334498        1.77938483023293        0.02910872254076
N            2.73388668160516        0.48060737589461        0.02971485493000
C            3.35236515282286       -0.69691815131320        0.04673603853365
N            2.45167625655508       -1.69961006330949        0.04620438492750
C            1.21962726271037       -1.13349202818855        0.02705016787835
C            1.38419824080620        0.23918752387310        0.01731477937153
C            0.23195007424792        1.11414672333460       -0.00891287002637
O            0.27279425450100        2.32331270217849       -0.02429395871035
N           -0.98301636671521        0.40290934115551       -0.01573794797088
C           -2.18158979281252        1.22754830769755       -0.03581502963050
C           -1.11887220858133       -0.98642891565699       -0.00824637121290
O           -2.42560887523492       -1.25572541667035       -0.03210476200137
N           -0.02361714781622       -1.74026977947746        0.01408741012277
C           -3.63378372747685       -2.21196763409524       -0.03389565493955
H            3.89604440729428        1.94178381844954        0.96295754102216
H            4.05794888488410        1.86233387962180       -0.80131311898905
H            2.57897235110579        2.53718433871864       -0.07071437600964
H            4.41685040517589       -0.82994817969380        0.05944517569095
H           -1.86673535067725        2.26909533027356       -0.03347760333022
H           -2.76495871790548        1.01978029262946       -0.93146815514224
H           -2.79065011938382        1.02337105675071        0.84318006011185
H           -3.57147741388820       -2.85548434396157        0.84049108889945
H           -3.61667896694966       -2.78590108655373       -0.95635578937666
H           -4.45874158386767       -1.51486932213142        0.01381318697459
H            2.64338405035317       -2.69179205816009        0.05340384423679

          :  Hamiltonian                  GFN2-xTB          :
         :: total energy             -42.195835216336 Eh    ::
         :: gradient norm              0.003480004474 Eh/a0 ::
         :: HOMO-LUMO gap              3.235074763812 eV    ::
         :: SCC energy               -42.696601927084 Eh    ::
         :: -> dispersion             -0.021505982854 Eh    ::
         :: repulsion energy           0.499368750993 Eh    ::

    * Orbital Energies and Occupations

         #    Occupation            Energy/Eh            Energy/eV
      -------------------------------------------------------------
         1        2.0000           -0.8954786             -24.3672
       ...           ...                  ...                  ...
        25        2.0000           -0.6585440             -17.9199
        26        2.0000           -0.6478059             -17.6277
        27        1.9999           -0.6407927             -17.4369
        28        1.9999           -0.6285945             -17.1049
        29        1.9999           -0.6259872             -17.0340
        30        1.9995           -0.6080214             -16.5451
        31        1.9993           -0.6014862             -16.3673
        32        1.9992           -0.5995605             -16.3149
        33        1.9982           -0.5863592             -15.9556
        34        1.9915           -0.5617833             -15.2869
        35        1.9866           -0.5545632             -15.0904
        36        1.9738           -0.5438504             -14.7989
        37        1.9688           -0.5410515             -14.7228 (HOMO)
        38        0.0668           -0.4221647             -11.4877 (LUMO)
        39        0.0146           -0.3976658             -10.8210
        40        0.0021           -0.3669832              -9.9861
        41        0.0000           -0.2998959              -8.1606
        42        0.0000           -0.2737917              -7.4503
        43                         -0.1811308              -4.9288
        44                         -0.1647548              -4.4832
        45                         -0.1389592              -3.7813
        46                         -0.0714506              -1.9443
        47                         -0.0453801              -1.2349
        48                         -0.0191045              -0.5199
       ...                                ...                  ...
        67                          0.5324594              14.4890
      -------------------------------------------------------------
                  HL-Gap            0.1188868 Eh            3.2351 eV

     #   Z          covCN         q      C6AA      α(0)
     1   6 C        3.691    -0.092    22.447     6.780
     2   7 N        2.837     0.081    19.834     6.614
     3   6 C        3.090     0.056    26.642     8.460
     4   7 N        2.790    -0.042    22.042     6.973
     5   6 C        3.078     0.137    24.925     8.185
     6   6 C        3.121    -0.019    28.306     8.713
     7   6 C        2.769     0.273    22.383     7.748
     8   8 O        0.858    -0.378    21.242     6.179
     9   7 N        2.748    -0.072    22.630     7.065
    10   6 C        3.702    -0.066    21.933     6.696
    11   6 C        2.719     0.312    21.691     7.624
    12   8 O        1.680    -0.255    18.231     5.764
    13   7 N        1.829    -0.288    28.319     7.886
    14   6 C        3.595     0.014    20.949     6.627
    15   1 H        0.924     0.105     1.738     2.061
    16   1 H        0.924     0.103     1.754     2.071
    17   1 H        0.924     0.133     1.511     1.922
    18   1 H        0.926     0.123     1.590     1.972
    19   1 H        0.925     0.117     1.635     1.999
    20   1 H        0.925     0.090     1.880     2.144
    21   1 H        0.925     0.089     1.884     2.147
    22   1 H        0.925     0.107     1.722     2.052
    23   1 H        0.925     0.109     1.709     2.044
    24   1 H        0.926     0.122     1.595     1.975
    25   1 H        0.860     0.237     0.934     1.514

Wiberg/Mayer (AO) data.
largest (>0.10) Wiberg bond orders for each atom

     #   Z sym  total        # sym  WBO       # sym  WBO       # sym  WBO
 ---------------------------------------------------------------------------
     1   6 C    3.919 --     2 N    0.984    17 H    0.963    16 H    0.963
                            15 H    0.959
     2   7 N    3.692 --     3 C    1.390     6 C    1.170     1 C    0.984
     3   6 C    3.876 --     2 N    1.390     4 N    1.301    18 H    0.953
     4   7 N    3.614 --     3 C    1.301     5 C    1.198    25 H    0.916
     5   6 C    3.952 --     6 C    1.352    13 N    1.220     4 N    1.198
     6   6 C    3.921 --     5 C    1.352     2 N    1.170     7 C    1.083
     7   6 C    3.949 --     8 O    1.677     9 N    1.092     6 C    1.083
     8   8 O    2.030 --     7 C    1.677     9 N    0.150
     9   7 N    3.575 --    11 C    1.151     7 C    1.092    10 C    0.978
                             8 O    0.150
    10   6 C    3.923 --     9 N    0.978    21 H    0.966    20 H    0.965
                            19 H    0.963
    11   6 C    3.926 --    13 N    1.411    12 O    1.211     9 N    1.151
    12   8 O    2.319 --    11 C    1.211    14 C    0.860    13 N    0.112
    13   7 N    2.980 --    11 C    1.411     5 C    1.220    12 O    0.112
    14   6 C    3.836 --    22 H    0.975    23 H    0.974    24 H    0.972
                            12 O    0.860
    15   1 H    0.987 --     1 C    0.959
    16   1 H    0.987 --     1 C    0.963
    17   1 H    0.982 --     1 C    0.963
    18   1 H    0.984 --     3 C    0.953
    19   1 H    0.985 --    10 C    0.963
    20   1 H    0.988 --    10 C    0.965
    21   1 H    0.988 --    10 C    0.966
    22   1 H    0.986 --    14 C    0.975
    23   1 H    0.986 --    14 C    0.974
    24   1 H    0.984 --    14 C    0.972
    25   1 H    0.943 --     4 N    0.916
 ---------------------------------------------------------------------------

molecular dipole:
                 x           y           z       tot (Debye)
 q only:        1.599      -1.520       0.038
   full:        1.872      -1.843       0.048       6.679

           -------------------------------------------------
          | TOTAL ENERGY              -42.195835216336 Eh   |
          | GRADIENT NORM               0.003480004474 Eh/α |
          | HOMO-LUMO GAP               3.235074763812 eV   |
           -------------------------------------------------

 * finished run on 2024/06/05 at 19:57:54.476
