   * xtb version 6.6.1 (8d0f1dd) compiled by 'conda@1efc2f54142f' on 2023-08-01
          program call               : xtb xtbopt.xyz --opt crude --input .xc2 --gfn2

   ID    Z sym.   atoms
    1    6 C      1, 3, 5-7, 10, 11, 14
    2    7 N      2, 4, 9, 13
    3    8 O      8, 12
    4    1 H      15-25
########################################################################
[WARNING] Please study the warnings concerning your input carefully
-1- readin_getIntValue: could not parse ''
########################################################################

          :  Hamiltonian                  GFN2-xTB          :
 * total energy  :   -42.1972186 Eh     change       -0.2842171E-13 Eh
 * total energy  :   -42.2116853 Eh     change       -0.1446670E-01 Eh
 * total energy  :   -42.2221780 Eh     change       -0.1049266E-01 Eh
 * total energy  :   -42.2283670 Eh     change       -0.6189089E-02 Eh
 * total energy  :   -42.2341011 Eh     change       -0.5734013E-02 Eh
 * total energy  :   -42.2387789 Eh     change       -0.4677887E-02 Eh
 * total energy  :   -42.2419672 Eh     change       -0.3188245E-02 Eh
 * total energy  :   -42.2437191 Eh     change       -0.1751880E-02 Eh
 * total energy  :   -42.2440921 Eh     change       -0.3730566E-03 Eh
 * total energy  :   -42.2443197 Eh     change       -0.2275737E-03 Eh
 * total energy  :   -42.2445180 Eh     change       -0.1983091E-03 Eh
   *** GEOMETRY OPTIMIZATION CONVERGED AFTER 11 ITERATIONS ***

 final structure:
================
25
 xtb: 6.6.1 (8d0f1dd)
C            3.31610710053053        1.58253368310452        0.03635051301975
N            2.56699240486188        0.35266006096287        0.02776018431587
C            3.04950227235718       -0.88298493093670        0.04163008202218
N            2.04100378080478       -1.77589915196415        0.03504521311190
C            0.86561294701340       -1.08589401717074        0.01644781394194
C            1.19788356195230        0.26535033800204        0.01217648640199
C            0.17128887800040        1.27938535515541       -0.01322146810489
O            0.33096538951377        2.47580828440146       -0.02681903874531
N           -1.10740076748880        0.68715048431707       -0.02275718773177
C           -2.25655066608569        1.57550935658192       -0.04436362188974
C           -1.32136025842922       -0.65917089598914       -0.01489159333763
O           -2.58131169921612       -1.00507470619467       -0.02677382788373
N           -0.37631430240818       -1.57155988206179        0.00314264430127
C           -2.89420787658435       -2.39531319437130       -0.01654962202152
H            3.87067018204048        1.68289545486172        0.96997541273289
H            4.02051937083881        1.60478429877567       -0.79481134053122
H            2.61696177407091        2.41355678572712       -0.05493366228306
H            4.09108477098312       -1.13942130592084        0.05532938285646
H           -1.88313184825300        2.59792030138482       -0.04679237214632
H           -2.85268265215143        1.39410456659214       -0.93747366599237
H           -2.87580036866943        1.40642128285387        0.83531112650675
H           -2.45158513806133       -2.88216436117884        0.85304984169543
H           -2.52650892591066       -2.87464972685538       -0.92275970722638
H           -3.98060788614115       -2.44535013538192        0.02548658784034
H            2.12930147052953       -2.78235940309648        0.04161343704807

          :  Hamiltonian                  GFN2-xTB          :
         :: total energy             -42.244518008882 Eh    ::
         :: gradient norm              0.003021164774 Eh/a0 ::
         :: HOMO-LUMO gap              3.324406007987 eV    ::
         :: SCC energy               -42.765122270807 Eh    ::
         :: -> dispersion             -0.022031162162 Eh    ::
         :: repulsion energy           0.520546214270 Eh    ::

    * Orbital Energies and Occupations

         #    Occupation            Energy/Eh            Energy/eV
      -------------------------------------------------------------
         1        2.0000           -0.9001308             -24.4938
       ...           ...                  ...                  ...
        25        2.0000           -0.6659192             -18.1206
        26        2.0000           -0.6542627             -17.8034
        27        1.9999           -0.6477640             -17.6266
        28        1.9999           -0.6373313             -17.3427
        29        1.9998           -0.6302378             -17.1496
        30        1.9994           -0.6115485             -16.6411
        31        1.9994           -0.6097440             -16.5920
        32        1.9989           -0.6009329             -16.3522
        33        1.9987           -0.5985855             -16.2883
        34        1.9912           -0.5680769             -15.4582
        35        1.9892           -0.5649091             -15.3720
        36        1.9830           -0.5576085             -15.1733
        37        1.9699           -0.5484808             -14.9249 (HOMO)
        38        0.0567           -0.4263112             -11.6005 (LUMO)
        39        0.0124           -0.4018343             -10.9345
        40        0.0016           -0.3694327             -10.0528
        41        0.0000           -0.2746992              -7.4749
        42                         -0.1875517              -5.1035
        43                         -0.1733318              -4.7166
        44                         -0.1343473              -3.6558
        45                         -0.1112836              -3.0282
        46                         -0.0642709              -1.7489
        47                         -0.0336114              -0.9146
        48                         -0.0198865              -0.5411
       ...                                ...                  ...
        67                          0.5418890              14.7456
      -------------------------------------------------------------
                  HL-Gap            0.1221697 Eh            3.3244 eV

     #   Z          covCN         q      C6AA      α(0)
     1   6 C        3.691    -0.093    22.468     6.783
     2   7 N        2.831     0.082    19.813     6.611
     3   6 C        3.069     0.058    26.620     8.460
     4   7 N        2.797    -0.052    22.245     7.005
     5   6 C        3.124     0.143    24.721     8.142
     6   6 C        3.131    -0.028    28.491     8.738
     7   6 C        2.768     0.273    22.388     7.749
     8   8 O        0.858    -0.371    21.115     6.161
     9   7 N        2.748    -0.069    22.583     7.058
    10   6 C        3.702    -0.067    21.947     6.698
    11   6 C        2.841     0.303    21.869     7.664
    12   8 O        1.708    -0.188    17.151     5.592
    13   7 N        1.832    -0.295    28.481     7.908
    14   6 C        3.656     0.005    20.795     6.546
    15   1 H        0.924     0.106     1.729     2.056
    16   1 H        0.925     0.105     1.742     2.064
    17   1 H        0.925     0.134     1.505     1.919
    18   1 H        0.926     0.124     1.581     1.966
    19   1 H        0.925     0.119     1.622     1.992
    20   1 H        0.925     0.094     1.837     2.119
    21   1 H        0.925     0.094     1.837     2.119
    22   1 H        0.924     0.088     1.894     2.152
    23   1 H        0.925     0.089     1.890     2.150
    24   1 H        0.925     0.109     1.709     2.044
    25   1 H        0.860     0.237     0.937     1.516

Wiberg/Mayer (AO) data.
largest (>0.10) Wiberg bond orders for each atom

     #   Z sym  total        # sym  WBO       # sym  WBO       # sym  WBO
 ---------------------------------------------------------------------------
     1   6 C    3.917 --     2 N    0.984    17 H    0.963    16 H    0.962
                            15 H    0.959
     2   7 N    3.698 --     3 C    1.398     6 C    1.166     1 C    0.984
     3   6 C    3.885 --     2 N    1.398     4 N    1.302    18 H    0.952
     4   7 N    3.609 --     3 C    1.302     5 C    1.184    25 H    0.916
     5   6 C    3.955 --     6 C    1.328    13 N    1.266     4 N    1.184
     6   6 C    3.920 --     5 C    1.328     2 N    1.166     7 C    1.093
     7   6 C    3.949 --     8 O    1.689     6 C    1.093     9 N    1.070
     8   8 O    2.042 --     7 C    1.689     9 N    0.145
     9   7 N    3.585 --    11 C    1.202     7 C    1.070    10 C    0.973
                             8 O    0.145
    10   6 C    3.919 --     9 N    0.973    19 H    0.966    21 H    0.965
                            20 H    0.965
    11   6 C    3.941 --    13 N    1.382    12 O    1.206     9 N    1.202
    12   8 O    2.363 --    11 C    1.206    14 C    0.933
    13   7 N    2.994 --    11 C    1.382     5 C    1.266
    14   6 C    3.883 --    24 H    0.974    22 H    0.972    23 H    0.971
                            12 O    0.933
    15   1 H    0.987 --     1 C    0.959
    16   1 H    0.987 --     1 C    0.962
    17   1 H    0.982 --     1 C    0.963
    18   1 H    0.984 --     3 C    0.952
    19   1 H    0.985 --    10 C    0.966
    20   1 H    0.988 --    10 C    0.965
    21   1 H    0.988 --    10 C    0.965
    22   1 H    0.990 --    14 C    0.972
    23   1 H    0.990 --    14 C    0.971
    24   1 H    0.987 --    14 C    0.974
    25   1 H    0.943 --     4 N    0.916
 ---------------------------------------------------------------------------

molecular dipole:
                 x           y           z       tot (Debye)
 q only:        1.808      -1.614       0.042
   full:        2.105      -1.832       0.049       7.094

           -------------------------------------------------
          | TOTAL ENERGY              -42.244518008882 Eh   |
          | GRADIENT NORM               0.003021164774 Eh/α |
          | HOMO-LUMO GAP               3.324406007987 eV   |
           -------------------------------------------------

 * finished run on 2024/06/05 at 19:57:54.880
