   * xtb version 6.6.1 (8d0f1dd) compiled by 'conda@1efc2f54142f' on 2023-08-01
          program call               : xtb struc.xyz --opt loose --input .xc1 --gfn2

   ID    Z sym.   atoms
    1    6 C      1, 3, 5-7, 10, 11, 14
    2    7 N      2, 4, 9, 13
    3    8 O      8, 12
    4    1 H      15-25
constraining bond 2 7 to    4.9200000 Å, actual value:    2.5746944 Å

          :  Hamiltonian                  GFN2-xTB          :
 * total energy  :   -32.4266140 Eh     change       -0.6650680E-10 Eh
 * total energy  :   -36.1677528 Eh     change       -0.3741139E+01 Eh
 * total energy  :   -39.0630924 Eh     change       -0.2895340E+01 Eh
 * total energy  :   -40.8096019 Eh     change       -0.1746509E+01 Eh
 * total energy  :   -41.5810741 Eh     change       -0.7714722E+00 Eh
 * total energy  :   -41.7061473 Eh     change       -0.1250733E+00 Eh
 * total energy  :   -41.7318425 Eh     change       -0.2569518E-01 Eh
 * total energy  :   -41.7718873 Eh     change       -0.4004476E-01 Eh
 * total energy  :   -41.8016001 Eh     change       -0.2971284E-01 Eh
 * total energy  :   -41.8329120 Eh     change       -0.3131191E-01 Eh
 * total energy  :   -42.1547561 Eh     change       -0.1885855E-02 Eh
 * total energy  :   -42.1561438 Eh     change       -0.1387691E-02 Eh
 * total energy  :   -42.1574118 Eh     change       -0.1267948E-02 Eh
 * total energy  :   -42.1582542 Eh     change       -0.8424200E-03 Eh
 * total energy  :   -42.1587241 Eh     change       -0.4699232E-03 Eh
 * total energy  :   -42.1586815 Eh     change        0.4260040E-04 Eh
 * total energy  :   -42.1590306 Eh     change       -0.3491307E-03 Eh
 * total energy  :   -42.1592783 Eh     change       -0.2476235E-03 Eh
 * total energy  :   -42.1593140 Eh     change       -0.3572905E-04 Eh
   *** GEOMETRY OPTIMIZATION CONVERGED AFTER 47 ITERATIONS ***

 final structure:
================
25
 xtb: 6.6.1 (8d0f1dd)
C            4.42637118622452        0.28163952773506       -0.04317004844796
N            3.72281044602335       -0.73228733354525        0.20806400373493
C            2.78056197267408       -1.57431771410787        0.05404322546140
N            1.43476095391721       -1.46014222660648        0.04959420827690
C            0.45737019074424       -0.45205732880459        0.05209368648076
C            0.65754176176578        0.89211696422517        0.09669902547237
C           -0.45842286128524        1.84456208132512        0.07811699204321
O           -0.30941662856571        3.04255015600831        0.12063050427026
N           -1.71042124834071        1.25484466183852        0.00375569584936
C           -2.88115245161224        2.11409266660194       -0.03107182275719
C           -1.94738599877988       -0.09345973104508       -0.03672288497592
O           -3.06133005142717       -0.54589953742875       -0.09788761771248
N           -0.82567423710203       -0.94399316749126       -0.00625457934707
C           -1.13296577472032       -2.36437942683401       -0.04845272760970
H            5.06852628827889        0.67853417168608        0.73065055809630
H            4.46993334474658        0.72162904593460       -1.03385670223741
H            1.64297479899510        1.32040603192255        0.15230960015175
H            3.11098077779873       -2.61191274648882        0.03121483743854
H           -2.53942560802904        3.14697348791707       -0.02565393237198
H           -3.46307199514902        1.90817640175709       -0.92950568090474
H           -3.51129190963778        1.91901509270802        0.83704867864840
H           -0.80394822365144       -2.87553896713535        0.85901925081506
H           -0.72991145723143       -2.83877735254461       -0.94573000145570
H           -2.22133718710340       -2.44249076847592       -0.09439827710469
H            0.98435542556715       -2.37104544755148        0.05063562608529

          :  Hamiltonian                  GFN2-xTB          :
         :: total energy             -42.159313982284 Eh    ::
         :: gradient norm              0.002696664584 Eh/a0 ::
         :: HOMO-LUMO gap              2.120840935645 eV    ::
         :: SCC energy               -42.708120883817 Eh    ::
         :: -> dispersion             -0.021195595132 Eh    ::
         :: repulsion energy           0.548677851628 Eh    ::

    * Orbital Energies and Occupations

         #    Occupation            Energy/Eh            Energy/eV
      -------------------------------------------------------------
         1        2.0000           -0.8771956             -23.8697
       ...           ...                  ...                  ...
        25        1.9999           -0.6619730             -18.0132
        26        1.9999           -0.6547808             -17.8175
        27        1.9998           -0.6468246             -17.6010
        28        1.9998           -0.6420954             -17.4723
        29        1.9996           -0.6343037             -17.2603
        30        1.9991           -0.6210099             -16.8985
        31        1.9990           -0.6195538             -16.8589
        32        1.9944           -0.5922879             -16.1170
        33        1.9934           -0.5896964             -16.0465
        34        1.9779           -0.5703646             -15.5204
        35        1.9358           -0.5531518             -15.0520
        36        1.9141           -0.5483452             -14.9212
        37        1.9017           -0.5461167             -14.8606 (HOMO)
        38        0.2470           -0.4681772             -12.7397 (LUMO)
        39        0.0369           -0.4362734             -11.8716
        40        0.0013           -0.3827107             -10.4141
        41        0.0005           -0.3676050             -10.0030
        42        0.0000           -0.2786705              -7.5830
        43                         -0.2019936              -5.4965
        44                         -0.1732634              -4.7147
        45                         -0.1264815              -3.4417
        46                         -0.1132144              -3.0807
        47                         -0.0867203              -2.3598
        48                         -0.0453544              -1.2342
       ...                                ...                  ...
        67                          0.6438237              17.5193
      -------------------------------------------------------------
                  HL-Gap            0.0779395 Eh            2.1208 eV

     #   Z          covCN         q      C6AA      α(0)
     1   6 C        2.766     0.019    27.574     8.600
     2   7 N        1.823    -0.006    22.071     6.961
     3   6 C        2.751     0.109    25.577     8.281
     4   7 N        2.691    -0.100    23.206     7.155
     5   6 C        2.822     0.126    25.223     8.229
     6   6 C        2.905    -0.105    30.654     9.078
     7   6 C        2.768     0.278    22.305     7.735
     8   8 O        0.858    -0.338    20.482     6.068
     9   7 N        2.741    -0.068    22.556     7.054
    10   6 C        3.708    -0.061    21.811     6.675
    11   6 C        2.725     0.320    21.562     7.602
    12   8 O        0.860    -0.370    21.093     6.158
    13   7 N        2.750    -0.069    22.580     7.057
    14   6 C        3.699    -0.079    22.183     6.736
    15   1 H        0.926     0.144     1.434     1.873
    16   1 H        0.925     0.131     1.526     1.932
    17   1 H        0.926     0.091     1.869     2.138
    18   1 H        0.925     0.127     1.561     1.954
    19   1 H        0.925     0.115     1.655     2.012
    20   1 H        0.925     0.102     1.768     2.079
    21   1 H        0.924     0.102     1.771     2.081
    22   1 H        0.924     0.079     1.985     2.204
    23   1 H        0.924     0.079     1.986     2.204
    24   1 H        0.924     0.138     1.477     1.901
    25   1 H        0.860     0.237     0.934     1.514

Wiberg/Mayer (AO) data.
largest (>0.10) Wiberg bond orders for each atom

     #   Z sym  total        # sym  WBO       # sym  WBO       # sym  WBO
 ---------------------------------------------------------------------------
     1   6 C    3.717 --     2 N    1.754    15 H    0.935    16 H    0.925
     2   7 N    3.481 --     1 C    1.754     3 C    1.555     4 N    0.125
     3   6 C    3.878 --     2 N    1.555     4 N    1.268    18 H    0.916
     4   7 N    3.518 --     3 C    1.268     5 C    1.079    25 H    0.889
                             2 N    0.125
     5   6 C    3.926 --     6 C    1.544    13 N    1.166     4 N    1.079
     6   6 C    3.864 --     5 C    1.544     7 C    1.074    17 H    0.960
     7   6 C    3.947 --     8 O    1.691     9 N    1.099     6 C    1.074
     8   8 O    1.982 --     7 C    1.691     9 N    0.127
     9   7 N    3.532 --    11 C    1.142     7 C    1.099    10 C    0.974
                            12 O    0.128     8 O    0.127
    10   6 C    3.898 --     9 N    0.974    19 H    0.965    20 H    0.957
                            21 H    0.956
    11   6 C    3.959 --    12 O    1.674     9 N    1.142    13 N    1.056
    12   8 O    2.015 --    11 C    1.674     9 N    0.128    13 N    0.120
    13   7 N    3.512 --     5 C    1.166    11 C    1.056    14 C    0.983
                            12 O    0.120
    14   6 C    3.928 --    13 N    0.983    23 H    0.963    22 H    0.963
                            24 H    0.950
    15   1 H    0.975 --     1 C    0.935
    16   1 H    0.974 --     1 C    0.925
    17   1 H    0.991 --     6 C    0.960
    18   1 H    0.974 --     3 C    0.916
    19   1 H    0.983 --    10 C    0.965
    20   1 H    0.976 --    10 C    0.957
    21   1 H    0.976 --    10 C    0.956
    22   1 H    0.988 --    14 C    0.963
    23   1 H    0.988 --    14 C    0.963
    24   1 H    0.980 --    14 C    0.950
    25   1 H    0.943 --     4 N    0.889
 ---------------------------------------------------------------------------

molecular dipole:
                 x           y           z       tot (Debye)
 q only:        3.392      -2.064      -0.051
   full:        3.628      -2.310      -0.098      10.935

           -------------------------------------------------
          | TOTAL ENERGY              -42.159313982284 Eh   |
          | GRADIENT NORM               0.002696664584 Eh/α |
          | HOMO-LUMO GAP               2.120840935645 eV   |
           -------------------------------------------------

 * finished run on 2024/06/05 at 19:57:51.554
