   * xtb version 6.6.1 (8d0f1dd) compiled by 'conda@1efc2f54142f' on 2023-08-01
          program call               : xtb struc.xyz --opt loose --input .xc1 --gfn2

   ID    Z sym.   atoms
    1    6 C      1, 3, 5-7, 10, 11, 14
    2    7 N      2, 4, 9, 13
    3    8 O      8, 12
    4    1 H      15-25
constraining bond 2 13 to    5.8400000 Å, actual value:    3.5076258 Å

          :  Hamiltonian                  GFN2-xTB          :
 * total energy  :   -32.5346190 Eh     change       -0.6650680E-10 Eh
 * total energy  :   -36.3323434 Eh     change       -0.3797724E+01 Eh
 * total energy  :   -38.9610394 Eh     change       -0.2628696E+01 Eh
 * total energy  :   -40.5887081 Eh     change       -0.1627669E+01 Eh
 * total energy  :   -41.4137529 Eh     change       -0.8250448E+00 Eh
 * total energy  :   -41.5978925 Eh     change       -0.1841395E+00 Eh
 * total energy  :   -41.6491030 Eh     change       -0.5121051E-01 Eh
 * total energy  :   -41.7432717 Eh     change       -0.9416871E-01 Eh
 * total energy  :   -41.7935918 Eh     change       -0.5032014E-01 Eh
 * total energy  :   -41.8324419 Eh     change       -0.3885008E-01 Eh
 * total energy  :   -42.1361536 Eh     change       -0.1408746E-03 Eh
 * total energy  :   -42.1362867 Eh     change       -0.1331560E-03 Eh
 * total energy  :   -42.1364451 Eh     change       -0.1583584E-03 Eh
 * total energy  :   -42.1365834 Eh     change       -0.1382485E-03 Eh
 * total energy  :   -42.1367369 Eh     change       -0.1535858E-03 Eh
 * total energy  :   -42.1368782 Eh     change       -0.1412142E-03 Eh
 * total energy  :   -42.1369620 Eh     change       -0.8388760E-04 Eh
 * total energy  :   -42.1370468 Eh     change       -0.8473426E-04 Eh
 * total energy  :   -42.1370943 Eh     change       -0.4752500E-04 Eh
   *** GEOMETRY OPTIMIZATION CONVERGED AFTER 96 ITERATIONS ***

 final structure:
================
25
 xtb: 6.6.1 (8d0f1dd)
C            4.98995469897070        0.11330158033789       -0.26877306731794
N            4.09396817194557       -0.16272233694470        0.77896936852581
C            2.87519014960645       -0.41603851314299        0.77874559806172
N            2.04528730162958       -0.49402126464599       -0.37015504130130
C            0.77438597718273       -0.65179833130709       -0.35493782495421
C           -0.47136784139545       -0.35840885676107       -0.12963977756116
C           -0.93861522874719        1.12251359375136       -0.00745996683206
O           -0.23812455395975        2.08820304846114        0.00151873527406
N           -2.28243930110989        1.01429547545047        0.08815091915772
C           -3.18246609851187        2.14006913176398        0.20678618349433
C           -2.73482728969710       -0.31086427508979        0.06534103965735
O           -3.86345324942778       -0.68261964911254        0.15137695293157
N           -1.60552029563122       -1.11073618889250       -0.07194333085299
C           -1.67002372147376       -2.55006474319860       -0.10238184083739
H            5.50919799730035        1.03977046303242       -0.01555032444064
H            5.74691877229599       -0.67599248161177       -0.28030123100981
H            4.54523817118863        0.21195250256677       -1.26593946740851
H            2.36082621231335       -0.58393906870802        1.71518461919899
H           -2.59980616317962        3.02794252427874        0.44288416579865
H           -3.71875955133407        2.29070462314625       -0.73155195152410
H           -3.90603878833640        1.93718004447144        0.99590687908350
H           -1.13323591083025       -2.97848775106425        0.74568995747336
H           -1.24435494209182       -2.93371360210693       -1.03075135823563
H           -2.72215646561742       -2.82829930887579       -0.04293570316813
H            2.53065346300082       -0.42998807420095       -1.26706191531558

          :  Hamiltonian                  GFN2-xTB          :
         :: total energy             -42.137094297578 Eh    ::
         :: gradient norm              0.003155334060 Eh/a0 ::
         :: HOMO-LUMO gap              1.725065839516 eV    ::
         :: SCC energy               -42.699980133709 Eh    ::
         :: -> dispersion             -0.019582235068 Eh    ::
         :: repulsion energy           0.562925434013 Eh    ::

    * Orbital Energies and Occupations

         #    Occupation            Energy/Eh            Energy/eV
      -------------------------------------------------------------
         1        2.0000           -0.8915254             -24.2596
       ...           ...                  ...                  ...
        25        1.9999           -0.6702764             -18.2391
        26        1.9999           -0.6666803             -18.1413
        27        1.9996           -0.6434079             -17.5080
        28        1.9994           -0.6358652             -17.3028
        29        1.9992           -0.6308615             -17.1666
        30        1.9989           -0.6258869             -17.0312
        31        1.9979           -0.6162805             -16.7698
        32        1.9957           -0.6046798             -16.4542
        33        1.9876           -0.5879425             -15.9987
        34        1.9741           -0.5761522             -15.6779
        35        1.9715           -0.5745904             -15.6354
        36        1.9467           -0.5645090             -15.3611
        37        1.8053           -0.5427896             -14.7701 (HOMO)
        38        0.2895           -0.4793946             -13.0450 (LUMO)
        39        0.0342           -0.4433592             -12.0644
        40        0.0007           -0.3815873             -10.3835
        41        0.0000           -0.3389925              -9.2245
        42        0.0000           -0.3306856              -8.9984
        43                         -0.1984039              -5.3988
        44                         -0.1690967              -4.6014
        45                         -0.1430044              -3.8913
        46                         -0.0772577              -2.1023
        47                         -0.0683221              -1.8591
        48                         -0.0241924              -0.6583
       ...                                ...                  ...
        67                          0.7663138              20.8525
      -------------------------------------------------------------
                  HL-Gap            0.0633950 Eh            1.7251 eV

     #   Z          covCN         q      C6AA      α(0)
     1   6 C        3.694    -0.052    21.691     6.663
     2   7 N        1.823    -0.109    24.133     7.279
     3   6 C        2.774     0.099    25.795     8.318
     4   7 N        2.683    -0.005    21.357     6.864
     5   6 C        1.916     0.045    29.957     8.839
     6   6 C        2.970     0.043    27.043     8.530
     7   6 C        2.819     0.284    22.204     7.721
     8   8 O        0.857    -0.314    20.032     6.001
     9   7 N        2.786    -0.066    22.522     7.048
    10   6 C        3.691    -0.060    21.841     6.688
    11   6 C        2.811     0.324    21.493     7.596
    12   8 O        0.857    -0.325    20.241     6.032
    13   7 N        2.775    -0.042    22.059     6.976
    14   6 C        3.690    -0.067    21.982     6.710
    15   1 H        0.924     0.119     1.622     1.992
    16   1 H        0.924     0.116     1.648     2.008
    17   1 H        0.924     0.058     2.221     2.331
    18   1 H        0.925     0.107     1.718     2.050
    19   1 H        0.925     0.107     1.725     2.054
    20   1 H        0.924     0.102     1.765     2.077
    21   1 H        0.925     0.108     1.712     2.046
    22   1 H        0.924     0.087     1.906     2.159
    23   1 H        0.924     0.087     1.905     2.158
    24   1 H        0.925     0.118     1.628     1.995
    25   1 H        0.860     0.236     0.942     1.520

Wiberg/Mayer (AO) data.
largest (>0.10) Wiberg bond orders for each atom

     #   Z sym  total        # sym  WBO       # sym  WBO       # sym  WBO
 ---------------------------------------------------------------------------
     1   6 C    3.936 --     2 N    1.065    17 H    0.947    15 H    0.933
                            16 H    0.930
     2   7 N    3.068 --     3 C    1.839     1 C    1.065
     3   6 C    3.914 --     2 N    1.839     4 N    1.006    18 H    0.938
     4   7 N    3.571 --     5 C    1.512     3 C    1.006    25 H    0.884
     5   6 C    3.624 --     6 C    1.762     4 N    1.512
     6   6 C    3.935 --     5 C    1.762    13 N    1.149     7 C    0.818
     7   6 C    3.909 --     8 O    1.763     9 N    1.201     6 C    0.818
     8   8 O    2.125 --     7 C    1.763     9 N    0.157
     9   7 N    3.548 --     7 C    1.201    11 C    1.044    10 C    0.969
                             8 O    0.157    12 O    0.105
    10   6 C    3.903 --    19 H    0.971     9 N    0.969    21 H    0.962
                            20 H    0.958
    11   6 C    3.949 --    12 O    1.741    13 N    1.076     9 N    1.044
    12   8 O    2.078 --    11 C    1.741    13 N    0.122     9 N    0.105
    13   7 N    3.494 --     6 C    1.149    11 C    1.076    14 C    0.983
                            12 O    0.122
    14   6 C    3.920 --    13 N    0.983    24 H    0.967    23 H    0.966
                            22 H    0.965
    15   1 H    0.972 --     1 C    0.933
    16   1 H    0.975 --     1 C    0.930
    17   1 H    0.967 --     1 C    0.947
    18   1 H    0.980 --     3 C    0.938
    19   1 H    0.985 --    10 C    0.971
    20   1 H    0.979 --    10 C    0.958
    21   1 H    0.980 --    10 C    0.962
    22   1 H    0.983 --    14 C    0.965
    23   1 H    0.984 --    14 C    0.966
    24   1 H    0.984 --    14 C    0.967
    25   1 H    0.938 --     4 N    0.884
 ---------------------------------------------------------------------------

molecular dipole:
                 x           y           z       tot (Debye)
 q only:        2.094      -0.858      -0.424
   full:        2.075      -0.981      -0.759       6.144

           -------------------------------------------------
          | TOTAL ENERGY              -42.137094297578 Eh   |
          | GRADIENT NORM               0.003155334060 Eh/α |
          | HOMO-LUMO GAP               1.725065839516 eV   |
           -------------------------------------------------

 * finished run on 2024/06/05 at 19:57:50.999
