   * xtb version 6.6.1 (8d0f1dd) compiled by 'conda@1efc2f54142f' on 2023-08-01
          program call               : xtb struc.xyz --opt loose --input .xc1 --gfn2

   ID    Z sym.   atoms
    1    6 C      1, 3, 5-7, 10, 11, 14
    2    7 N      2, 4, 9, 13
    3    8 O      8, 12
    4    1 H      15-25
constraining bond 11 25 to    4.7133300 Å, actual value:    4.2138951 Å

          :  Hamiltonian                  GFN2-xTB          :
 * total energy  :   -42.6932331 Eh     change       -0.6650680E-10 Eh
 * total energy  :   -44.7706711 Eh     change       -0.2077438E+01 Eh
 * total energy  :   -48.2976061 Eh     change       -0.3526935E+01 Eh
 * total energy  :   -53.2153649 Eh     change       -0.4917759E+01 Eh
 * total energy  :   -59.6184194 Eh     change       -0.6403055E+01 Eh
 * total energy  :   -66.4438594 Eh     change       -0.6825440E+01 Eh
 * total energy  :   -67.1067669 Eh     change       -0.6629075E+00 Eh
 * total energy  :   -71.1716433 Eh     change       -0.4064876E+01 Eh
 * total energy  :   -71.8042365 Eh     change       -0.6325931E+00 Eh
 * total energy  :   -72.5490955 Eh     change       -0.7448591E+00 Eh
 * total energy  :   -73.2622824 Eh     change       -0.4772877E-04 Eh
 * total energy  :   -73.2623350 Eh     change       -0.5264171E-04 Eh
 * total energy  :   -73.2623764 Eh     change       -0.4137380E-04 Eh
 * total energy  :   -73.2624239 Eh     change       -0.4755196E-04 Eh
 * total energy  :   -73.2624538 Eh     change       -0.2991594E-04 Eh
 * total energy  :   -73.2624067 Eh     change        0.4709997E-04 Eh
 * total energy  :   -73.2623900 Eh     change        0.1679081E-04 Eh
 * total energy  :   -73.2625081 Eh     change       -0.1181674E-03 Eh
 * total energy  :   -73.2625212 Eh     change       -0.1306995E-04 Eh
   *** GEOMETRY OPTIMIZATION CONVERGED AFTER 71 ITERATIONS ***

 final structure:
================
25
 xtb: 6.6.1 (8d0f1dd)
C            3.29584720211500        1.33350464452522        0.42337826032125
N            2.43944502352514        0.26521074064525       -0.00911842809529
C            2.80275405382096       -0.98795770349222       -0.34793864774709
N            1.76853262519110       -1.73014959793183       -0.68877427764078
C            0.69613423899484       -0.95071085834105       -0.56207336926287
C            1.08002531253669        0.31454672272776       -0.13291691533064
C            0.17156114440140        1.44822087357793        0.01699685499406
O            0.49663264278768        2.61111110166192        0.11184810602620
N           -1.14804457750392        1.06293759218736       -0.05207777281311
C           -2.22726337962355        2.00370910599957        0.00559873622628
C           -0.79642527496037       -1.25949041258862       -0.89157766162026
O           -1.52104092462208       -0.24780028258041        0.04439399236005
N           -1.04816747139608       -2.54018354710178       -0.41820329978404
C           -2.02203290835431       -2.99993208024210        0.43503856852222
H            3.47560976232996        1.26563021985630        1.49879468900250
H            4.25056107399561        1.27269911666433       -0.09670524710454
H            2.81711556443427        2.28969826689871        0.21083830943676
H            3.81418772116358       -1.34320411087100       -0.34379794476511
H           -1.79777292570696        3.00409139353339       -0.01061279384241
H           -2.89015442637245        1.85934668798763       -0.85007238354357
H           -2.80738652593606        1.86249872776752        0.92070136370141
H           -1.53435117040730       -3.47934581010884        1.29840256942782
H           -2.55809536894044       -3.82218104042349       -0.06095626331496
H           -2.71543420005057       -2.22951989214510        0.78786877959055
H           -0.88180569732399       -1.18449131660584       -1.25786360684238

          :  Hamiltonian                  GFN2-xTB          :
         :: total energy             -73.262521200697 Eh    ::
         :: gradient norm              0.002182000195 Eh/a0 ::
         :: HOMO-LUMO gap              0.819946911114 eV    ::
         :: SCC energy               -42.564738800269 Eh    ::
         :: -> dispersion             -0.021298465948 Eh    ::
         :: repulsion energy           2.776069842905 Eh    ::

    * Orbital Energies and Occupations

         #    Occupation            Energy/Eh            Energy/eV
      -------------------------------------------------------------
         1        2.0000           -0.9138635             -24.8675
       ...           ...                  ...                  ...
        25        1.9996           -0.6606138             -17.9762
        26        1.9995           -0.6574193             -17.8893
        27        1.9993           -0.6522953             -17.7499
        28        1.9988           -0.6435667             -17.5123
        29        1.9977           -0.6325128             -17.2115
        30        1.9973           -0.6298572             -17.1393
        31        1.9969           -0.6280596             -17.0904
        32        1.9764           -0.5955424             -16.2055
        33        1.9509           -0.5837426             -15.8844
        34        1.9108           -0.5739588             -15.6182
        35        1.8528           -0.5655421             -15.3892
        36        1.7991           -0.5601538             -15.2426
        37        1.6650           -0.5508264             -14.9887 (HOMO)
        38        0.8513           -0.5206939             -14.1688 (LUMO)
        39        0.0050           -0.4305438             -11.7157
        40        0.0001           -0.3708843             -10.0923
        41        0.0000           -0.3206494              -8.7253
        42        0.0000           -0.2950848              -8.0297
        43                         -0.2109369              -5.7399
        44                         -0.1768892              -4.8134
        45                         -0.1299290              -3.5355
        46                         -0.1060640              -2.8861
        47                         -0.0697349              -1.8976
        48                         -0.0125127              -0.3405
       ...                                ...                  ...
        67                         13.6272493             370.8163
      -------------------------------------------------------------
                  HL-Gap            0.0301325 Eh            0.8199 eV

     #   Z          covCN         q      C6AA      α(0)
     1   6 C        3.689    -0.081    22.252     6.751
     2   7 N        2.844     0.050    20.365     6.702
     3   6 C        3.191     0.092    25.501     8.236
     4   7 N        1.914    -0.162    25.303     7.458
     5   6 C        3.225     0.070    25.714     8.240
     6   6 C        3.124     0.005    27.718     8.621
     7   6 C        2.755     0.258    22.660     7.795
     8   8 O        0.858    -0.342    20.548     6.078
     9   7 N        2.751     0.098    19.558     6.568
    10   6 C        3.689    -0.076    22.156     6.737
    11   6 C        3.629     0.122    18.971     6.273
    12   8 O        1.731    -0.267    18.420     5.795
    13   7 N        1.862    -0.136    24.731     7.371
    14   6 C        3.683    -0.044    21.566     6.650
    15   1 H        0.924     0.106     1.730     2.057
    16   1 H        0.925     0.104     1.750     2.069
    17   1 H        0.924     0.125     1.575     1.963
    18   1 H        0.926     0.113     1.672     2.022
    19   1 H        0.925     0.127     1.561     1.954
    20   1 H        0.924     0.112     1.678     2.026
    21   1 H        0.924     0.115     1.656     2.013
    22   1 H        0.923     0.154     1.368     1.829
    23   1 H        0.923     0.150     1.391     1.844
    24   1 H        0.924     0.106     1.732     2.058
    25   1 H        0.972     0.203     1.078     1.623

Wiberg/Mayer (AO) data.
largest (>0.10) Wiberg bond orders for each atom

     #   Z sym  total        # sym  WBO       # sym  WBO       # sym  WBO
 ---------------------------------------------------------------------------
     1   6 C    3.909 --     2 N    0.993    16 H    0.964    17 H    0.956
                            15 H    0.949
     2   7 N    3.668 --     3 C    1.304     6 C    1.204     1 C    0.993
     3   6 C    3.880 --     4 N    1.443     2 N    1.304    18 H    0.953
     4   7 N    2.995 --     3 C    1.443     5 C    1.365
     5   6 C    3.824 --     6 C    1.369     4 N    1.365    11 C    0.877
     6   6 C    3.854 --     5 C    1.369     2 N    1.204     7 C    1.034
     7   6 C    3.942 --     8 O    1.664     9 N    1.143     6 C    1.034
     8   8 O    1.963 --     7 C    1.664     9 N    0.140
     9   7 N    3.367 --     7 C    1.143    12 O    1.015    10 C    0.996
                             8 O    0.140
    10   6 C    3.890 --     9 N    0.996    19 H    0.957    20 H    0.945
                            21 H    0.942
    11   6 C    3.848 --    13 N    1.176    25 H    0.894     5 C    0.877
                            12 O    0.800
    12   8 O    1.986 --     9 N    1.015    11 C    0.800
    13   7 N    2.502 --    11 C    1.176    14 C    1.167
    14   6 C    3.871 --    13 N    1.167    24 H    0.929    23 H    0.874
                            22 H    0.859
    15   1 H    0.979 --     1 C    0.949
    16   1 H    0.983 --     1 C    0.964
    17   1 H    0.977 --     1 C    0.956
    18   1 H    0.985 --     3 C    0.953
    19   1 H    0.980 --    10 C    0.957
    20   1 H    0.960 --    10 C    0.945
    21   1 H    0.957 --    10 C    0.942
    22   1 H    0.895 --    14 C    0.859
    23   1 H    0.906 --    14 C    0.874
    24   1 H    0.940 --    14 C    0.929
    25   1 H    0.936 --    11 C    0.894
 ---------------------------------------------------------------------------

molecular dipole:
                 x           y           z       tot (Debye)
 q only:       -0.035      -1.002       0.087
   full:       -0.133      -0.748       0.224       2.014

           -------------------------------------------------
          | TOTAL ENERGY              -73.262521200697 Eh   |
          | GRADIENT NORM               0.002182000195 Eh/α |
          | HOMO-LUMO GAP               0.819946911114 eV   |
           -------------------------------------------------

 * finished run on 2024/06/05 at 19:58:04.161
