   * xtb version 6.6.1 (8d0f1dd) compiled by 'conda@1efc2f54142f' on 2023-08-01
          program call               : xtb xtbopt.xyz --opt crude --input .xc2 --gfn2

   ID    Z sym.   atoms
    1    6 C      1, 3, 5-7, 10, 11, 14
    2    7 N      2, 4, 9, 13
    3    8 O      8, 12
    4    1 H      15-25
########################################################################
[WARNING] Please study the warnings concerning your input carefully
-1- readin_getIntValue: could not parse ''
########################################################################

          :  Hamiltonian                  GFN2-xTB          :
 * total energy  :   -39.7885456 Eh     change       -0.1612932E-11 Eh
 * total energy  :   -42.0617384 Eh     change       -0.2273193E+01 Eh
 * total energy  :   -42.0720759 Eh     change       -0.1033746E-01 Eh
 * total energy  :   -42.0773564 Eh     change       -0.5280505E-02 Eh
 * total energy  :   -42.0789094 Eh     change       -0.1553039E-02 Eh
 * total energy  :   -42.0798135 Eh     change       -0.9040733E-03 Eh
 * total energy  :   -42.0809375 Eh     change       -0.1124040E-02 Eh
 * total energy  :   -42.0817034 Eh     change       -0.7659023E-03 Eh
 * total energy  :   -42.0823791 Eh     change       -0.6756539E-03 Eh
 * total energy  :   -42.0827226 Eh     change       -0.3434636E-03 Eh
   *** GEOMETRY OPTIMIZATION CONVERGED AFTER 10 ITERATIONS ***

 final structure:
================
25
 xtb: 6.6.1 (8d0f1dd)
C            3.31198353046529        1.33456682355254        0.42472164303404
N            2.44781407926816        0.26145495185552        0.02214421188620
C            2.80366368359854       -0.99791479939227       -0.30205889469318
N            1.76621851857842       -1.73861824620741       -0.63848747657792
C            0.69745567474565       -0.95035031247783       -0.53120182141402
C            1.09021537554615        0.31640643546654       -0.11174922270763
C            0.17350437180933        1.44396884424978        0.01936830373020
O            0.48896004453419        2.61061695633712        0.10464675420937
N           -1.14077539663429        1.04529064989955       -0.06267239605911
C           -2.23718587794966        1.96262497237690        0.01565770439713
C           -0.76693344630220       -1.24322307612326       -0.74737149203914
O           -1.50855342881657       -0.28441079471262        0.04605586620738
N           -1.08797524179621       -2.53792207590920       -0.45272153184719
C           -2.01045501083859       -2.97340056713865        0.46855107466884
H            3.49831075065634        1.29263880178150        1.50009023681397
H            4.26313027629004        1.25568181881230       -0.09928463838036
H            2.83592873437014        2.28708060896792        0.19172370599649
H            3.81179903688729       -1.36178279609191       -0.28115887956491
H           -1.82897823420838        2.97187465818562        0.00730540153477
H           -2.90438703075185        1.81691623448973       -0.83651826659912
H           -2.80763049593640        1.80086983025081        0.93374125044837
H           -1.47785152773702       -3.49272481807355        1.28382896397071
H           -2.61258256527703       -3.76743333777591        0.00217112006170
H           -2.64910897204661       -2.18880332840057        0.89164098516255
H           -0.99613533435655       -1.04516889232197       -1.81725098433710

          :  Hamiltonian                  GFN2-xTB          :
         :: total energy             -42.082722555999 Eh    ::
         :: gradient norm              0.007259732924 Eh/a0 ::
         :: HOMO-LUMO gap              0.809220664412 eV    ::
         :: SCC energy               -42.567728112677 Eh    ::
         :: -> dispersion             -0.021354571340 Eh    ::
         :: repulsion energy           0.484874065744 Eh    ::

    * Orbital Energies and Occupations

         #    Occupation            Energy/Eh            Energy/eV
      -------------------------------------------------------------
         1        2.0000           -0.9149065             -24.8959
       ...           ...                  ...                  ...
        25        1.9996           -0.6592481             -17.9391
        26        1.9995           -0.6549876             -17.8231
        27        1.9993           -0.6510335             -17.7155
        28        1.9988           -0.6413215             -17.4512
        29        1.9978           -0.6319520             -17.1963
        30        1.9973           -0.6291775             -17.1208
        31        1.9968           -0.6261516             -17.0385
        32        1.9756           -0.5939308             -16.1617
        33        1.9475           -0.5815858             -15.8258
        34        1.9078           -0.5723316             -15.5739
        35        1.8448           -0.5635588             -15.3352
        36        1.8010           -0.5592450             -15.2178
        37        1.6657           -0.5497980             -14.9608 (HOMO)
        38        0.8648           -0.5200597             -14.1515 (LUMO)
        39        0.0044           -0.4275839             -11.6351
        40        0.0001           -0.3684524             -10.0261
        41        0.0000           -0.3176274              -8.6431
        42        0.0000           -0.2715486              -7.3892
        43                         -0.1726641              -4.6984
        44                         -0.1438863              -3.9153
        45                         -0.1074106              -2.9228
        46                         -0.0932678              -2.5379
        47                         -0.0332656              -0.9052
        48                         -0.0112356              -0.3057
       ...                                ...                  ...
        67                          0.5049712              13.7410
      -------------------------------------------------------------
                  HL-Gap            0.0297383 Eh            0.8092 eV

     #   Z          covCN         q      C6AA      α(0)
     1   6 C        3.690    -0.081    22.238     6.749
     2   7 N        2.840     0.050    20.369     6.703
     3   6 C        3.193     0.092    25.493     8.234
     4   7 N        1.914    -0.163    25.311     7.459
     5   6 C        3.213     0.066    25.892     8.280
     6   6 C        3.131     0.004    27.720     8.619
     7   6 C        2.755     0.258    22.650     7.793
     8   8 O        0.858    -0.343    20.582     6.083
     9   7 N        2.753     0.085    19.761     6.602
    10   6 C        3.689    -0.076    22.151     6.736
    11   6 C        3.669     0.185    17.882     6.062
    12   8 O        1.764    -0.231    17.822     5.700
    13   7 N        1.827    -0.129    24.570     7.345
    14   6 C        3.687    -0.044    21.564     6.647
    15   1 H        0.924     0.106     1.734     2.059
    16   1 H        0.925     0.103     1.755     2.072
    17   1 H        0.925     0.124     1.585     1.969
    18   1 H        0.926     0.112     1.679     2.026
    19   1 H        0.925     0.128     1.550     1.947
    20   1 H        0.924     0.111     1.692     2.034
    21   1 H        0.924     0.114     1.667     2.019
    22   1 H        0.923     0.155     1.361     1.824
    23   1 H        0.923     0.149     1.397     1.849
    24   1 H        0.924     0.104     1.751     2.069
    25   1 H        0.921     0.123     1.593     1.974

Wiberg/Mayer (AO) data.
largest (>0.10) Wiberg bond orders for each atom

     #   Z sym  total        # sym  WBO       # sym  WBO       # sym  WBO
 ---------------------------------------------------------------------------
     1   6 C    3.910 --     2 N    0.994    16 H    0.965    17 H    0.957
                            15 H    0.950
     2   7 N    3.667 --     3 C    1.302     6 C    1.205     1 C    0.994
     3   6 C    3.878 --     4 N    1.446     2 N    1.302    18 H    0.953
     4   7 N    2.990 --     3 C    1.446     5 C    1.360
     5   6 C    3.847 --     6 C    1.362     4 N    1.360    11 C    0.928
     6   6 C    3.850 --     5 C    1.362     2 N    1.205     7 C    1.036
     7   6 C    3.945 --     8 O    1.661     9 N    1.148     6 C    1.036
     8   8 O    1.966 --     7 C    1.661     9 N    0.147
     9   7 N    3.353 --     7 C    1.148    10 C    0.998    12 O    0.988
                             8 O    0.147
    10   6 C    3.892 --     9 N    0.998    19 H    0.956    20 H    0.947
                            21 H    0.943
    11   6 C    3.907 --    13 N    1.143     5 C    0.928    12 O    0.898
                            25 H    0.859
    12   8 O    2.043 --     9 N    0.988    11 C    0.898
    13   7 N    2.447 --    14 C    1.171    11 C    1.143
    14   6 C    3.870 --    13 N    1.171    24 H    0.928    23 H    0.880
                            22 H    0.853
    15   1 H    0.979 --     1 C    0.950
    16   1 H    0.983 --     1 C    0.965
    17   1 H    0.978 --     1 C    0.957
    18   1 H    0.985 --     3 C    0.953
    19   1 H    0.980 --    10 C    0.956
    20   1 H    0.962 --    10 C    0.947
    21   1 H    0.959 --    10 C    0.943
    22   1 H    0.888 --    14 C    0.853
    23   1 H    0.911 --    14 C    0.880
    24   1 H    0.939 --    14 C    0.928
    25   1 H    0.905 --    11 C    0.859
 ---------------------------------------------------------------------------

molecular dipole:
                 x           y           z       tot (Debye)
 q only:       -0.077      -1.000       0.157
   full:       -0.148      -0.732       0.260       2.009

           -------------------------------------------------
          | TOTAL ENERGY              -42.082722555999 Eh   |
          | GRADIENT NORM               0.007259732924 Eh/α |
          | HOMO-LUMO GAP               0.809220664412 eV   |
           -------------------------------------------------

 * finished run on 2024/06/05 at 19:58:04.572
