   * xtb version 6.6.1 (8d0f1dd) compiled by 'conda@1efc2f54142f' on 2023-08-01
          program call               : xtb struc.xyz --opt loose --input .xc1 --gfn2

   ID    Z sym.   atoms
    1    6 C      1, 3, 5-7, 10, 11, 14
    2    7 N      2, 4, 9, 13
    3    8 O      8, 12
    4    1 H      15-25
constraining bond 2 4 to    4.8400000 Å, actual value:    2.1863596 Å

          :  Hamiltonian                  GFN2-xTB          :
 * total energy  :   -29.6719102 Eh     change       -0.6633627E-10 Eh
 * total energy  :   -33.9941703 Eh     change       -0.4322260E+01 Eh
 * total energy  :   -36.9638674 Eh     change       -0.2969697E+01 Eh
 * total energy  :   -39.1195117 Eh     change       -0.2155644E+01 Eh
 * total energy  :   -40.7425170 Eh     change       -0.1623005E+01 Eh
 * total energy  :   -41.3592473 Eh     change       -0.6167303E+00 Eh
 * total energy  :   -41.4340320 Eh     change       -0.7478467E-01 Eh
 * total energy  :   -41.4592111 Eh     change       -0.2517909E-01 Eh
 * total energy  :   -41.4801154 Eh     change       -0.2090430E-01 Eh
 * total energy  :   -41.4945316 Eh     change       -0.1441620E-01 Eh
 * total energy  :   -42.1257487 Eh     change       -0.2071386E-03 Eh
 * total energy  :   -42.1257900 Eh     change       -0.4130273E-04 Eh
 * total energy  :   -42.1260275 Eh     change       -0.2374846E-03 Eh
 * total energy  :   -42.1259967 Eh     change        0.3078049E-04 Eh
 * total energy  :   -42.1261023 Eh     change       -0.1055757E-03 Eh
 * total energy  :   -42.1261509 Eh     change       -0.4857947E-04 Eh
 * total energy  :   -42.1262146 Eh     change       -0.6370930E-04 Eh
 * total energy  :   -42.1262558 Eh     change       -0.4122864E-04 Eh
 * total energy  :   -42.1263037 Eh     change       -0.4786229E-04 Eh
   *** GEOMETRY OPTIMIZATION CONVERGED AFTER 68 ITERATIONS ***

 final structure:
================
25
 xtb: 6.6.1 (8d0f1dd)
C            4.04056612800011        1.44511666696810        0.55420800436362
N            2.84624924806508        1.21318691586576        0.16290141446290
C            2.25644232301992       -0.07541311458093        0.04146278777070
N            0.35555242161941       -2.78407305560844       -0.87325947319527
C            0.15301558323965       -1.62515472104929       -0.37925276035060
C            0.94657335031083       -0.30773383818577       -0.28070614521087
C            0.10867685038347        0.92267867531718       -0.45572200345500
O            0.62466285247603        2.00034217140746       -0.74163216163868
N           -1.21169919918935        0.82681555256226       -0.20707422435693
C           -2.02552266765843        2.02899343197940       -0.30171667788877
C           -1.84666949565009       -0.33593429875491        0.26192673960664
O           -2.97421961930702       -0.30372595489636        0.66577090882347
N           -1.09880286284773       -1.48897997547332        0.20088947030229
C           -1.81178618108557       -2.72547593266106        0.48218288107869
H            4.70987762494882        0.64370811005272        0.84079904497671
H            4.39388722995167        2.46432460888269        0.60264477366159
H            2.16071509699668        1.94282387894536       -0.17947855518299
H            2.92168399329179       -0.90175802226728        0.26524986591977
H           -1.41703129201708        2.89371619477860       -0.04498078563566
H           -2.39624815261951        2.14480610668049       -1.32019209624210
H           -2.86757974715832        1.93138018467399        0.37940467788057
H           -1.16587490698053       -3.38715849284335        1.05486389925432
H           -2.08241786117249       -3.22669681117032       -0.44739209406247
H           -2.70998183002749       -2.48267738724500        1.04510572249668
H            1.25036262750769       -2.99487235178042       -1.29483159547929

          :  Hamiltonian                  GFN2-xTB          :
         :: total energy             -42.126303691134 Eh    ::
         :: gradient norm              0.002223648807 Eh/a0 ::
         :: HOMO-LUMO gap              1.135242641509 eV    ::
         :: SCC energy               -42.646950447868 Eh    ::
         :: -> dispersion             -0.021791945147 Eh    ::
         :: repulsion energy           0.519990724710 Eh    ::

    * Orbital Energies and Occupations

         #    Occupation            Energy/Eh            Energy/eV
      -------------------------------------------------------------
         1        2.0000           -0.8844735             -24.0678
       ...           ...                  ...                  ...
        25        2.0000           -0.6635370             -18.0558
        26        2.0000           -0.6550171             -17.8239
        27        2.0000           -0.6540787             -17.7984
        28        2.0000           -0.6329016             -17.2221
        29        2.0000           -0.6233832             -16.9631
        30        2.0000           -0.6084530             -16.5568
        31        1.9999           -0.6034807             -16.4215
        32        1.9998           -0.5989354             -16.2979
        33        1.9987           -0.5823070             -15.8454
        34        1.9957           -0.5728239             -15.5873
        35        1.9943           -0.5704868             -15.5237
        36        1.9524           -0.5535905             -15.0640
        37        1.8927           -0.5469027             -14.8820 (HOMO)
        38        0.1664           -0.5051833             -13.7467 (LUMO)
        39        0.0000           -0.4374821             -11.9045
        40                         -0.3904818             -10.6256
        41                         -0.3736019             -10.1662
        42                         -0.3092967              -8.4164
        43                         -0.2134268              -5.8076
        44                         -0.1674775              -4.5573
        45                         -0.1261315              -3.4322
        46                         -0.1206140              -3.2821
        47                         -0.0767837              -2.0894
        48                         -0.0636039              -1.7307
       ...                                ...                  ...
        67                          0.5389944              14.6668
      -------------------------------------------------------------
                  HL-Gap            0.0417194 Eh            1.1352 eV

     #   Z          covCN         q      C6AA      α(0)
     1   6 C        2.778     0.015    27.663     8.615
     2   7 N        2.677     0.024    20.828     6.778
     3   6 C        2.844     0.018    27.594     8.609
     4   7 N        1.802    -0.264    27.694     7.796
     5   6 C        2.817     0.164    24.458     8.103
     6   6 C        2.942    -0.028    28.693     8.785
     7   6 C        2.782     0.268    22.483     7.766
     8   8 O        0.860    -0.409    21.852     6.268
     9   7 N        2.739    -0.068    22.562     7.055
    10   6 C        3.706    -0.062    21.848     6.682
    11   6 C        2.718     0.324    21.498     7.590
    12   8 O        0.860    -0.347    20.650     6.093
    13   7 N        2.770    -0.054    22.285     7.011
    14   6 C        3.713    -0.073    22.038     6.708
    15   1 H        0.925     0.138     1.477     1.901
    16   1 H        0.926     0.145     1.423     1.865
    17   1 H        0.857     0.292     0.736     1.344
    18   1 H        0.925     0.101     1.775     2.084
    19   1 H        0.925     0.101     1.777     2.085
    20   1 H        0.925     0.097     1.810     2.104
    21   1 H        0.925     0.112     1.679     2.027
    22   1 H        0.925     0.097     1.810     2.104
    23   1 H        0.924     0.109     1.709     2.045
    24   1 H        0.925     0.116     1.645     2.006
    25   1 H        0.860     0.184     1.194     1.711

Wiberg/Mayer (AO) data.
largest (>0.10) Wiberg bond orders for each atom

     #   Z sym  total        # sym  WBO       # sym  WBO       # sym  WBO
 ---------------------------------------------------------------------------
     1   6 C    3.744 --     2 N    1.710    16 H    0.953    15 H    0.951
     2   7 N    3.677 --     1 C    1.710     3 C    1.102    17 H    0.786
     3   6 C    3.925 --     6 C    1.689     2 N    1.102    18 H    0.954
     4   7 N    2.990 --     5 C    1.776    25 H    0.936
     5   6 C    3.959 --     4 N    1.776    13 N    1.124     6 C    0.971
     6   6 C    3.902 --     3 C    1.689     7 C    0.996     5 C    0.971
     7   6 C    3.950 --     8 O    1.596     9 N    1.245     6 C    0.996
     8   8 O    2.052 --     7 C    1.596     9 N    0.159
     9   7 N    3.582 --     7 C    1.245    11 C    1.033    10 C    0.968
                             8 O    0.159
    10   6 C    3.916 --     9 N    0.968    19 H    0.968    21 H    0.967
                            20 H    0.960
    11   6 C    3.960 --    12 O    1.715    13 N    1.123     9 N    1.033
    12   8 O    2.074 --    11 C    1.715    13 N    0.128
    13   7 N    3.531 --     5 C    1.124    11 C    1.123    14 C    0.969
                            12 O    0.128
    14   6 C    3.905 --    13 N    0.969    22 H    0.968    24 H    0.965
                            23 H    0.953
    15   1 H    0.981 --     1 C    0.951
    16   1 H    0.978 --     1 C    0.953
    17   1 H    0.914 --     2 N    0.786
    18   1 H    0.988 --     3 C    0.954
    19   1 H    0.988 --    10 C    0.968
    20   1 H    0.983 --    10 C    0.960
    21   1 H    0.986 --    10 C    0.967
    22   1 H    0.985 --    14 C    0.968
    23   1 H    0.973 --    14 C    0.953
    24   1 H    0.983 --    14 C    0.965
    25   1 H    0.961 --     4 N    0.936
 ---------------------------------------------------------------------------

molecular dipole:
                 x           y           z       tot (Debye)
 q only:        3.360       0.329       0.445
   full:        3.874       0.501       0.340       9.967

           -------------------------------------------------
          | TOTAL ENERGY              -42.126303691134 Eh   |
          | GRADIENT NORM               0.002223648807 Eh/α |
          | HOMO-LUMO GAP               1.135242641509 eV   |
           -------------------------------------------------

 * finished run on 2024/06/05 at 19:57:54.066
