   * xtb version 6.6.1 (8d0f1dd) compiled by 'conda@1efc2f54142f' on 2023-08-01
          program call               : xtb xtbopt.xyz --opt crude --input .xc2 --gfn2

   ID    Z sym.   atoms
    1    6 C      1, 3, 5-7, 10, 11, 14
    2    7 N      2, 4, 9, 13
    3    8 O      8, 12
    4    1 H      15-25
########################################################################
[WARNING] Please study the warnings concerning your input carefully
-1- readin_getIntValue: could not parse ''
########################################################################

          :  Hamiltonian                  GFN2-xTB          :
 * total energy  :   -42.1268584 Eh     change       -0.1847411E-12 Eh
 * total energy  :   -42.1348885 Eh     change       -0.8030062E-02 Eh
 * total energy  :   -42.1393822 Eh     change       -0.4493715E-02 Eh
 * total energy  :   -42.1406933 Eh     change       -0.1311117E-02 Eh
 * total energy  :   -42.1416008 Eh     change       -0.9075464E-03 Eh
 * total energy  :   -42.1422858 Eh     change       -0.6849618E-03 Eh
 * total energy  :   -42.1428182 Eh     change       -0.5323729E-03 Eh
 * total energy  :   -42.1432837 Eh     change       -0.4654669E-03 Eh
   *** GEOMETRY OPTIMIZATION CONVERGED AFTER 8 ITERATIONS ***

 final structure:
================
25
 xtb: 6.6.1 (8d0f1dd)
C            4.09577135351480        1.27386874399314        0.36742732626953
N            2.86909567139813        1.07922374421031        0.03730097333973
C            2.21655153549179       -0.12879950866074        0.00625767578839
N            0.68692999448954       -2.63052466168274       -0.50376561398428
C            0.17070525606027       -1.50962428285307       -0.20903191342285
C            0.87228885586279       -0.20656673418835       -0.17234026080145
C            0.05824181444173        1.02485855504109       -0.29868475904496
O            0.58793125175124        2.11708894857139       -0.48573372386089
N           -1.27767174970960        0.87655534038200       -0.16154744408663
C           -2.12153475585099        2.05596981590026       -0.27249433281071
C           -1.92287440634939       -0.32828924400440        0.19202073049909
O           -3.07987673844009       -0.33965580557199        0.50374414272826
N           -1.15436380809987       -1.47230305877440        0.13611488167009
C           -1.81705296923125       -2.74472735047367        0.35970040678618
H            4.73339151387876        0.44780486879238        0.65641366490393
H            4.49881043871981        2.27378218365206        0.36567650491402
H            2.19438194014943        1.86050267558444       -0.21949916533902
H            2.81091495023306       -1.01891084883149        0.17207241977868
H           -1.55008650649503        2.93186120804306        0.02761107859770
H           -2.44751022837016        2.17861741553545       -1.30601099603442
H           -2.99410354237743        1.92578853474605        0.36341414043919
H           -1.16384483602972       -3.37914983339658        0.95567404908374
H           -2.00842904596595       -3.24357127660535       -0.59093483146111
H           -2.75693391507450       -2.56287204909615        0.87536979018407
H            1.65969944010022       -2.66268883871525       -0.76758312623714

          :  Hamiltonian                  GFN2-xTB          :
         :: total energy             -42.143283650527 Eh    ::
         :: gradient norm              0.005543946002 Eh/a0 ::
         :: HOMO-LUMO gap              1.068834158680 eV    ::
         :: SCC energy               -42.681248044369 Eh    ::
         :: -> dispersion             -0.021964175941 Eh    ::
         :: repulsion energy           0.537889543811 Eh    ::

    * Orbital Energies and Occupations

         #    Occupation            Energy/Eh            Energy/eV
      -------------------------------------------------------------
         1        2.0000           -0.8877800             -24.1577
       ...           ...                  ...                  ...
        25        2.0000           -0.6658636             -18.1191
        26        2.0000           -0.6602067             -17.9651
        27        2.0000           -0.6571562             -17.8821
        28        2.0000           -0.6364259             -17.3180
        29        2.0000           -0.6286639             -17.1068
        30        1.9999           -0.6077873             -16.5387
        31        1.9999           -0.6043916             -16.4463
        32        1.9998           -0.6009736             -16.3533
        33        1.9987           -0.5855891             -15.9347
        34        1.9953           -0.5756669             -15.6647
        35        1.9923           -0.5717183             -15.5572
        36        1.9404           -0.5552580             -15.1093
        37        1.8784           -0.5493620             -14.9489 (HOMO)
        38        0.1953           -0.5100831             -13.8801 (LUMO)
        39        0.0000           -0.4348664             -11.8333
        40                         -0.3888558             -10.5813
        41                         -0.3689344             -10.0392
        42                         -0.2933838              -7.9834
        43                         -0.1793634              -4.8807
        44                         -0.1559868              -4.2446
        45                         -0.1328927              -3.6162
        46                         -0.1025347              -2.7901
        47                         -0.0657281              -1.7886
        48                         -0.0517992              -1.4095
       ...                                ...                  ...
        67                          0.5462500              14.8642
      -------------------------------------------------------------
                  HL-Gap            0.0392789 Eh            1.0688 eV

     #   Z          covCN         q      C6AA      α(0)
     1   6 C        2.785     0.008    27.826     8.641
     2   7 N        2.683     0.027    20.789     6.772
     3   6 C        2.851     0.020    27.559     8.604
     4   7 N        1.791    -0.275    27.971     7.834
     5   6 C        2.831     0.166    24.412     8.097
     6   6 C        2.959    -0.033    28.810     8.804
     7   6 C        2.775     0.268    22.478     7.765
     8   8 O        0.859    -0.403    21.748     6.253
     9   7 N        2.739    -0.067    22.532     7.050
    10   6 C        3.705    -0.063    21.861     6.684
    11   6 C        2.714     0.323    21.517     7.593
    12   8 O        0.859    -0.343    20.575     6.082
    13   7 N        2.755    -0.045    22.119     6.985
    14   6 C        3.708    -0.073    22.044     6.711
    15   1 H        0.925     0.135     1.496     1.913
    16   1 H        0.926     0.144     1.433     1.872
    17   1 H        0.856     0.294     0.733     1.341
    18   1 H        0.925     0.101     1.773     2.082
    19   1 H        0.925     0.104     1.753     2.070
    20   1 H        0.924     0.097     1.811     2.104
    21   1 H        0.925     0.112     1.676     2.025
    22   1 H        0.925     0.102     1.763     2.077
    23   1 H        0.924     0.105     1.742     2.064
    24   1 H        0.925     0.115     1.652     2.010
    25   1 H        0.860     0.181     1.206     1.720

Wiberg/Mayer (AO) data.
largest (>0.10) Wiberg bond orders for each atom

     #   Z sym  total        # sym  WBO       # sym  WBO       # sym  WBO
 ---------------------------------------------------------------------------
     1   6 C    3.742 --     2 N    1.669    16 H    0.956    15 H    0.953
                             6 C    0.102
     2   7 N    3.682 --     1 C    1.669     3 C    1.152    17 H    0.781
     3   6 C    3.914 --     6 C    1.630     2 N    1.152    18 H    0.947
     4   7 N    2.947 --     5 C    1.712    25 H    0.933    13 N    0.103
     5   6 C    3.965 --     4 N    1.712    13 N    1.150     6 C    1.020
     6   6 C    3.899 --     3 C    1.630     5 C    1.020     7 C    1.014
                             1 C    0.102
     7   6 C    3.949 --     8 O    1.595     9 N    1.237     6 C    1.014
     8   8 O    2.059 --     7 C    1.595     9 N    0.163
     9   7 N    3.579 --     7 C    1.237    11 C    1.032    10 C    0.971
                             8 O    0.163
    10   6 C    3.915 --     9 N    0.971    19 H    0.968    21 H    0.966
                            20 H    0.958
    11   6 C    3.959 --    12 O    1.722    13 N    1.118     9 N    1.032
    12   8 O    2.069 --    11 C    1.722    13 N    0.125
    13   7 N    3.551 --     5 C    1.150    11 C    1.118    14 C    0.971
                            12 O    0.125     4 N    0.103
    14   6 C    3.907 --    13 N    0.971    24 H    0.967    22 H    0.965
                            23 H    0.955
    15   1 H    0.981 --     1 C    0.953
    16   1 H    0.978 --     1 C    0.956
    17   1 H    0.913 --     2 N    0.781
    18   1 H    0.988 --     3 C    0.947
    19   1 H    0.987 --    10 C    0.968
    20   1 H    0.982 --    10 C    0.958
    21   1 H    0.985 --    10 C    0.966
    22   1 H    0.984 --    14 C    0.965
    23   1 H    0.977 --    14 C    0.955
    24   1 H    0.984 --    14 C    0.967
    25   1 H    0.961 --     4 N    0.933
 ---------------------------------------------------------------------------

molecular dipole:
                 x           y           z       tot (Debye)
 q only:        3.246       0.237       0.232
   full:        3.690       0.438       0.169       9.454

           -------------------------------------------------
          | TOTAL ENERGY              -42.143283650527 Eh   |
          | GRADIENT NORM               0.005543946002 Eh/α |
          | HOMO-LUMO GAP               1.068834158680 eV   |
           -------------------------------------------------

 * finished run on 2024/06/05 at 19:57:54.633
