   * xtb version 6.6.1 (8d0f1dd) compiled by 'conda@1efc2f54142f' on 2023-08-01
          program call               : xtb struc.xyz --opt loose --input .xc1 --gfn2

   ID    Z sym.   atoms
    1    6 C      1, 3, 5-7, 10, 11, 14
    2    7 N      2, 4, 9, 13
    3    8 O      8, 12
    4    1 H      15-25
constraining bond 2 16 to    4.0600000 Å, actual value:    2.0856233 Å

          :  Hamiltonian                  GFN2-xTB          :
 * total energy  :   -35.2875630 Eh     change       -0.6650680E-10 Eh
 * total energy  :   -38.2934665 Eh     change       -0.3005904E+01 Eh
 * total energy  :   -40.4360079 Eh     change       -0.2142541E+01 Eh
 * total energy  :   -41.4742998 Eh     change       -0.1038292E+01 Eh
 * total energy  :   -41.8040224 Eh     change       -0.3297226E+00 Eh
 * total energy  :   -41.8571158 Eh     change       -0.5309346E-01 Eh
 * total energy  :   -41.8825234 Eh     change       -0.2540755E-01 Eh
 * total energy  :   -41.9501396 Eh     change       -0.6761618E-01 Eh
 * total energy  :   -41.9722162 Eh     change       -0.2207664E-01 Eh
 * total energy  :   -41.9918363 Eh     change       -0.1962008E-01 Eh
 * total energy  :   -42.1053792 Eh     change       -0.1335596E-02 Eh
 * total energy  :   -42.1066996 Eh     change       -0.1320461E-02 Eh
 * total energy  :   -42.1072086 Eh     change       -0.5089592E-03 Eh
 * total energy  :   -42.1075544 Eh     change       -0.3458078E-03 Eh
 * total energy  :   -42.1077751 Eh     change       -0.2207354E-03 Eh
 * total energy  :   -42.1078803 Eh     change       -0.1052086E-03 Eh
 * total energy  :   -42.1079607 Eh     change       -0.8033263E-04 Eh
 * total energy  :   -42.1080200 Eh     change       -0.5931243E-04 Eh
 * total energy  :   -42.1080542 Eh     change       -0.3425460E-04 Eh
   *** GEOMETRY OPTIMIZATION CONVERGED AFTER 33 ITERATIONS ***

 final structure:
================
25
 xtb: 6.6.1 (8d0f1dd)
C            3.08597522949880        1.02310668809274        0.23378162986860
N            2.21235420548778        0.02475075029983        0.18029098369930
C            2.46380626792374       -1.30543353898212        0.18840558120266
N            1.29499371699294       -1.99836037600924        0.12046947245687
C            0.27242068674976       -1.10220218181519        0.06998954382731
C            0.82797137914745        0.16553175885170        0.10445865443124
C            0.01364234159060        1.35893997870078        0.06452349151490
O            0.42211923953986        2.49514992814996        0.07721098861609
N           -1.34519560474016        1.04073999777424        0.00758240877337
C           -2.29100013615888        2.14796085689047       -0.01732576760788
C           -1.92292034480275       -0.21476507041279       -0.03567574793649
O           -3.10931123891769       -0.37533158555199       -0.09508370542739
N           -1.04915860319523       -1.32435550859141       -0.00616248149107
C           -1.60852054184249       -2.66043631400661       -0.05465164390872
H            4.13333570590526        0.80069204208727        0.30553225143141
H            5.26463506640948        2.17235072343217       -1.41831430828061
H            2.71173167318991        2.03199236114613        0.20969961149473
H            3.43555805492385       -1.74944564136631        0.24894287444912
H           -1.72528811358543        3.07674837925946       -0.01586320383356
H           -2.91397953214875        2.08301555504263       -0.90924680231992
H           -2.93986381632075        2.09965453325889        0.85760233159925
H           -1.33788404167855       -3.22120892670989        0.84030979334526
H           -1.26484856178369       -3.18578046133314       -0.94601792943576
H           -2.69232167129600       -2.55991197350015       -0.09751082711563
H            1.22218015318506       -3.00516343306111        0.11822441853762

          :  Hamiltonian                  GFN2-xTB          :
         :: total energy             -42.108054244356 Eh    ::
         :: gradient norm              0.002410080113 Eh/a0 ::
         :: HOMO-LUMO gap              0.337154229798 eV    ::
         :: SCC energy               -42.631359813856 Eh    ::
         :: -> dispersion             -0.022747872058 Eh    ::
         :: repulsion energy           0.523214664112 Eh    ::

    * Orbital Energies and Occupations

         #    Occupation            Energy/Eh            Energy/eV
      -------------------------------------------------------------
         1        2.0000           -0.9114232             -24.8011
       ...           ...                  ...                  ...
        25        1.9999           -0.6685340             -18.1917
        26        1.9999           -0.6682576             -18.1842
        27        1.9999           -0.6590282             -17.9331
        28        1.9995           -0.6374414             -17.3457
        29        1.9994           -0.6329153             -17.2225
        30        1.9991           -0.6275646             -17.0769
        31        1.9986           -0.6198386             -16.8667
        32        1.9953           -0.6006759             -16.3452
        33        1.9846           -0.5819108             -15.8346
        34        1.9554           -0.5648417             -15.3701
        35        1.9495           -0.5628489             -15.3159
        36        1.9439           -0.5611407             -15.2694
        37        1.2749           -0.5139300             -13.9847 (HOMO)
        38        0.8913           -0.5015398             -13.6476 (LUMO)
        39        0.0054           -0.4113976             -11.1947
        40        0.0030           -0.4022827             -10.9467
        41        0.0004           -0.3689523             -10.0397
        42        0.0000           -0.2871721              -7.8144
        43                         -0.2075438              -5.6476
        44                         -0.1868495              -5.0844
        45                         -0.1451002              -3.9484
        46                         -0.1159465              -3.1551
        47                         -0.0838828              -2.2826
        48                         -0.0506720              -1.3789
       ...                                ...                  ...
        67                          0.5543543              15.0847
      -------------------------------------------------------------
                  HL-Gap            0.0123902 Eh            0.3372 eV

     #   Z          covCN         q      C6AA      α(0)
     1   6 C        2.790    -0.069    29.709     8.928
     2   7 N        2.809     0.130    19.032     6.479
     3   6 C        3.038     0.026    27.389     8.584
     4   7 N        2.779    -0.058    22.362     7.023
     5   6 C        3.023     0.119    25.350     8.259
     6   6 C        3.109    -0.038    28.790     8.791
     7   6 C        2.764     0.275    22.352     7.743
     8   8 O        0.858    -0.356    20.821     6.118
     9   7 N        2.746    -0.081    22.812     7.094
    10   6 C        3.710    -0.062    21.842     6.679
    11   6 C        2.728     0.318    21.591     7.607
    12   8 O        0.860    -0.349    20.689     6.098
    13   7 N        2.738    -0.053    22.262     7.008
    14   6 C        3.697    -0.073    22.075     6.721
    15   1 H        0.926     0.109     1.703     2.041
    16   1 H        0.000     0.047     5.870     4.430
    17   1 H        0.926     0.140     1.458     1.888
    18   1 H        0.927     0.121     1.601     1.979
    19   1 H        0.925     0.117     1.642     2.004
    20   1 H        0.925     0.104     1.747     2.067
    21   1 H        0.924     0.103     1.758     2.073
    22   1 H        0.924     0.085     1.924     2.169
    23   1 H        0.924     0.086     1.917     2.165
    24   1 H        0.925     0.129     1.541     1.941
    25   1 H        0.860     0.228     0.972     1.544

Wiberg/Mayer (AO) data.
largest (>0.10) Wiberg bond orders for each atom

     #   Z sym  total        # sym  WBO       # sym  WBO       # sym  WBO
 ---------------------------------------------------------------------------
     1   6 C    3.407 --     2 N    1.332    15 H    0.962    17 H    0.956
     2   7 N    3.764 --     1 C    1.332     3 C    1.246     6 C    1.088
     3   6 C    3.642 --     2 N    1.246     4 N    1.242    18 H    0.955
     4   7 N    3.527 --     3 C    1.242     5 C    1.193    25 H    0.919
     5   6 C    3.938 --     6 C    1.350    13 N    1.218     4 N    1.193
     6   6 C    3.845 --     5 C    1.350     2 N    1.088     7 C    1.084
     7   6 C    3.959 --     8 O    1.687     9 N    1.093     6 C    1.084
     8   8 O    2.021 --     7 C    1.687     9 N    0.139
     9   7 N    3.531 --    11 C    1.125     7 C    1.093    10 C    0.972
                             8 O    0.139    12 O    0.133
    10   6 C    3.898 --     9 N    0.972    19 H    0.965    20 H    0.958
                            21 H    0.957
    11   6 C    3.958 --    12 O    1.706     9 N    1.125    13 N    1.035
    12   8 O    2.046 --    11 C    1.706     9 N    0.133    13 N    0.118
    13   7 N    3.532 --     5 C    1.218    11 C    1.035    14 C    0.975
                            12 O    0.118
    14   6 C    3.919 --    13 N    0.975    22 H    0.968    23 H    0.968
                            24 H    0.963
    15   1 H    0.987 --     1 C    0.962
    16   1 H    0.025
    17   1 H    0.980 --     1 C    0.956
    18   1 H    0.984 --     3 C    0.955
    19   1 H    0.983 --    10 C    0.965
    20   1 H    0.977 --    10 C    0.958
    21   1 H    0.976 --    10 C    0.957
    22   1 H    0.986 --    14 C    0.968
    23   1 H    0.986 --    14 C    0.968
    24   1 H    0.982 --    14 C    0.963
    25   1 H    0.947 --     4 N    0.919
 ---------------------------------------------------------------------------

molecular dipole:
                 x           y           z       tot (Debye)
 q only:        2.292      -1.968       0.092
   full:        2.574      -2.438       0.109       9.015

           -------------------------------------------------
          | TOTAL ENERGY              -42.108054244356 Eh   |
          | GRADIENT NORM               0.002410080113 Eh/α |
          | HOMO-LUMO GAP               0.337154229798 eV   |
           -------------------------------------------------

 * finished run on 2024/06/05 at 19:57:50.677
