   * xtb version 6.6.1 (8d0f1dd) compiled by 'conda@1efc2f54142f' on 2023-08-01
          program call               : xtb xtbopt.xyz --opt crude --input .xc2 --gfn2

   ID    Z sym.   atoms
    1    7 N      1, 17
    2    6 C      2-6, 8, 9, 11-16, 18-23, 25, 26, 28-33
    3    8 O      7, 10, 24, 27
    4    1 H      34-72

          :  Hamiltonian                  GFN2-xTB          :
 * total energy  :   -99.2392000 Eh     change       -0.3765876E-10 Eh
   *** GEOMETRY OPTIMIZATION CONVERGED AFTER 1 ITERATIONS ***

 final structure:
================
72
 xtb: 6.6.1 (8d0f1dd)
N           -1.88603722795877        2.79497888699824        2.24058503941358
C           -1.82639636038600        2.12522742590948        1.18970899245331
C           -2.97112664127841        1.91559253647511        0.23801812837325
C           -3.44617561851314        0.47218977262784        0.31939689560961
C           -4.39545941753836        0.00653474761179       -0.59250235003700
C           -4.87808431063690       -1.29052352207482       -0.53773721832297
O           -5.80453741906424       -1.81153349751121       -1.36595461801472
C           -6.43678421682689       -0.97592714685701       -2.30739092030080
C           -4.38505537636769       -2.17951114654237        0.45695582723471
O           -4.90366577503982       -3.42177933043666        0.43048749714170
C           -4.52842183709119       -4.34602067130669        1.42528762264260
C           -3.44018454162491       -1.71177080533627        1.35658562724429
C           -2.98098114252910       -0.40193189162674        1.29016738382849
C           -2.40859192635701        2.20541891987268       -1.17820166122455
C           -1.46761454768140        1.11499221252363       -1.72121831555252
C           -0.13715895314221        1.10099205076671       -1.07219106166716
N            0.52030103816022        0.01467013012745       -0.69118130178170
C            1.89769574333577        0.09734606957737       -0.26398476334892
C            2.86601246046631       -0.40764834588552       -1.35172708922725
C            4.28607520832041       -0.23084554627145       -0.89090961772237
C            4.94042853987190        0.98812319996897       -1.09997767953786
C            6.21136323136902        1.12254671295277       -0.63473653715057
C            6.92320772572120        0.15115292364438        0.02884851515366
O            8.17452505984066        0.27072241923429        0.48257345756245
C            8.81170284847312        1.50339836161236        0.21790764020403
C            6.25277120032599       -1.09413566272684        0.24457532711727
O            6.97792756819875       -2.02262657437781        0.89448948777542
C            6.42492182640794       -3.29800926526950        1.12183093422048
C            4.95140140152965       -1.24823380404197       -0.21509790812879
C           -0.08449035968526       -1.29598181884259       -0.72102045387762
C           -4.18499437373505        2.84851507610665        0.52886613014007
C           -4.83540503604566        2.51810817884098        1.86996682253875
C           -3.82765832850692        4.33124246579367        0.48032022772220
H           -4.77547330879914        0.67502696135043       -1.34676854249834
H           -6.93438276966605       -0.13111364365067       -1.82194614126233
H           -7.18196887967695       -1.59951187252760       -2.79708771571531
H           -5.72936283562931       -0.60528063740933       -3.05623227641958
H           -4.77551381649160       -3.98002276368242        2.42611602810008
H           -5.10323128595688       -5.24650947910186        1.21829044474798
H           -3.46005044034882       -4.57908293316525        1.37421390656575
H           -3.06146244946401       -2.35773742789752        2.13207403374761
H           -2.27191059312400       -0.06589344206106        2.03096236423180
H           -3.24207141899271        2.30813493762078       -1.87194931364822
H           -1.87755889244514        3.15774006473616       -1.15843089517353
H           -1.95807731412308        0.14506531411016       -1.65951155799400
H           -1.30514158006809        1.34021593719853       -2.78335031446067
H           -0.89991138235711        1.64046168082792        0.81861916071893
H            0.41351243678187        2.03067774365132       -1.05216505323185
H            2.02839428519721       -0.49891652146422        0.64354389784478
H            2.14264737198237        1.13505576958050       -0.02924930760356
H            2.69815663444663        0.16529425272888       -2.26530964723146
H            2.66818551006183       -1.45946360442732       -1.56285633927343
H            4.44836950250330        1.79095359378908       -1.62493855506430
H            6.31061514662356        3.93148342392910       -1.49874211142766
H            8.26535421231804        2.33000569388813        0.68152606494375
H            8.87435270500048        1.68394903739702       -0.85898973426465
H            9.81019383674309        1.43028375739305        0.64300560281318
H            7.20113612023343       -3.86717992551927        1.62951412646016
H            5.54028748999053       -3.24112848825966        1.76408024270402
H            6.16671906190630       -3.79558930798417        0.18212464320276
H            4.44297450543764       -2.18687542730521       -0.05762591104661
H           -0.24487290634921       -1.63361889318823       -1.74699306391953
H           -1.04543187661480       -1.28519747281145       -0.20046126524482
H            0.57109936566422       -2.00454365746178       -0.22143720717128
H           -4.92143689416816        2.65417479390160       -0.25896986583725
H           -4.14136980174015        2.71892817432834        2.67973006133226
H           -5.13816208613176        1.47475974457350        1.91500376024853
H           -5.71798736024775        3.13696830252920        2.00835746728717
H           -3.07594032581408        4.56496123303648        1.22809394391698
H           -3.46530231930689        4.63076691687615       -0.49955395102321
H           -4.71580694793034        4.91807595856413        0.69944846970233
H           -1.04256554445895        2.89354866686739        2.79638933306265

          :  Hamiltonian                  GFN2-xTB          :
         :: total energy             -99.239200024768 Eh    ::
         :: gradient norm              0.005400303147 Eh/a0 ::
         :: HOMO-LUMO gap              0.400810250110 eV    ::
         :: SCC energy              -100.606130298462 Eh    ::
         :: -> dispersion             -0.075090290585 Eh    ::
         :: repulsion energy           1.365683176804 Eh    ::

    * Orbital Energies and Occupations

         #    Occupation            Energy/Eh            Energy/eV
      -------------------------------------------------------------
         1        2.0000           -0.8151926             -22.1825
       ...           ...                  ...                  ...
        78        1.9980           -0.5343485             -14.5404
        79        1.9978           -0.5334338             -14.5155
        80        1.9978           -0.5330645             -14.5054
        81        1.9971           -0.5286923             -14.3864
        82        1.9951           -0.5205099             -14.1638
        83        1.9942           -0.5177254             -14.0880
        84        1.9932           -0.5150772             -14.0160
        85        1.9784           -0.4967710             -13.5178
        86        1.9699           -0.4914521             -13.3731
        87        1.9304           -0.4778409             -13.0027
        88        1.8545           -0.4655357             -12.6679
        89        1.7890           -0.4590879             -12.4924
        90        1.2925           -0.4347822             -11.8310 (HOMO)
        91        0.8376           -0.4200527             -11.4302 (LUMO)
        92        0.3632           -0.4013992             -10.9226
        93        0.0132           -0.3458881              -9.4121
        94        0.0031           -0.3229673              -8.7884
        95        0.0026           -0.3201875              -8.7127
        96        0.0023           -0.3184211              -8.6647
        97        0.0013           -0.3090608              -8.4100
        98        0.0000           -0.1975054              -5.3744
        99        0.0000           -0.1878438              -5.1115
       100                         -0.1434624              -3.9038
       101                         -0.0750605              -2.0425
       ...                                ...                  ...
       171                          0.5657357              15.3945
      -------------------------------------------------------------
                  HL-Gap            0.0147295 Eh            0.4008 eV

     #   Z          covCN         q      C6AA      α(0)
     1   7 N        1.774    -0.262    27.637     7.785
     2   6 C        2.826     0.101    25.743     8.314
     3   6 C        3.907     0.007    20.409     6.421
     4   6 C        2.974     0.003    27.947     8.671
     5   6 C        2.920    -0.080    29.987     8.980
     6   6 C        2.862     0.131    25.135     8.218
     7   8 O        1.706    -0.227    17.758     5.690
     8   6 C        3.645     0.026    20.467     6.503
     9   6 C        2.864     0.130    25.158     8.222
    10   8 O        1.706    -0.225    17.735     5.686
    11   6 C        3.645     0.026    20.474     6.503
    12   6 C        2.913    -0.074    29.856     8.960
    13   6 C        2.921    -0.053    29.322     8.880
    14   6 C        3.812    -0.066    21.749     6.638
    15   6 C        3.802    -0.070    21.833     6.652
    16   6 C        2.843     0.011    27.774     8.637
    17   7 N        2.729     0.015    21.002     6.806
    18   6 C        3.756    -0.017    20.939     6.524
    19   6 C        3.807    -0.069    21.813     6.649
    20   6 C        2.978     0.003    27.949     8.672
    21   6 C        2.916    -0.035    28.878     8.812
    22   6 C        2.007    -0.075    33.077     9.288
    23   6 C        2.877     0.147    24.805     8.165
    24   8 O        1.705    -0.206    17.429     5.637
    25   6 C        3.662     0.023    20.451     6.488
    26   6 C        2.868     0.135    25.058     8.206
    27   8 O        1.706    -0.218    17.623     5.668
    28   6 C        3.645     0.026    20.472     6.503
    29   6 C        2.916    -0.084    30.094     8.996
    30   6 C        3.700    -0.072    22.047     6.715
    31   6 C        3.853    -0.007    20.674     6.467
    32   6 C        3.756    -0.119    22.843     6.815
    33   6 C        3.755    -0.119    22.830     6.813
    34   1 H        0.926     0.054     2.274     2.358
    35   1 H        0.924     0.055     2.254     2.348
    36   1 H        0.925     0.083     1.948     2.183
    37   1 H        0.924     0.049     2.330     2.387
    38   1 H        0.924     0.057     2.239     2.340
    39   1 H        0.925     0.083     1.949     2.183
    40   1 H        0.924     0.049     2.329     2.387
    41   1 H        0.926     0.053     2.280     2.361
    42   1 H        0.926     0.039     2.462     2.454
    43   1 H        0.925     0.062     2.179     2.308
    44   1 H        0.924     0.056     2.252     2.347
    45   1 H        0.925     0.067     2.120     2.277
    46   1 H        0.924     0.083     1.944     2.180
    47   1 H        0.922     0.009     2.915     2.670
    48   1 H        0.926     0.074     2.043     2.235
    49   1 H        0.924     0.069     2.101     2.267
    50   1 H        0.924     0.071     2.075     2.252
    51   1 H        0.924     0.060     2.196     2.317
    52   1 H        0.924     0.058     2.218     2.329
    53   1 H        0.926     0.068     2.107     2.270
    54   1 H        0.000    -0.113    15.041     7.091
    55   1 H        0.924     0.065     2.136     2.286
    56   1 H        0.924     0.066     2.127     2.281
    57   1 H        0.925     0.083     1.952     2.185
    58   1 H        0.925     0.085     1.925     2.170
    59   1 H        0.924     0.051     2.309     2.376
    60   1 H        0.924     0.055     2.259     2.351
    61   1 H        0.926     0.052     2.291     2.367
    62   1 H        0.924     0.078     1.997     2.210
    63   1 H        0.924     0.081     1.971     2.196
    64   1 H        0.925     0.081     1.969     2.194
    65   1 H        0.924     0.039     2.464     2.455
    66   1 H        0.925     0.071     2.076     2.253
    67   1 H        0.925     0.036     2.501     2.473
    68   1 H        0.925     0.053     2.284     2.364
    69   1 H        0.925     0.060     2.197     2.318
    70   1 H        0.925     0.036     2.504     2.474
    71   1 H        0.925     0.056     2.242     2.342
    72   1 H        0.860     0.160     1.332     1.808

Wiberg/Mayer (AO) data.
largest (>0.10) Wiberg bond orders for each atom

     #   Z sym  total        # sym  WBO       # sym  WBO       # sym  WBO
 ---------------------------------------------------------------------------
     1   7 N    3.047 --     2 C    1.961    72 H    0.940
     2   6 C    3.928 --     1 N    1.961     3 C    0.995    47 H    0.893
     3   6 C    3.974 --     2 C    0.995     4 C    0.968    14 C    0.958
                            31 C    0.941
     4   6 C    3.946 --    13 C    1.411     5 C    1.369     3 C    0.968
     5   6 C    3.960 --     6 C    1.399     4 C    1.369    34 H    0.957
     6   6 C    3.902 --     5 C    1.399     9 C    1.218     7 O    1.104
     7   8 O    2.256 --     6 C    1.104     8 C    0.977
     8   6 C    3.930 --     7 O    0.977    36 H    0.976    35 H    0.973
                            37 H    0.973
     9   6 C    3.898 --    12 C    1.390     6 C    1.218    10 O    1.106
    10   8 O    2.254 --     9 C    1.106    11 C    0.977
    11   6 C    3.929 --    39 H    0.977    10 O    0.977    40 H    0.973
                            38 H    0.973
    12   6 C    3.960 --    13 C    1.404     9 C    1.390    41 H    0.964
    13   6 C    3.951 --     4 C    1.411    12 C    1.404    42 H    0.962
    14   6 C    3.973 --    15 C    0.981    44 H    0.972    43 H    0.969
                             3 C    0.958
    15   6 C    3.986 --    16 C    1.060    14 C    0.981    45 H    0.961
                            46 H    0.926
    16   6 C    3.616 --    17 N    1.412    15 C    1.060    48 H    0.956
    17   7 N    3.493 --    16 C    1.412    30 C    0.997    18 C    0.988
    18   6 C    3.954 --    17 N    0.988    50 H    0.967    19 C    0.966
                            49 H    0.963
    19   6 C    3.967 --    20 C    1.003    51 H    0.971    52 H    0.970
                            18 C    0.966
    20   6 C    3.876 --    29 C    1.397    21 C    1.331    19 C    1.003
    21   6 C    3.914 --    22 C    1.477    20 C    1.331    53 H    0.951
    22   6 C    3.103 --    21 C    1.477    23 C    1.374
    23   6 C    3.853 --    22 C    1.374    26 C    1.174    24 O    1.128
    24   8 O    2.253 --    23 C    1.128    25 C    0.968
    25   6 C    3.911 --    57 H    0.978    56 H    0.970    55 H    0.969
                            24 O    0.968
    26   6 C    3.838 --    29 C    1.385    23 C    1.174    27 O    1.108
    27   8 O    2.247 --    26 C    1.108    28 C    0.973
    28   6 C    3.923 --    58 H    0.976    27 O    0.973    59 H    0.973
                            60 H    0.973
    29   6 C    3.953 --    20 C    1.397    26 C    1.385    61 H    0.958
    30   6 C    3.956 --    17 N    0.997    64 H    0.977    62 H    0.966
                            63 H    0.960
    31   6 C    3.970 --    33 C    1.009    32 C    1.008    65 H    0.959
                             3 C    0.941
    32   6 C    3.976 --    31 C    1.008    67 H    0.981    68 H    0.981
                            66 H    0.972
    33   6 C    3.981 --    31 C    1.009    70 H    0.982    71 H    0.979
                            69 H    0.976
    34   1 H    0.996 --     5 C    0.957
    35   1 H    0.993 --     8 C    0.973
    36   1 H    0.992 --     8 C    0.976
    37   1 H    0.993 --     8 C    0.973
    38   1 H    0.992 --    11 C    0.973
    39   1 H    0.992 --    11 C    0.977
    40   1 H    0.993 --    11 C    0.973
    41   1 H    0.995 --    12 C    0.964
    42   1 H    0.998 --    13 C    0.962
    43   1 H    0.995 --    14 C    0.969
    44   1 H    0.996 --    14 C    0.972
    45   1 H    0.995 --    15 C    0.961
    46   1 H    0.971 --    15 C    0.926
    47   1 H    0.985 --     2 C    0.893
    48   1 H    0.994 --    16 C    0.956
    49   1 H    0.990 --    18 C    0.963
    50   1 H    0.994 --    18 C    0.967
    51   1 H    0.994 --    19 C    0.971
    52   1 H    0.993 --    19 C    0.970
    53   1 H    0.979 --    21 C    0.951
    54   1 H    0.049
    55   1 H    0.987 --    25 C    0.969
    56   1 H    0.987 --    25 C    0.970
    57   1 H    0.992 --    25 C    0.978
    58   1 H    0.991 --    28 C    0.976
    59   1 H    0.992 --    28 C    0.973
    60   1 H    0.992 --    28 C    0.973
    61   1 H    0.990 --    29 C    0.958
    62   1 H    0.985 --    30 C    0.966
    63   1 H    0.987 --    30 C    0.960
    64   1 H    0.993 --    30 C    0.977
    65   1 H    0.991 --    31 C    0.959
    66   1 H    0.990 --    32 C    0.972
    67   1 H    0.996 --    32 C    0.981
    68   1 H    0.993 --    32 C    0.981
    69   1 H    0.993 --    33 C    0.976
    70   1 H    0.997 --    33 C    0.982
    71   1 H    0.993 --    33 C    0.979
    72   1 H    0.969 --     1 N    0.940
 ---------------------------------------------------------------------------

molecular dipole:
                 x           y           z       tot (Debye)
 q only:       -0.497      -0.989      -0.496
   full:       -0.270      -1.163      -0.646       3.449

           -------------------------------------------------
          | TOTAL ENERGY              -99.239200024768 Eh   |
          | GRADIENT NORM               0.005400303147 Eh/α |
          | HOMO-LUMO GAP               0.400810250110 eV   |
           -------------------------------------------------

 * finished run on 2024/04/06 at 11:14:22.753
