   * xtb version 6.6.1 (8d0f1dd) compiled by 'conda@1efc2f54142f' on 2023-08-01
          program call               : xtb struc.xyz --opt loose --input .xc1 --gfn2

   ID    Z sym.   atoms
    1    7 N      1, 17
    2    6 C      2-6, 8, 9, 11-16, 18-23, 25, 26, 28-33
    3    8 O      7, 10, 24, 27
    4    1 H      34-72
constraining bond 23 25 to    5.0000000 Å, actual value:    2.3752836 Å

          :  Hamiltonian                  GFN2-xTB          :
 * total energy  :   -98.1740536 Eh     change       -0.4035485E-08 Eh
 * total energy  :   -98.4515431 Eh     change       -0.2774896E+00 Eh
 * total energy  :   -98.6524892 Eh     change       -0.2009461E+00 Eh
 * total energy  :   -98.7926620 Eh     change       -0.1401728E+00 Eh
 * total energy  :   -98.8975972 Eh     change       -0.1049352E+00 Eh
 * total energy  :   -98.9680054 Eh     change       -0.7040822E-01 Eh
 * total energy  :   -99.0214721 Eh     change       -0.5346666E-01 Eh
 * total energy  :   -99.0811687 Eh     change       -0.5969660E-01 Eh
 * total energy  :   -99.1596739 Eh     change       -0.7850518E-01 Eh
 * total energy  :   -99.2040194 Eh     change       -0.4434547E-01 Eh
 * total energy  :   -99.2912275 Eh     change       -0.6549670E-03 Eh
 * total energy  :   -99.2917665 Eh     change       -0.5390133E-03 Eh
 * total energy  :   -99.2920971 Eh     change       -0.3306194E-03 Eh
 * total energy  :   -99.2922624 Eh     change       -0.1653411E-03 Eh
 * total energy  :   -99.2923721 Eh     change       -0.1096497E-03 Eh
 * total energy  :   -99.2924424 Eh     change       -0.7031809E-04 Eh
 * total energy  :   -99.2925030 Eh     change       -0.6059807E-04 Eh
 * total energy  :   -99.2925574 Eh     change       -0.5438055E-04 Eh
 * total energy  :   -99.2926032 Eh     change       -0.4577186E-04 Eh
   *** GEOMETRY OPTIMIZATION CONVERGED AFTER 30 ITERATIONS ***

 final structure:
================
72
 xtb: 6.6.1 (8d0f1dd)
N           -1.93624385619680        2.84553683518985        2.21007053783942
C           -1.90334098384262        2.13738842634324        1.18253537356342
C           -3.06492890017433        1.93028113990929        0.24939689537219
C           -3.53848906799214        0.48796133195823        0.34283647718688
C           -4.47698007813947        0.00642482793321       -0.57230326851005
C           -4.94593124232576       -1.29544956616058       -0.51165869883507
O           -5.85650421187234       -1.83496842558897       -1.34649976260008
C           -6.48239659740461       -1.01723885309221       -2.30742630641315
C           -4.45248090225273       -2.17126352582158        0.49417954022767
O           -4.94929503797627       -3.42302449728969        0.46737604801226
C           -4.55092606561638       -4.34140094076090        1.45844550661017
C           -3.52689321016155       -1.68440766328158        1.40353953488227
C           -3.07972595379668       -0.37097195777885        1.32974967850083
C           -2.52682420430604        2.22218173398103       -1.17668773894051
C           -1.63384302683093        1.11459069462359       -1.76558026916041
C           -0.29578971844137        1.04128429180185       -1.14008124068524
N            0.31975355408473       -0.06806193020293       -0.75824798126931
C            1.69931146736988       -0.03281298057416       -0.33369758052877
C            2.65193586479788       -0.55885337284826       -1.42708875838560
C            4.07496882568216       -0.35429085775448       -0.99718083493376
C            4.70681748355721        0.87178457050580       -1.23721901601096
C            5.98585908715690        1.10659131597883       -0.81781827492013
C            6.75205507765926        0.12168411271228       -0.10665355471561
O            7.90569146354643        0.31883916970181        0.28809753730847
C           10.99493444252099        2.68055049662098        0.55128443380712
C            6.06381429250728       -1.15975557487899        0.12206247241980
O            6.81162664697119       -2.05573565616482        0.77405506451997
C            6.30695260988170       -3.34078313792016        1.04577107492485
C            4.76682082408546       -1.35370636880699       -0.31601639404641
C           -0.31983360621680       -1.36140778325566       -0.81799249973285
C           -4.27263497971526        2.86461894935934        0.55880272448131
C           -4.89763087889643        2.54075343260883        1.91350303147012
C           -3.91485147918884        4.34686074967866        0.49600670414816
H           -4.85627851282446        0.66543165600811       -1.33541093716423
H           -7.00419758346452       -0.17721212707679       -1.83932252019711
H           -7.20655216577113       -1.65717340278884       -2.80751441019244
H           -5.76590181596218       -0.64020792520268       -3.04439008114812
H           -4.81927125597039       -3.99259700291724        2.45994529577093
H           -5.09187627954265       -5.25977658175978        1.23941122424784
H           -3.47449904447036       -4.53618625559005        1.41522317832494
H           -3.15314177902915       -2.31797102353831        2.19135134749810
H           -2.38261880526119       -0.02072928985396        2.07502175167661
H           -3.37334528937274        2.36407183584777       -1.84718971913472
H           -1.96522325260274        3.15672000343732       -1.15472381050295
H           -2.15420732129603        0.15964170509650       -1.72086243946712
H           -1.48439026761026        1.36392877993886       -2.82406571910647
H           -0.99577856141884        1.61354294620445        0.82505732804203
H            0.28387241768921        1.95261663260274       -1.10427995123299
H            1.81246055012841       -0.63813080833340        0.56984823681516
H            1.97543802773997        0.99569593118047       -0.09263730750339
H            2.46170963804912       -0.00524196033949       -2.34877472466958
H            2.45518613794519       -1.61595279652958       -1.61002723724967
H            4.17530604905356        1.64441854537923       -1.77530043592623
H            6.47653431193156        2.04826451661741       -1.00778893410588
H           10.56546994000349        3.47892386825496        1.11954238930861
H           11.17637433936541        2.80336792279300       -0.49588511289496
H           11.21456621581200        1.74567033631831        1.02466993507004
H            7.10652716216519       -3.86683327158555        1.56439119552432
H            5.42410319848901       -3.29607240921227        1.69170937659587
H            6.05828981259040       -3.87583327902736        0.12388947422189
H            4.27477939787316       -2.30028231354104       -0.14364705086629
H           -0.47043539355604       -1.67955015176035       -1.85224309929121
H           -1.28842219951091       -1.33185590646286       -0.31307039527046
H            0.30777104044656       -2.09479418405819       -0.31754839306306
H           -5.02420312207146        2.66543919948197       -0.21372794763470
H           -4.18722488791555        2.74125047593934        2.70904585184548
H           -5.20326258833796        1.49859362799215        1.96685408295170
H           -5.77499115002604        3.16316250975013        2.06773322501780
H           -3.15679991711901        4.58378563720903        1.23620066533970
H           -3.55861403004372        4.63798140610368       -0.48856525557266
H           -4.80024365072543        4.93697667020096        0.71718656232614
H           -1.08539140684223        2.93785701900728        2.75559874861549

          :  Hamiltonian                  GFN2-xTB          :
         :: total energy             -99.292603166556 Eh    ::
         :: gradient norm              0.003283031523 Eh/a0 ::
         :: HOMO-LUMO gap              0.382659699751 eV    ::
         :: SCC energy              -100.677394960096 Eh    ::
         :: -> dispersion             -0.073004479856 Eh    ::
         :: repulsion energy           1.383483014421 Eh    ::

    * Orbital Energies and Occupations

         #    Occupation            Energy/Eh            Energy/eV
      -------------------------------------------------------------
         1        2.0000           -0.8140580             -22.1516
       ...           ...                  ...                  ...
        78        1.9980           -0.5330280             -14.5044
        79        1.9978           -0.5315625             -14.4646
        80        1.9972           -0.5273958             -14.3512
        81        1.9970           -0.5266139             -14.3299
        82        1.9952           -0.5189935             -14.1225
        83        1.9943           -0.5162742             -14.0485
        84        1.9934           -0.5137736             -13.9805
        85        1.9792           -0.4955409             -13.4844
        86        1.9625           -0.4861165             -13.2279
        87        1.9290           -0.4757280             -12.9452
        88        1.8598           -0.4643775             -12.6364
        89        1.8291           -0.4609763             -12.5438
        90        1.2649           -0.4320328             -11.7562 (HOMO)
        91        0.8290           -0.4179703             -11.3736 (LUMO)
        92        0.3642           -0.3996518             -10.8751
        93        0.0131           -0.3438650              -9.3570
        94        0.0032           -0.3217646              -8.7557
        95        0.0027           -0.3187581              -8.6739
        96        0.0012           -0.3061019              -8.3295
        97        0.0007           -0.2983789              -8.1193
        98        0.0000           -0.1961793              -5.3383
        99        0.0000           -0.1841157              -5.0100
       100                         -0.1409627              -3.8358
       101                         -0.0738934              -2.0107
       ...                                ...                  ...
       171                          0.6095482              16.5867
      -------------------------------------------------------------
                  HL-Gap            0.0140625 Eh            0.3827 eV

     #   Z          covCN         q      C6AA      α(0)
     1   7 N        1.774    -0.265    27.693     7.793
     2   6 C        2.826     0.102    25.743     8.314
     3   6 C        3.907     0.006    20.412     6.422
     4   6 C        2.974     0.003    27.961     8.674
     5   6 C        2.920    -0.080    30.002     8.982
     6   6 C        2.862     0.130    25.153     8.221
     7   8 O        1.706    -0.228    17.779     5.693
     8   6 C        3.644     0.027    20.461     6.502
     9   6 C        2.864     0.129    25.174     8.224
    10   8 O        1.706    -0.226    17.753     5.689
    11   6 C        3.645     0.026    20.469     6.502
    12   6 C        2.913    -0.075    29.863     8.961
    13   6 C        2.921    -0.053    29.316     8.879
    14   6 C        3.812    -0.065    21.738     6.636
    15   6 C        3.802    -0.070    21.834     6.653
    16   6 C        2.844     0.010    27.787     8.639
    17   7 N        2.729     0.016    20.977     6.802
    18   6 C        3.756    -0.017    20.925     6.522
    19   6 C        3.807    -0.069    21.822     6.650
    20   6 C        2.969     0.003    27.943     8.671
    21   6 C        2.912    -0.043    29.062     8.840
    22   6 C        2.909    -0.061    29.507     8.907
    23   6 C        2.828     0.202    23.715     7.980
    24   8 O        0.858    -0.359    20.884     6.127
    25   6 C        2.780    -0.105    30.634     9.065
    26   6 C        2.855     0.129    25.169     8.223
    27   8 O        1.706    -0.196    17.269     5.611
    28   6 C        3.644     0.024    20.502     6.508
    29   6 C        2.909    -0.078    29.960     8.975
    30   6 C        3.700    -0.072    22.041     6.714
    31   6 C        3.853    -0.007    20.671     6.467
    32   6 C        3.756    -0.119    22.833     6.813
    33   6 C        3.755    -0.119    22.840     6.814
    34   1 H        0.926     0.053     2.280     2.361
    35   1 H        0.924     0.055     2.257     2.349
    36   1 H        0.925     0.083     1.953     2.185
    37   1 H        0.924     0.048     2.342     2.393
    38   1 H        0.924     0.057     2.240     2.340
    39   1 H        0.925     0.082     1.953     2.186
    40   1 H        0.924     0.048     2.339     2.392
    41   1 H        0.926     0.053     2.280     2.361
    42   1 H        0.926     0.040     2.451     2.448
    43   1 H        0.925     0.062     2.178     2.308
    44   1 H        0.924     0.055     2.262     2.352
    45   1 H        0.925     0.067     2.119     2.276
    46   1 H        0.924     0.083     1.952     2.185
    47   1 H        0.922     0.006     2.953     2.687
    48   1 H        0.926     0.072     2.059     2.244
    49   1 H        0.924     0.069     2.100     2.266
    50   1 H        0.924     0.069     2.093     2.263
    51   1 H        0.924     0.057     2.238     2.339
    52   1 H        0.924     0.056     2.248     2.344
    53   1 H        0.926     0.046     2.374     2.409
    54   1 H        0.926     0.070     2.080     2.255
    55   1 H        0.927     0.089     1.884     2.146
    56   1 H        0.927     0.090     1.874     2.141
    57   1 H        0.926     0.097     1.808     2.103
    58   1 H        0.925     0.086     1.914     2.164
    59   1 H        0.924     0.053     2.278     2.360
    60   1 H        0.924     0.058     2.226     2.333
    61   1 H        0.926     0.044     2.393     2.419
    62   1 H        0.924     0.078     1.995     2.209
    63   1 H        0.924     0.081     1.973     2.197
    64   1 H        0.925     0.081     1.966     2.193
    65   1 H        0.924     0.038     2.473     2.459
    66   1 H        0.925     0.070     2.088     2.260
    67   1 H        0.925     0.036     2.504     2.474
    68   1 H        0.925     0.053     2.287     2.365
    69   1 H        0.925     0.062     2.177     2.307
    70   1 H        0.925     0.035     2.511     2.478
    71   1 H        0.925     0.056     2.250     2.346
    72   1 H        0.860     0.159     1.339     1.813

Wiberg/Mayer (AO) data.
largest (>0.10) Wiberg bond orders for each atom

     #   Z sym  total        # sym  WBO       # sym  WBO       # sym  WBO
 ---------------------------------------------------------------------------
     1   7 N    3.041 --     2 C    1.959    72 H    0.941
     2   6 C    3.931 --     1 N    1.959     3 C    0.994    47 H    0.901
     3   6 C    3.975 --     2 C    0.994     4 C    0.970    14 C    0.957
                            31 C    0.942
     4   6 C    3.947 --    13 C    1.412     5 C    1.368     3 C    0.970
     5   6 C    3.961 --     6 C    1.400     4 C    1.368    34 H    0.958
     6   6 C    3.903 --     5 C    1.400     9 C    1.219     7 O    1.102
     7   8 O    2.255 --     6 C    1.102     8 C    0.977
     8   6 C    3.930 --     7 O    0.977    36 H    0.976    35 H    0.973
                            37 H    0.973
     9   6 C    3.899 --    12 C    1.390     6 C    1.219    10 O    1.105
    10   8 O    2.254 --     9 C    1.105    11 C    0.977
    11   6 C    3.930 --    10 O    0.977    39 H    0.977    40 H    0.973
                            38 H    0.973
    12   6 C    3.961 --    13 C    1.403     9 C    1.390    41 H    0.964
    13   6 C    3.952 --     4 C    1.412    12 C    1.403    42 H    0.962
    14   6 C    3.972 --    15 C    0.980    44 H    0.972    43 H    0.968
                             3 C    0.957
    15   6 C    3.986 --    16 C    1.061    14 C    0.980    45 H    0.961
                            46 H    0.926
    16   6 C    3.610 --    17 N    1.415    15 C    1.061    48 H    0.956
    17   7 N    3.493 --    16 C    1.415    30 C    0.997    18 C    0.988
    18   6 C    3.947 --    17 N    0.988    50 H    0.967    49 H    0.963
                            19 C    0.962
    19   6 C    3.976 --    20 C    1.013    52 H    0.972    51 H    0.970
                            18 C    0.962
    20   6 C    3.803 --    29 C    1.377    21 C    1.318    19 C    1.013
    21   6 C    3.945 --    22 C    1.540    20 C    1.318    53 H    0.963
    22   6 C    3.794 --    21 C    1.540    23 C    1.150    54 H    0.963
    23   6 C    3.880 --    24 O    1.592    22 C    1.150    26 C    1.046
    24   8 O    1.726 --    23 C    1.592
    25   6 C    2.968 --    55 H    0.990    56 H    0.990    57 H    0.988
    26   6 C    3.737 --    29 C    1.406    27 O    1.144    23 C    1.046
    27   8 O    2.255 --    26 C    1.144    28 C    0.975
    28   6 C    3.926 --    58 H    0.976    27 O    0.975    59 H    0.971
                            60 H    0.971
    29   6 C    3.944 --    26 C    1.406    20 C    1.377    61 H    0.958
    30   6 C    3.956 --    17 N    0.997    64 H    0.977    62 H    0.966
                            63 H    0.961
    31   6 C    3.971 --    33 C    1.009    32 C    1.008    65 H    0.959
                             3 C    0.942
    32   6 C    3.977 --    31 C    1.008    67 H    0.981    68 H    0.981
                            66 H    0.973
    33   6 C    3.981 --    31 C    1.009    70 H    0.983    71 H    0.980
                            69 H    0.975
    34   1 H    0.996 --     5 C    0.958
    35   1 H    0.993 --     8 C    0.973
    36   1 H    0.992 --     8 C    0.976
    37   1 H    0.993 --     8 C    0.973
    38   1 H    0.992 --    11 C    0.973
    39   1 H    0.992 --    11 C    0.977
    40   1 H    0.993 --    11 C    0.973
    41   1 H    0.995 --    12 C    0.964
    42   1 H    0.998 --    13 C    0.962
    43   1 H    0.995 --    14 C    0.968
    44   1 H    0.996 --    14 C    0.972
    45   1 H    0.995 --    15 C    0.961
    46   1 H    0.971 --    15 C    0.926
    47   1 H    0.985 --     2 C    0.901
    48   1 H    0.994 --    16 C    0.956
    49   1 H    0.990 --    18 C    0.963
    50   1 H    0.994 --    18 C    0.967
    51   1 H    0.993 --    19 C    0.970
    52   1 H    0.995 --    19 C    0.972
    53   1 H    0.992 --    21 C    0.963
    54   1 H    0.990 --    22 C    0.963
    55   1 H    0.992 --    25 C    0.990
    56   1 H    0.991 --    25 C    0.990
    57   1 H    0.990 --    25 C    0.988
    58   1 H    0.992 --    28 C    0.976
    59   1 H    0.989 --    28 C    0.971
    60   1 H    0.988 --    28 C    0.971
    61   1 H    0.993 --    29 C    0.958
    62   1 H    0.985 --    30 C    0.966
    63   1 H    0.987 --    30 C    0.961
    64   1 H    0.993 --    30 C    0.977
    65   1 H    0.991 --    31 C    0.959
    66   1 H    0.990 --    32 C    0.973
    67   1 H    0.996 --    32 C    0.981
    68   1 H    0.993 --    32 C    0.981
    69   1 H    0.992 --    33 C    0.975
    70   1 H    0.997 --    33 C    0.983
    71   1 H    0.993 --    33 C    0.980
    72   1 H    0.969 --     1 N    0.941
 ---------------------------------------------------------------------------

molecular dipole:
                 x           y           z       tot (Debye)
 q only:       -0.279      -0.178      -0.831
   full:       -0.177      -0.407      -1.006       2.795

           -------------------------------------------------
          | TOTAL ENERGY              -99.292603166556 Eh   |
          | GRADIENT NORM               0.003283031523 Eh/α |
          | HOMO-LUMO GAP               0.382659699751 eV   |
           -------------------------------------------------

 * finished run on 2024/04/06 at 11:14:16.788
