   * xtb version 6.6.1 (8d0f1dd) compiled by 'conda@1efc2f54142f' on 2023-08-01
          program call               : xtb xtbopt.xyz --opt crude --input .xc2 --gfn2

   ID    Z sym.   atoms
    1    7 N      1, 17
    2    6 C      2-6, 8, 9, 11-16, 18-23, 25, 26, 28-33
    3    8 O      7, 10, 24, 27
    4    1 H      34-72

          :  Hamiltonian                  GFN2-xTB          :
 * total energy  :   -99.2926037 Eh     change        0.2943068E-10 Eh
 * total energy  :   -99.2926235 Eh     change       -0.1984416E-04 Eh
   *** GEOMETRY OPTIMIZATION CONVERGED AFTER 2 ITERATIONS ***

 final structure:
================
72
 xtb: 6.6.1 (8d0f1dd)
N           -1.93552279178389        2.84596131865183        2.20935446430696
C           -1.90342769785071        2.13731614602978        1.18238020319150
C           -3.06520476854144        1.93026399715227        0.24957345786033
C           -3.53876857838735        0.48794109299622        0.34291914342250
C           -4.47719604846060        0.00647068614326       -0.57227485813629
C           -4.94578192572830       -1.29555197130712       -0.51197212607314
O           -5.85579466832593       -1.83532569739763       -1.34723416590597
C           -6.48178123528346       -1.01786356050025       -2.30832735569869
C           -4.45241514845042       -2.17136756415093        0.49387013500675
O           -4.94909410578376       -3.42316270151551        0.46687861434257
C           -4.55234449024774       -4.34094123823953        1.45917161906357
C           -3.52696764121019       -1.68454382938359        1.40341173077552
C           -3.07986552128096       -0.37109516911302        1.32972658295205
C           -2.52687879608244        2.22204757250516       -1.17637780507228
C           -1.63221756875197        1.11506320661049       -1.76433387087519
C           -0.29432131128932        1.04173293938605       -1.13806609445183
N            0.32113323645351       -0.06820316742925       -0.75758220781667
C            1.70086970258255       -0.03387716410444       -0.33348684388662
C            2.65380458754535       -0.55961295842125       -1.42713886071797
C            4.07642132947843       -0.35325107013783       -0.99699647243646
C            4.70738114026708        0.87350558689989       -1.23662926783077
C            5.98658351339489        1.10860144939697       -0.81772026389650
C            6.75328424445760        0.12379418181050       -0.10764216919059
O            7.90687921266045        0.32240232231883        0.28808061117787
C           10.97540961259335        2.66924005554008        0.54779271113434
C            6.06601788281916       -1.15766711432416        0.12205130656395
O            6.81381987652563       -2.05397973660157        0.77319128399691
C            6.30736050135583       -3.33860286509606        1.04429132569622
C            4.76868943196066       -1.35199414914378       -0.31600876075953
C           -0.31895404735045       -1.36095653995260       -0.81708823631939
C           -4.27316575654535        2.86435291000177        0.55889173259225
C           -4.89775861820794        2.54083800921336        1.91389685428742
C           -3.91653255389646        4.34681221196260        0.49562179097638
H           -4.85686424725282        0.66554904056848       -1.33515635317701
H           -7.00335516467742       -0.17753137016707       -1.84054260937833
H           -7.20617548753744       -1.65791770949947       -2.80796337528075
H           -5.76536805115273       -0.64131308601936       -3.04564926443373
H           -4.82123329884971       -3.99084651050771        2.46005818431623
H           -5.09389342029220       -5.25909818298194        1.24065594782039
H           -3.47606878765463       -4.53672329800755        1.41702282225509
H           -3.15310476260637       -2.31818435802655        2.19113304225028
H           -2.38274077355361       -0.02088434001968        2.07500615595521
H           -3.37337760266782        2.36209104108589       -1.84756687368546
H           -1.96663376430410        3.15754514770030       -1.15474599849075
H           -2.15210920883433        0.15978373040771       -1.72028803189476
H           -1.48193620926352        1.36482470227009       -2.82267785943571
H           -0.99604034439882        1.61358442591748        0.82416939765038
H            0.28588709665853        1.95256933715917       -1.10237181850842
H            1.81421682818419       -0.64003516038520        0.56951342331283
H            1.97789878917610        0.99423675805361       -0.09170542464986
H            2.46270148057914       -0.00700628682314       -2.34921706029319
H            2.45866326426260       -1.61704695834893       -1.60922433063025
H            4.17441876166268        1.64517637131366       -1.77438870411406
H            6.47604769516106        2.05077923401520       -1.00776588756383
H           10.56932143283863        3.47619309293557        1.12074361247192
H           11.17947324779820        2.80108041932546       -0.49393478820394
H           11.20240229262586        1.73821234467998        1.02236881149596
H            7.10614721718869       -3.86642213920886        1.56198694619387
H            5.42510142522690       -3.29267547474920        1.69083345530328
H            6.05748683534330       -3.87226154948522        0.12202001176254
H            4.27765161517057       -2.29893708939469       -0.14279694896387
H           -0.47121722767154       -1.67847012231918       -1.85090614448902
H           -1.28671195330240       -1.33150358288259       -0.31099287988321
H            0.30908636296675       -2.09453848618821       -0.31813320598902
H           -5.02475063226599        2.66444980005252       -0.21342065707608
H           -4.18724042619762        2.74195115471303        2.70917719625544
H           -5.20324184328011        1.49869245752173        1.96790642952701
H           -5.77522724307769        3.16315670480443        2.06796468027464
H           -3.15839754407930        4.58456727337687        1.23542678900503
H           -3.56116009837117        4.63826433118274       -0.48915853032259
H           -4.80242837529394        4.93600833548104        0.71720678460852
H           -1.08437327988170        2.93847233516331        2.75445369031168

          :  Hamiltonian                  GFN2-xTB          :
         :: total energy             -99.292623568613 Eh    ::
         :: gradient norm              0.002127887188 Eh/a0 ::
         :: HOMO-LUMO gap              0.382903505341 eV    ::
         :: SCC energy              -100.677801792958 Eh    ::
         :: -> dispersion             -0.073010946102 Eh    ::
         :: repulsion energy           1.383871146849 Eh    ::

    * Orbital Energies and Occupations

         #    Occupation            Energy/Eh            Energy/eV
      -------------------------------------------------------------
         1        2.0000           -0.8140320             -22.1509
       ...           ...                  ...                  ...
        78        1.9980           -0.5330091             -14.5039
        79        1.9978           -0.5315538             -14.4643
        80        1.9972           -0.5273659             -14.3504
        81        1.9970           -0.5265439             -14.3280
        82        1.9952           -0.5189771             -14.1221
        83        1.9943           -0.5162574             -14.0481
        84        1.9934           -0.5137532             -13.9799
        85        1.9792           -0.4955140             -13.4836
        86        1.9625           -0.4860841             -13.2270
        87        1.9292           -0.4757297             -12.9453
        88        1.8599           -0.4643458             -12.6355
        89        1.8290           -0.4609248             -12.5424
        90        1.2651           -0.4320038             -11.7554 (HOMO)
        91        0.8289           -0.4179323             -11.3725 (LUMO)
        92        0.3641           -0.3996121             -10.8740
        93        0.0130           -0.3437889              -9.3550
        94        0.0032           -0.3217308              -8.7547
        95        0.0027           -0.3187288              -8.6731
        96        0.0012           -0.3061127              -8.3298
        97        0.0007           -0.2983355              -8.1181
        98        0.0000           -0.1961438              -5.3373
        99        0.0000           -0.1840626              -5.0086
       100                         -0.1408087              -3.8316
       101                         -0.0737936              -2.0080
       ...                                ...                  ...
       171                          0.6089555              16.5705
      -------------------------------------------------------------
                  HL-Gap            0.0140714 Eh            0.3829 eV

     #   Z          covCN         q      C6AA      α(0)
     1   7 N        1.774    -0.265    27.691     7.792
     2   6 C        2.827     0.102    25.742     8.314
     3   6 C        3.907     0.006    20.412     6.422
     4   6 C        2.974     0.003    27.961     8.674
     5   6 C        2.920    -0.080    30.001     8.982
     6   6 C        2.862     0.130    25.153     8.221
     7   8 O        1.706    -0.228    17.779     5.693
     8   6 C        3.644     0.027    20.461     6.502
     9   6 C        2.864     0.129    25.174     8.224
    10   8 O        1.706    -0.226    17.754     5.689
    11   6 C        3.645     0.026    20.469     6.502
    12   6 C        2.913    -0.075    29.863     8.961
    13   6 C        2.921    -0.053    29.316     8.879
    14   6 C        3.812    -0.065    21.738     6.636
    15   6 C        3.802    -0.070    21.834     6.653
    16   6 C        2.844     0.010    27.788     8.639
    17   7 N        2.729     0.016    20.978     6.802
    18   6 C        3.756    -0.017    20.926     6.522
    19   6 C        3.807    -0.069    21.822     6.650
    20   6 C        2.969     0.003    27.943     8.671
    21   6 C        2.912    -0.043    29.063     8.840
    22   6 C        2.909    -0.060    29.503     8.907
    23   6 C        2.828     0.202    23.718     7.980
    24   8 O        0.858    -0.360    20.889     6.128
    25   6 C        2.780    -0.105    30.628     9.065
    26   6 C        2.856     0.129    25.168     8.223
    27   8 O        1.706    -0.196    17.268     5.610
    28   6 C        3.644     0.024    20.501     6.508
    29   6 C        2.909    -0.079    29.962     8.976
    30   6 C        3.700    -0.072    22.041     6.714
    31   6 C        3.853    -0.007    20.671     6.467
    32   6 C        3.756    -0.119    22.833     6.813
    33   6 C        3.755    -0.119    22.839     6.814
    34   1 H        0.926     0.053     2.281     2.362
    35   1 H        0.924     0.055     2.257     2.350
    36   1 H        0.925     0.083     1.953     2.185
    37   1 H        0.924     0.048     2.342     2.393
    38   1 H        0.924     0.057     2.240     2.340
    39   1 H        0.925     0.082     1.954     2.186
    40   1 H        0.924     0.048     2.339     2.392
    41   1 H        0.926     0.053     2.280     2.361
    42   1 H        0.926     0.040     2.451     2.448
    43   1 H        0.925     0.062     2.178     2.308
    44   1 H        0.924     0.055     2.262     2.352
    45   1 H        0.925     0.067     2.119     2.277
    46   1 H        0.924     0.083     1.953     2.185
    47   1 H        0.922     0.006     2.952     2.687
    48   1 H        0.926     0.072     2.059     2.244
    49   1 H        0.924     0.069     2.101     2.267
    50   1 H        0.924     0.069     2.093     2.263
    51   1 H        0.924     0.057     2.238     2.339
    52   1 H        0.924     0.056     2.247     2.344
    53   1 H        0.926     0.046     2.374     2.409
    54   1 H        0.926     0.071     2.079     2.255
    55   1 H        0.927     0.089     1.885     2.147
    56   1 H        0.927     0.090     1.875     2.141
    57   1 H        0.927     0.098     1.806     2.102
    58   1 H        0.925     0.086     1.914     2.164
    59   1 H        0.924     0.053     2.277     2.360
    60   1 H        0.924     0.058     2.226     2.333
    61   1 H        0.926     0.044     2.393     2.419
    62   1 H        0.924     0.078     1.995     2.209
    63   1 H        0.924     0.081     1.973     2.197
    64   1 H        0.925     0.081     1.966     2.193
    65   1 H        0.924     0.038     2.473     2.459
    66   1 H        0.925     0.070     2.089     2.260
    67   1 H        0.925     0.036     2.504     2.474
    68   1 H        0.925     0.053     2.288     2.365
    69   1 H        0.925     0.062     2.177     2.308
    70   1 H        0.925     0.035     2.510     2.478
    71   1 H        0.925     0.056     2.250     2.346
    72   1 H        0.860     0.159     1.339     1.813

Wiberg/Mayer (AO) data.
largest (>0.10) Wiberg bond orders for each atom

     #   Z sym  total        # sym  WBO       # sym  WBO       # sym  WBO
 ---------------------------------------------------------------------------
     1   7 N    3.041 --     2 C    1.959    72 H    0.941
     2   6 C    3.931 --     1 N    1.959     3 C    0.994    47 H    0.901
     3   6 C    3.975 --     2 C    0.994     4 C    0.970    14 C    0.957
                            31 C    0.942
     4   6 C    3.947 --    13 C    1.412     5 C    1.368     3 C    0.970
     5   6 C    3.961 --     6 C    1.400     4 C    1.368    34 H    0.958
     6   6 C    3.903 --     5 C    1.400     9 C    1.219     7 O    1.102
     7   8 O    2.255 --     6 C    1.102     8 C    0.977
     8   6 C    3.930 --     7 O    0.977    36 H    0.976    35 H    0.973
                            37 H    0.973
     9   6 C    3.899 --    12 C    1.390     6 C    1.219    10 O    1.105
    10   8 O    2.254 --     9 C    1.105    11 C    0.977
    11   6 C    3.930 --    10 O    0.977    39 H    0.977    40 H    0.973
                            38 H    0.973
    12   6 C    3.961 --    13 C    1.403     9 C    1.390    41 H    0.964
    13   6 C    3.952 --     4 C    1.412    12 C    1.403    42 H    0.962
    14   6 C    3.972 --    15 C    0.980    44 H    0.972    43 H    0.968
                             3 C    0.957
    15   6 C    3.986 --    16 C    1.061    14 C    0.980    45 H    0.961
                            46 H    0.926
    16   6 C    3.610 --    17 N    1.415    15 C    1.061    48 H    0.956
    17   7 N    3.493 --    16 C    1.415    30 C    0.997    18 C    0.988
    18   6 C    3.947 --    17 N    0.988    50 H    0.967    49 H    0.963
                            19 C    0.962
    19   6 C    3.976 --    20 C    1.013    52 H    0.972    51 H    0.970
                            18 C    0.962
    20   6 C    3.803 --    29 C    1.378    21 C    1.318    19 C    1.013
    21   6 C    3.945 --    22 C    1.540    20 C    1.318    53 H    0.963
    22   6 C    3.794 --    21 C    1.540    23 C    1.150    54 H    0.963
    23   6 C    3.880 --    24 O    1.591    22 C    1.150    26 C    1.047
    24   8 O    1.725 --    23 C    1.591
    25   6 C    2.968 --    55 H    0.990    56 H    0.990    57 H    0.988
    26   6 C    3.737 --    29 C    1.405    27 O    1.145    23 C    1.047
    27   8 O    2.256 --    26 C    1.145    28 C    0.975
    28   6 C    3.926 --    58 H    0.976    27 O    0.975    59 H    0.971
                            60 H    0.971
    29   6 C    3.944 --    26 C    1.405    20 C    1.378    61 H    0.958
    30   6 C    3.956 --    17 N    0.997    64 H    0.977    62 H    0.966
                            63 H    0.960
    31   6 C    3.971 --    33 C    1.009    32 C    1.008    65 H    0.959
                             3 C    0.942
    32   6 C    3.977 --    31 C    1.008    67 H    0.981    68 H    0.981
                            66 H    0.973
    33   6 C    3.981 --    31 C    1.009    70 H    0.983    71 H    0.980
                            69 H    0.976
    34   1 H    0.996 --     5 C    0.958
    35   1 H    0.993 --     8 C    0.973
    36   1 H    0.992 --     8 C    0.976
    37   1 H    0.993 --     8 C    0.973
    38   1 H    0.992 --    11 C    0.973
    39   1 H    0.992 --    11 C    0.977
    40   1 H    0.993 --    11 C    0.973
    41   1 H    0.995 --    12 C    0.964
    42   1 H    0.998 --    13 C    0.962
    43   1 H    0.995 --    14 C    0.968
    44   1 H    0.996 --    14 C    0.972
    45   1 H    0.995 --    15 C    0.961
    46   1 H    0.971 --    15 C    0.926
    47   1 H    0.985 --     2 C    0.901
    48   1 H    0.994 --    16 C    0.956
    49   1 H    0.990 --    18 C    0.963
    50   1 H    0.994 --    18 C    0.967
    51   1 H    0.993 --    19 C    0.970
    52   1 H    0.995 --    19 C    0.972
    53   1 H    0.992 --    21 C    0.963
    54   1 H    0.990 --    22 C    0.963
    55   1 H    0.992 --    25 C    0.990
    56   1 H    0.991 --    25 C    0.990
    57   1 H    0.990 --    25 C    0.988
    58   1 H    0.992 --    28 C    0.976
    59   1 H    0.989 --    28 C    0.971
    60   1 H    0.988 --    28 C    0.971
    61   1 H    0.993 --    29 C    0.958
    62   1 H    0.985 --    30 C    0.966
    63   1 H    0.987 --    30 C    0.960
    64   1 H    0.993 --    30 C    0.977
    65   1 H    0.991 --    31 C    0.959
    66   1 H    0.990 --    32 C    0.973
    67   1 H    0.996 --    32 C    0.981
    68   1 H    0.993 --    32 C    0.981
    69   1 H    0.992 --    33 C    0.976
    70   1 H    0.997 --    33 C    0.983
    71   1 H    0.993 --    33 C    0.980
    72   1 H    0.969 --     1 N    0.941
 ---------------------------------------------------------------------------

molecular dipole:
                 x           y           z       tot (Debye)
 q only:       -0.273      -0.178      -0.828
   full:       -0.166      -0.405      -1.003       2.781

           -------------------------------------------------
          | TOTAL ENERGY              -99.292623568613 Eh   |
          | GRADIENT NORM               0.002127887188 Eh/α |
          | HOMO-LUMO GAP               0.382903505341 eV   |
           -------------------------------------------------

 * finished run on 2024/04/06 at 11:14:17.432
