   * xtb version 6.6.1 (8d0f1dd) compiled by 'conda@1efc2f54142f' on 2023-08-01
          program call               : xtb struc.xyz --opt loose --input .xc1 --gfn2

   ID    Z sym.   atoms
    1    7 N      1, 17
    2    6 C      2-6, 8, 9, 11-16, 18-23, 25, 26, 28-33
    3    8 O      7, 10, 24, 27
    4    1 H      34-72
constraining bond 2 42 to    4.7133300 Å, actual value:    2.3904543 Å

          :  Hamiltonian                  GFN2-xTB          :
 * total energy  :  -100.3675597 Eh     change       -0.4035485E-08 Eh
 * total energy  :  -101.0232387 Eh     change       -0.6556790E+00 Eh
 * total energy  :  -101.7700059 Eh     change       -0.7467672E+00 Eh
 * total energy  :   -97.0121716 Eh     change        0.4757834E+01 Eh
 * total energy  :  -101.8670571 Eh     change       -0.4854886E+01 Eh
 * total energy  :  -101.9020442 Eh     change       -0.3498707E-01 Eh
 * total energy  :  -101.9288761 Eh     change       -0.2683192E-01 Eh
 * total energy  :  -101.9404116 Eh     change       -0.1153548E-01 Eh
 * total energy  :  -101.9453535 Eh     change       -0.4941905E-02 Eh
 * total energy  :  -101.9500007 Eh     change       -0.4647281E-02 Eh
 * total energy  :  -102.0000629 Eh     change       -0.3270468E-03 Eh
 * total energy  :  -102.0004506 Eh     change       -0.3876977E-03 Eh
 * total energy  :  -102.0006977 Eh     change       -0.2470451E-03 Eh
 * total energy  :  -102.0008728 Eh     change       -0.1751682E-03 Eh
 * total energy  :  -102.0009239 Eh     change       -0.5108550E-04 Eh
 * total energy  :  -102.0011480 Eh     change       -0.2240234E-03 Eh
 * total energy  :  -102.0012538 Eh     change       -0.1058127E-03 Eh
 * total energy  :  -102.0013991 Eh     change       -0.1453257E-03 Eh
 * total energy  :  -102.0014439 Eh     change       -0.4477603E-04 Eh
   *** GEOMETRY OPTIMIZATION CONVERGED AFTER 44 ITERATIONS ***

 final structure:
================
72
 xtb: 6.6.1 (8d0f1dd)
N           -1.56854867151026        3.16862580429109        1.65685146132588
C           -2.33407521894722        2.15686090004497        1.64948629804882
C           -3.19149513253168        1.94411840037794        0.39877549297665
C           -3.64592597257434        0.50361778319917        0.39573638091051
C           -4.54231893920117        0.00745065425293       -0.56152344540435
C           -4.95416304153189       -1.31632198068120       -0.55147701441457
O           -5.82502376568070       -1.86459323586318       -1.42337511580267
C           -6.43544824639176       -1.04880495066906       -2.39602322684040
C           -4.45601819609136       -2.21555000523978        0.43497704421045
O           -4.91110279586526       -3.47679453265929        0.36502757822849
C           -4.52694703396213       -4.40961552091099        1.34793105703197
C           -3.54487283606454       -1.72985770203246        1.37575117528181
C           -3.19090132530802       -0.41550045078793        1.30278243383334
C           -2.41007545573162        2.27033714754965       -0.89124367318353
C           -1.44865786138865        1.16910151576061       -1.33735386229241
C           -0.33624047492168        0.90609039594474       -0.31898834859550
N            0.61032902823803       -0.07101399691301       -0.79524943763225
C            1.97896820900234        0.06038592984032       -0.36074601463644
C            2.96537432862767       -0.39937190984005       -1.45217374084706
C            4.38067771988792       -0.19320231142079       -0.99928671077714
C            5.02934571821994        1.01408395863600       -1.22720264113068
C            6.32664043111484        1.22091446158889       -0.78919471279809
C            7.00877152127347        0.22211467256709       -0.10502368444919
O            8.26191312724785        0.30849546270542        0.36970638100363
C            8.99065144058466        1.50164455185130        0.19211814302979
C            6.35461365059125       -1.02201964969000        0.13243968569200
O            7.09111349929468       -1.93413749096319        0.79103527597631
C            6.54946825135640       -3.20679859245953        1.05527076706271
C            5.05363546260892       -1.20204616806065       -0.31527366086800
C            0.08932658595241       -1.41424630987465       -0.84680909251949
C           -4.43402827403813        2.88169738694582        0.53557624265345
C           -5.14457784632675        2.64191190054120        1.86872164555594
C           -4.07580790995224        4.35572244981126        0.38602818748229
H           -4.91258190745724        0.68093744632277       -1.31769144312363
H           -6.99992750278648       -0.23175420483219       -1.93652005095243
H           -7.12014096533056       -1.70103438000164       -2.93468410926297
H           -5.70037039996142       -0.63955057041754       -3.09639658093279
H           -4.81852610194422       -4.07853254797494        2.34916099181023
H           -5.05724904823570       -5.32784849949097        1.10286854428642
H           -3.44884257850223       -4.59743921733716        1.32231661717543
H           -3.13981821826300       -2.37758238221350        2.13701509965412
H           -2.43595703579692        1.65947050301916        2.19157064394716
H           -3.12098400937358        2.44692552055877       -1.69946243774146
H           -1.85263909970146        3.18870429654712       -0.71264038961089
H           -2.00453677822982        0.24831685631039       -1.51751757554106
H           -0.98587043781508        1.47216704406508       -2.27778506401757
H           -0.79446911003863        0.56368615284190        0.62494789647219
H            0.18330458809819        1.84552443190187       -0.12182588163290
H            2.16913358296895       -0.51460877898275        0.55882321512925
H            2.17643808002550        1.11207631124977       -0.14488171866575
H            2.77111436492269        0.17972101844429       -2.35524186963633
H            2.80197985963050       -1.45276228540904       -1.68018522103441
H            4.52108511101297        1.80147676704800       -1.76205995420713
H            6.80553413131287        2.16541486076994       -0.98940694462717
H            8.48718093762280        2.35166298585376        0.66209591191706
H            9.15594106212479        1.71480938980208       -0.86805182051040
H            9.94868056709374        1.33367640095062        0.68051212266141
H            7.33538583683962       -3.75744647482560        1.56879290458830
H            5.67048753964105       -3.14105524193488        1.70401792745488
H            6.28516035975957       -3.72963932110954        0.13121136819978
H            4.55151960873376       -2.14118664797619       -0.14246420255295
H           -0.57065486470920       -1.52530252926754       -1.70719483180863
H           -0.48579381138748       -1.65540366245258        0.05697856232925
H            0.89841398200378       -2.13153973315280       -0.94398826454908
H           -5.12661502088518        2.61335723436444       -0.26886906001281
H           -4.55484708226155        3.02872240064240        2.69702904519442
H           -5.32608831881769        1.58135162641437        2.03282023953495
H           -6.10308872610919        3.15491794384958        1.87388638109125
H           -3.22375881602152        4.60803779343162        1.01349240701268
H           -3.83064640397739        4.60317335358130       -0.64247155820671
H           -4.92121847365120        4.96766430314400        0.68932181236098
H           -1.03481927951726        3.33173279091636        2.50647126229240

          :  Hamiltonian                  GFN2-xTB          :
         :: total energy            -102.001443873470 Eh    ::
         :: gradient norm              0.003468224569 Eh/a0 ::
         :: HOMO-LUMO gap              0.756381855693 eV    ::
         :: SCC energy              -100.732903458636 Eh    ::
         :: -> dispersion             -0.073619443991 Eh    ::
         :: repulsion energy           1.545374374284 Eh    ::

    * Orbital Energies and Occupations

         #    Occupation            Energy/Eh            Energy/eV
      -------------------------------------------------------------
         1        2.0000           -0.8185586             -22.2741
       ...           ...                  ...                  ...
        78        1.9968           -0.5315747             -14.4649
        79        1.9965           -0.5301270             -14.4255
        80        1.9953           -0.5254542             -14.2983
        81        1.9939           -0.5215370             -14.1917
        82        1.9920           -0.5170478             -14.0696
        83        1.9908           -0.5149343             -14.0121
        84        1.9899           -0.5133975             -13.9703
        85        1.9684           -0.4952160             -13.4755
        86        1.9606           -0.4916487             -13.3784
        87        1.8868           -0.4743336             -12.9073
        88        1.8044           -0.4649611             -12.6522
        89        1.7672           -0.4618807             -12.5684
        90        1.6907           -0.4566778             -12.4268 (HOMO)
        91        0.9715           -0.4288813             -11.6705 (LUMO)
        92        0.0095           -0.3451291              -9.3914
        93        0.0026           -0.3245722              -8.8321
        94        0.0015           -0.3153615              -8.5814
        95        0.0013           -0.3134623              -8.5297
        96        0.0011           -0.3105645              -8.4509
        97        0.0000           -0.1928076              -5.2466
        98        0.0000           -0.1910535              -5.1988
        99                         -0.1031718              -2.8074
       100                         -0.0721356              -1.9629
       101                         -0.0651164              -1.7719
       ...                                ...                  ...
       171                          1.5052781              40.9607
      -------------------------------------------------------------
                  HL-Gap            0.0277965 Eh            0.7564 eV

     #   Z          covCN         q      C6AA      α(0)
     1   7 N        1.778    -0.287    28.251     7.871
     2   6 C        2.830     0.079    26.219     8.391
     3   6 C        3.911     0.006    20.413     6.422
     4   6 C        2.971     0.017    27.626     8.622
     5   6 C        2.933    -0.071    29.781     8.950
     6   6 C        2.859     0.128    25.184     8.225
     7   8 O        1.706    -0.225    17.727     5.685
     8   6 C        3.644     0.026    20.479     6.505
     9   6 C        2.874     0.135    25.041     8.203
    10   8 O        1.706    -0.215    17.576     5.660
    11   6 C        3.645     0.026    20.471     6.503
    12   6 C        2.908    -0.060    29.498     8.906
    13   6 C        2.024    -0.083    33.283     9.317
    14   6 C        3.806    -0.072    21.866     6.657
    15   6 C        3.801    -0.068    21.803     6.648
    16   6 C        3.751    -0.005    20.719     6.491
    17   7 N        2.728    -0.096    23.127     7.142
    18   6 C        3.748    -0.000    20.649     6.481
    19   6 C        3.808    -0.073    21.883     6.659
    20   6 C        2.968     0.012    27.751     8.641
    21   6 C        2.922    -0.043    29.058     8.840
    22   6 C        2.912    -0.064    29.598     8.921
    23   6 C        2.864     0.136    25.020     8.199
    24   8 O        1.706    -0.212    17.522     5.652
    25   6 C        3.645     0.022    20.535     6.513
    26   6 C        2.861     0.136    25.018     8.198
    27   8 O        1.706    -0.215    17.575     5.660
    28   6 C        3.644     0.025    20.500     6.508
    29   6 C        2.919    -0.075    29.877     8.963
    30   6 C        3.703    -0.051    21.642     6.652
    31   6 C        3.855    -0.009    20.694     6.470
    32   6 C        3.755    -0.111    22.670     6.789
    33   6 C        3.755    -0.122    22.885     6.821
    34   1 H        0.926     0.065     2.145     2.290
    35   1 H        0.924     0.056     2.249     2.345
    36   1 H        0.925     0.084     1.936     2.176
    37   1 H        0.924     0.054     2.276     2.359
    38   1 H        0.924     0.059     2.211     2.326
    39   1 H        0.925     0.085     1.928     2.171
    40   1 H        0.924     0.055     2.261     2.352
    41   1 H        0.926     0.065     2.145     2.290
    42   1 H        0.931     0.094     1.840     2.121
    43   1 H        0.924     0.053     2.285     2.364
    44   1 H        0.925     0.080     1.980     2.200
    45   1 H        0.924     0.045     2.388     2.417
    46   1 H        0.924     0.058     2.224     2.332
    47   1 H        0.923     0.036     2.500     2.473
    48   1 H        0.924     0.058     2.225     2.333
    49   1 H        0.923     0.041     2.441     2.444
    50   1 H        0.924     0.055     2.254     2.348
    51   1 H        0.924     0.065     2.141     2.288
    52   1 H        0.925     0.055     2.254     2.348
    53   1 H        0.926     0.057     2.234     2.338
    54   1 H        0.926     0.063     2.162     2.300
    55   1 H        0.924     0.059     2.211     2.325
    56   1 H        0.924     0.061     2.187     2.313
    57   1 H        0.925     0.086     1.921     2.167
    58   1 H        0.925     0.085     1.930     2.172
    59   1 H        0.924     0.054     2.266     2.354
    60   1 H        0.924     0.057     2.230     2.335
    61   1 H        0.926     0.054     2.272     2.357
    62   1 H        0.925     0.061     2.190     2.314
    63   1 H        0.923     0.043     2.413     2.429
    64   1 H        0.925     0.060     2.194     2.317
    65   1 H        0.924     0.045     2.389     2.417
    66   1 H        0.925     0.043     2.406     2.426
    67   1 H        0.925     0.037     2.483     2.464
    68   1 H        0.925     0.052     2.300     2.372
    69   1 H        0.925     0.064     2.154     2.295
    70   1 H        0.925     0.049     2.335     2.390
    71   1 H        0.925     0.057     2.238     2.340
    72   1 H        0.860     0.158     1.350     1.820

Wiberg/Mayer (AO) data.
largest (>0.10) Wiberg bond orders for each atom

     #   Z sym  total        # sym  WBO       # sym  WBO       # sym  WBO
 ---------------------------------------------------------------------------
     1   7 N    2.971 --     2 C    1.921    72 H    0.939
     2   6 C    3.933 --     1 N    1.921     3 C    0.973    42 H    0.961
     3   6 C    3.952 --     4 C    0.986     2 C    0.973    14 C    0.962
                            31 C    0.921
     4   6 C    3.890 --    13 C    1.412     5 C    1.321     3 C    0.986
     5   6 C    3.898 --     6 C    1.399     4 C    1.321    34 H    0.946
     6   6 C    3.884 --     5 C    1.399     9 C    1.215     7 O    1.102
     7   8 O    2.237 --     6 C    1.102     8 C    0.976
     8   6 C    3.926 --     7 O    0.976    36 H    0.976    35 H    0.972
                            37 H    0.972
     9   6 C    3.831 --    12 C    1.326     6 C    1.215    10 O    1.112
    10   8 O    2.250 --     9 C    1.112    11 C    0.973
    11   6 C    3.923 --    39 H    0.976    10 O    0.973    38 H    0.972
                            40 H    0.971
    12   6 C    3.924 --    13 C    1.455     9 C    1.326    41 H    0.948
    13   6 C    3.073 --    12 C    1.455     4 C    1.412
    14   6 C    3.974 --    15 C    1.007    43 H    0.969    44 H    0.964
                             3 C    0.962
    15   6 C    3.975 --    14 C    1.007    16 C    0.992    46 H    0.971
                            45 H    0.969
    16   6 C    3.961 --    17 N    1.009    15 C    0.992    48 H    0.967
                            47 H    0.938
    17   7 N    3.100 --    30 C    1.018    18 C    1.010    16 C    1.009
    18   6 C    3.960 --    17 N    1.010    19 C    0.969    50 H    0.969
                            49 H    0.954
    19   6 C    3.974 --    20 C    1.015    18 C    0.969    51 H    0.968
                            52 H    0.966
    20   6 C    3.919 --    29 C    1.386    21 C    1.385    19 C    1.015
    21   6 C    3.921 --    22 C    1.428    20 C    1.385    53 H    0.966
    22   6 C    3.946 --    21 C    1.428    23 C    1.369    54 H    0.962
    23   6 C    3.866 --    22 C    1.369    26 C    1.205    24 O    1.121
    24   8 O    2.247 --    23 C    1.121    25 C    0.974
    25   6 C    3.922 --    57 H    0.976    24 O    0.974    55 H    0.971
                            56 H    0.970
    26   6 C    3.873 --    29 C    1.385    23 C    1.205    27 O    1.115
    27   8 O    2.248 --    26 C    1.115    28 C    0.976
    28   6 C    3.926 --    58 H    0.976    27 O    0.976    59 H    0.972
                            60 H    0.971
    29   6 C    3.947 --    20 C    1.386    26 C    1.385    61 H    0.961
    30   6 C    3.967 --    17 N    1.018    64 H    0.977    62 H    0.970
                            63 H    0.963
    31   6 C    3.971 --    33 C    1.012    32 C    1.007    65 H    0.954
                             3 C    0.921
    32   6 C    3.985 --    31 C    1.007    68 H    0.982    67 H    0.982
                            66 H    0.981
    33   6 C    3.975 --    31 C    1.012    70 H    0.981    71 H    0.977
                            69 H    0.969
    34   1 H    0.982 --     5 C    0.946
    35   1 H    0.991 --     8 C    0.972
    36   1 H    0.992 --     8 C    0.976
    37   1 H    0.991 --     8 C    0.972
    38   1 H    0.990 --    11 C    0.972
    39   1 H    0.991 --    11 C    0.976
    40   1 H    0.990 --    11 C    0.971
    41   1 H    0.979 --    12 C    0.948
    42   1 H    0.978 --     2 C    0.961
    43   1 H    0.993 --    14 C    0.969
    44   1 H    0.990 --    14 C    0.964
    45   1 H    0.996 --    15 C    0.969
    46   1 H    0.993 --    15 C    0.971
    47   1 H    0.972 --    16 C    0.938
    48   1 H    0.996 --    16 C    0.967
    49   1 H    0.972 --    18 C    0.954
    50   1 H    0.996 --    18 C    0.969
    51   1 H    0.992 --    19 C    0.968
    52   1 H    0.994 --    19 C    0.966
    53   1 H    0.995 --    21 C    0.966
    54   1 H    0.994 --    22 C    0.962
    55   1 H    0.988 --    25 C    0.971
    56   1 H    0.988 --    25 C    0.970
    57   1 H    0.992 --    25 C    0.976
    58   1 H    0.992 --    28 C    0.976
    59   1 H    0.990 --    28 C    0.972
    60   1 H    0.990 --    28 C    0.971
    61   1 H    0.995 --    29 C    0.961
    62   1 H    0.984 --    30 C    0.970
    63   1 H    0.976 --    30 C    0.963
    64   1 H    0.996 --    30 C    0.977
    65   1 H    0.990 --    31 C    0.954
    66   1 H    0.995 --    32 C    0.981
    67   1 H    0.997 --    32 C    0.982
    68   1 H    0.995 --    32 C    0.982
    69   1 H    0.991 --    33 C    0.969
    70   1 H    0.994 --    33 C    0.981
    71   1 H    0.993 --    33 C    0.977
    72   1 H    0.965 --     1 N    0.939
 ---------------------------------------------------------------------------

molecular dipole:
                 x           y           z       tot (Debye)
 q only:        0.677      -0.136      -0.161
   full:        0.447      -0.452       0.263       1.748

           -------------------------------------------------
          | TOTAL ENERGY             -102.001443873470 Eh   |
          | GRADIENT NORM               0.003468224569 Eh/α |
          | HOMO-LUMO GAP               0.756381855693 eV   |
           -------------------------------------------------

 * finished run on 2024/04/06 at 11:15:29.176
