   * xtb version 6.6.1 (8d0f1dd) compiled by 'conda@1efc2f54142f' on 2023-08-01
          program call               : xtb xtbopt.xyz --opt crude --input .xc2 --gfn2

   ID    Z sym.   atoms
    1    7 N      1, 17
    2    6 C      2-6, 8, 9, 11-16, 18-23, 25, 26, 28-33
    3    8 O      7, 10, 24, 27
    4    1 H      34-72
########################################################################
[WARNING] Please study the warnings concerning your input carefully
-1- readin_getIntValue: could not parse ''
########################################################################

          :  Hamiltonian                  GFN2-xTB          :
 * total energy  :   -99.1864194 Eh     change       -0.1193712E-10 Eh
 * total energy  :   -99.3479881 Eh     change       -0.1615687E+00 Eh
 * total energy  :   -99.3500936 Eh     change       -0.2105481E-02 Eh
 * total energy  :   -99.3512168 Eh     change       -0.1123194E-02 Eh
 * total energy  :   -99.3515751 Eh     change       -0.3583083E-03 Eh
 * total energy  :   -99.3517274 Eh     change       -0.1522429E-03 Eh
   *** GEOMETRY OPTIMIZATION CONVERGED AFTER 6 ITERATIONS ***

 final structure:
================
72
 xtb: 6.6.1 (8d0f1dd)
N           -1.55716677041834        3.15076031622895        1.69566513605176
C           -2.32077803678810        2.16552494250144        1.59916678912619
C           -3.18611387350707        1.95313297793902        0.38590625364138
C           -3.64662182940239        0.51771607016899        0.38502298062444
C           -4.53651699971437        0.01468720733852       -0.57263189615734
C           -4.94700190189243       -1.30888124800955       -0.55022916930970
O           -5.81474413141312       -1.86547906011429       -1.41990996823436
C           -6.42562775038789       -1.05499026896922       -2.39710149130568
C           -4.45055216100719       -2.19750595653098        0.44698946581609
O           -4.90143194594934       -3.46030751836698        0.38008122481368
C           -4.51203837163746       -4.39290558846308        1.36103628807233
C           -3.55158927323939       -1.70132992716327        1.39478589320655
C           -3.20360758635309       -0.38530138085179        1.31336204643069
C           -2.40571085947403        2.27497034112599       -0.90954074725796
C           -1.44529009674087        1.17025128381834       -1.35210526697427
C           -0.33857549590237        0.90282061220735       -0.32931566189239
N            0.60556961649447       -0.08241284342318       -0.79545660899231
C            1.97211138516876        0.03946186681429       -0.35204600842397
C            2.96144493020451       -0.39199981114449       -1.45316812493112
C            4.37553860922229       -0.18504855253174       -0.99781180379790
C            5.02303844977701        1.02390676273469       -1.21980809491416
C            6.32026841992441        1.22937372343432       -0.78097571210929
C            7.00374231019339        0.22842824395785       -0.10119273790082
O            8.25805524116580        0.31439293632524        0.37079943392719
C            8.98860500588733        1.50529835809439        0.18536604249589
C            6.34959364566236       -1.01613233757388        0.13305875444959
O            7.08443066812073       -1.93065426604110        0.79048802416672
C            6.54111655503027       -3.20365496924292        1.04981709865763
C            5.04914105485155       -1.19538419176319       -0.31668199405168
C            0.08042674644821       -1.42348580423716       -0.85163451463891
C           -4.42841537518214        2.89442147144511        0.52177822292724
C           -5.14236632880910        2.65239574031261        1.85181314455502
C           -4.07181883551939        4.36900515155156        0.37574385148010
H           -4.90441882265428        0.68128150839323       -1.33601346504668
H           -6.99540157564997       -0.23947900176724       -1.94133333711719
H           -7.10542036637962       -1.71161534036745       -2.93637229364190
H           -5.69020375868450       -0.64386075582315       -3.09579811211459
H           -4.80417434969220       -4.06558090376710        2.36329927502349
H           -5.03883425580894       -5.31269488973855        1.11407636832665
H           -3.43311920278688       -4.57568064352268        1.33359946234225
H           -3.15305147097151       -2.34214154255649        2.16537331223966
H           -2.45951259221861        1.39121834788496        2.38158968965838
H           -3.12184018737120        2.44370511605280       -1.71506695425824
H           -1.84889253290840        3.19578114222957       -0.74331421980775
H           -2.00454376885800        0.25206293277695       -1.53443856082985
H           -0.97913903912168        1.47181586368235       -2.29162432329643
H           -0.80430492631267        0.56949286669871        0.61387012102057
H            0.18832906711838        1.83846555811281       -0.13394973915312
H            2.15923663323851       -0.56043849897954        0.55212929555309
H            2.16987011224728        1.08474743229646       -0.10705756665086
H            2.76195516156383        0.20359418445419       -2.34426237893905
H            2.80408289310510       -1.44177188417662       -1.70138359571199
H            4.51468544524005        1.81376412388246       -1.75088673812928
H            6.79806098246226        2.17535922731252       -0.97686137409968
H            8.49405692499635        2.35646436926042        0.66272947057991
H            9.14103253998687        1.71918920579553       -0.87665670347544
H            9.95225837112827        1.33370505037989        0.66129441500377
H            7.32426382410551       -3.75553120838962        1.56619692998065
H            5.65890319082752       -3.13891022314510        1.69426897784594
H            6.28124698811448       -3.72469569322909        0.12341966656729
H            4.54808178302393       -2.13582981330573       -0.14813405632452
H           -0.59080708178763       -1.52657025565353       -1.70446829906999
H           -0.48268997552476       -1.67327722608831        0.05768149879643
H            0.88850168058101       -2.13988165622842       -0.96775140358294
H           -5.11660094027789        2.62594904405675       -0.28637037461835
H           -4.54859837422261        3.02968359534908        2.68123636779949
H           -5.33019110399508        1.59221800175620        2.00984498240135
H           -6.09776047268799        3.17126051752237        1.85882799197002
H           -3.23554004175782        4.62789868476009        1.02087692028570
H           -3.80870155958719        4.61629994279910       -0.64868867182151
H           -4.92732264831497        4.97687736430974        0.65993573116174
H           -1.02409596797988        3.27019069789408        2.55017568417976

          :  Hamiltonian                  GFN2-xTB          :
         :: total energy             -99.351727364063 Eh    ::
         :: gradient norm              0.004009442422 Eh/a0 ::
         :: HOMO-LUMO gap              0.798967883873 eV    ::
         :: SCC energy              -100.711274563179 Eh    ::
         :: -> dispersion             -0.073678353564 Eh    ::
         :: repulsion energy           1.358410776918 Eh    ::

    * Orbital Energies and Occupations

         #    Occupation            Energy/Eh            Energy/eV
      -------------------------------------------------------------
         1        2.0000           -0.8186578             -22.2768
       ...           ...                  ...                  ...
        78        1.9969           -0.5320427             -14.4776
        79        1.9966           -0.5302880             -14.4299
        80        1.9956           -0.5261983             -14.3186
        81        1.9940           -0.5212917             -14.1851
        82        1.9924           -0.5175697             -14.0838
        83        1.9912           -0.5153051             -14.0222
        84        1.9907           -0.5143951             -13.9974
        85        1.9702           -0.4957471             -13.4900
        86        1.9608           -0.4913689             -13.3708
        87        1.9213           -0.4799827             -13.0610
        88        1.8088           -0.4649822             -12.6528
        89        1.7714           -0.4618246             -12.5669
        90        1.6919           -0.4563680             -12.4184 (HOMO)
        91        0.9246           -0.4270065             -11.6194 (LUMO)
        92        0.0067           -0.3392116              -9.2304
        93        0.0027           -0.3246860              -8.8352
        94        0.0015           -0.3151080              -8.5745
        95        0.0013           -0.3131447              -8.5211
        96        0.0011           -0.3111355              -8.4664
        97        0.0000           -0.1932891              -5.2597
        98        0.0000           -0.1907658              -5.1910
        99                         -0.1039659              -2.8291
       100                         -0.0720984              -1.9619
       101                         -0.0648749              -1.7653
       ...                                ...                  ...
       171                          0.5703528              15.5201
      -------------------------------------------------------------
                  HL-Gap            0.0293615 Eh            0.7990 eV

     #   Z          covCN         q      C6AA      α(0)
     1   7 N        1.776    -0.270    27.817     7.810
     2   6 C        2.828     0.106    25.658     8.300
     3   6 C        3.911     0.011    20.337     6.410
     4   6 C        2.975     0.018    27.612     8.619
     5   6 C        2.932    -0.072    29.791     8.951
     6   6 C        2.860     0.129    25.181     8.225
     7   8 O        1.706    -0.225    17.726     5.684
     8   6 C        3.644     0.026    20.479     6.504
     9   6 C        2.874     0.135    25.044     8.204
    10   8 O        1.706    -0.215    17.575     5.660
    11   6 C        3.645     0.026    20.475     6.504
    12   6 C        2.908    -0.060    29.498     8.906
    13   6 C        2.024    -0.077    33.108     9.293
    14   6 C        3.807    -0.070    21.828     6.651
    15   6 C        3.801    -0.068    21.802     6.648
    16   6 C        3.750    -0.004    20.717     6.491
    17   7 N        2.728    -0.097    23.144     7.145
    18   6 C        3.748    -0.000    20.647     6.481
    19   6 C        3.808    -0.073    21.883     6.659
    20   6 C        2.968     0.012    27.752     8.641
    21   6 C        2.922    -0.043    29.060     8.840
    22   6 C        2.912    -0.064    29.601     8.921
    23   6 C        2.864     0.136    25.021     8.199
    24   8 O        1.706    -0.212    17.526     5.652
    25   6 C        3.645     0.022    20.533     6.513
    26   6 C        2.861     0.136    25.020     8.199
    27   8 O        1.706    -0.215    17.580     5.661
    28   6 C        3.644     0.025    20.498     6.508
    29   6 C        2.919    -0.075    29.879     8.964
    30   6 C        3.703    -0.050    21.635     6.651
    31   6 C        3.855    -0.008    20.680     6.468
    32   6 C        3.755    -0.111    22.670     6.789
    33   6 C        3.755    -0.120    22.862     6.818
    34   1 H        0.926     0.064     2.148     2.292
    35   1 H        0.924     0.056     2.248     2.345
    36   1 H        0.925     0.084     1.935     2.175
    37   1 H        0.924     0.053     2.278     2.360
    38   1 H        0.924     0.059     2.211     2.326
    39   1 H        0.925     0.085     1.926     2.171
    40   1 H        0.924     0.055     2.263     2.353
    41   1 H        0.926     0.065     2.141     2.288
    42   1 H        0.922     0.038     2.471     2.458
    43   1 H        0.924     0.053     2.279     2.361
    44   1 H        0.925     0.077     2.012     2.218
    45   1 H        0.924     0.045     2.388     2.416
    46   1 H        0.924     0.058     2.221     2.331
    47   1 H        0.923     0.037     2.494     2.470
    48   1 H        0.924     0.057     2.240     2.340
    49   1 H        0.923     0.041     2.441     2.443
    50   1 H        0.924     0.055     2.263     2.353
    51   1 H        0.924     0.065     2.144     2.290
    52   1 H        0.925     0.055     2.254     2.348
    53   1 H        0.926     0.057     2.237     2.339
    54   1 H        0.926     0.063     2.164     2.301
    55   1 H        0.924     0.059     2.211     2.326
    56   1 H        0.924     0.061     2.190     2.314
    57   1 H        0.925     0.086     1.922     2.168
    58   1 H        0.925     0.085     1.931     2.173
    59   1 H        0.924     0.054     2.268     2.355
    60   1 H        0.924     0.057     2.231     2.336
    61   1 H        0.926     0.054     2.273     2.358
    62   1 H        0.925     0.060     2.195     2.317
    63   1 H        0.923     0.042     2.423     2.434
    64   1 H        0.925     0.061     2.191     2.315
    65   1 H        0.924     0.045     2.389     2.417
    66   1 H        0.925     0.044     2.397     2.421
    67   1 H        0.925     0.038     2.476     2.461
    68   1 H        0.925     0.052     2.292     2.368
    69   1 H        0.925     0.062     2.176     2.307
    70   1 H        0.925     0.048     2.344     2.394
    71   1 H        0.925     0.057     2.239     2.340
    72   1 H        0.860     0.164     1.311     1.794

Wiberg/Mayer (AO) data.
largest (>0.10) Wiberg bond orders for each atom

     #   Z sym  total        # sym  WBO       # sym  WBO       # sym  WBO
 ---------------------------------------------------------------------------
     1   7 N    3.027 --     2 C    1.947    72 H    0.937
     2   6 C    3.914 --     1 N    1.947     3 C    0.990    42 H    0.896
     3   6 C    3.960 --     2 C    0.990     4 C    0.987    14 C    0.956
                            31 C    0.918
     4   6 C    3.897 --    13 C    1.410     5 C    1.325     3 C    0.987
     5   6 C    3.904 --     6 C    1.399     4 C    1.325    34 H    0.947
     6   6 C    3.886 --     5 C    1.399     9 C    1.215     7 O    1.102
     7   8 O    2.239 --     6 C    1.102     8 C    0.976
     8   6 C    3.926 --    36 H    0.976     7 O    0.976    35 H    0.972
                            37 H    0.972
     9   6 C    3.834 --    12 C    1.327     6 C    1.215    10 O    1.112
    10   8 O    2.251 --     9 C    1.112    11 C    0.973
    11   6 C    3.924 --    39 H    0.976    10 O    0.973    38 H    0.972
                            40 H    0.972
    12   6 C    3.926 --    13 C    1.454     9 C    1.327    41 H    0.949
    13   6 C    3.113 --    12 C    1.454     4 C    1.410
    14   6 C    3.976 --    15 C    1.007    43 H    0.969    44 H    0.966
                             3 C    0.956
    15   6 C    3.976 --    14 C    1.007    16 C    0.993    46 H    0.971
                            45 H    0.969
    16   6 C    3.962 --    17 N    1.008    15 C    0.993    48 H    0.967
                            47 H    0.938
    17   7 N    3.100 --    30 C    1.018    18 C    1.010    16 C    1.008
    18   6 C    3.960 --    17 N    1.010    50 H    0.969    19 C    0.968
                            49 H    0.954
    19   6 C    3.974 --    20 C    1.015    51 H    0.969    18 C    0.968
                            52 H    0.966
    20   6 C    3.920 --    29 C    1.386    21 C    1.385    19 C    1.015
    21   6 C    3.922 --    22 C    1.428    20 C    1.385    53 H    0.966
    22   6 C    3.946 --    21 C    1.428    23 C    1.369    54 H    0.962
    23   6 C    3.866 --    22 C    1.369    26 C    1.205    24 O    1.121
    24   8 O    2.247 --    23 C    1.121    25 C    0.974
    25   6 C    3.923 --    57 H    0.976    24 O    0.974    55 H    0.971
                            56 H    0.970
    26   6 C    3.874 --    29 C    1.385    23 C    1.205    27 O    1.115
    27   8 O    2.248 --    26 C    1.115    28 C    0.976
    28   6 C    3.926 --    27 O    0.976    58 H    0.976    59 H    0.972
                            60 H    0.971
    29   6 C    3.948 --    20 C    1.386    26 C    1.385    61 H    0.961
    30   6 C    3.967 --    17 N    1.018    64 H    0.978    62 H    0.970
                            63 H    0.963
    31   6 C    3.972 --    33 C    1.012    32 C    1.007    65 H    0.955
                             3 C    0.918
    32   6 C    3.985 --    31 C    1.007    68 H    0.982    67 H    0.982
                            66 H    0.982
    33   6 C    3.978 --    31 C    1.012    70 H    0.982    71 H    0.977
                            69 H    0.972
    34   1 H    0.983 --     5 C    0.947
    35   1 H    0.991 --     8 C    0.972
    36   1 H    0.992 --     8 C    0.976
    37   1 H    0.991 --     8 C    0.972
    38   1 H    0.990 --    11 C    0.972
    39   1 H    0.991 --    11 C    0.976
    40   1 H    0.990 --    11 C    0.972
    41   1 H    0.979 --    12 C    0.949
    42   1 H    0.974 --     2 C    0.896
    43   1 H    0.993 --    14 C    0.969
    44   1 H    0.991 --    14 C    0.966
    45   1 H    0.996 --    15 C    0.969
    46   1 H    0.993 --    15 C    0.971
    47   1 H    0.972 --    16 C    0.938
    48   1 H    0.996 --    16 C    0.967
    49   1 H    0.973 --    18 C    0.954
    50   1 H    0.996 --    18 C    0.969
    51   1 H    0.992 --    19 C    0.969
    52   1 H    0.994 --    19 C    0.966
    53   1 H    0.995 --    21 C    0.966
    54   1 H    0.994 --    22 C    0.962
    55   1 H    0.988 --    25 C    0.971
    56   1 H    0.988 --    25 C    0.970
    57   1 H    0.992 --    25 C    0.976
    58   1 H    0.992 --    28 C    0.976
    59   1 H    0.990 --    28 C    0.972
    60   1 H    0.990 --    28 C    0.971
    61   1 H    0.995 --    29 C    0.961
    62   1 H    0.985 --    30 C    0.970
    63   1 H    0.976 --    30 C    0.963
    64   1 H    0.996 --    30 C    0.978
    65   1 H    0.991 --    31 C    0.955
    66   1 H    0.995 --    32 C    0.982
    67   1 H    0.997 --    32 C    0.982
    68   1 H    0.995 --    32 C    0.982
    69   1 H    0.992 --    33 C    0.972
    70   1 H    0.995 --    33 C    0.982
    71   1 H    0.993 --    33 C    0.977
    72   1 H    0.964 --     1 N    0.937
 ---------------------------------------------------------------------------

molecular dipole:
                 x           y           z       tot (Debye)
 q only:        0.646      -0.088      -0.215
   full:        0.430      -0.405       0.211       1.594

           -------------------------------------------------
          | TOTAL ENERGY              -99.351727364063 Eh   |
          | GRADIENT NORM               0.004009442422 Eh/α |
          | HOMO-LUMO GAP               0.798967883873 eV   |
           -------------------------------------------------

 * finished run on 2024/04/06 at 11:15:30.456
