   * xtb version 6.6.1 (8d0f1dd) compiled by 'conda@1efc2f54142f' on 2023-08-01
          program call               : xtb struc.xyz --opt loose --input .xc1 --gfn2

   ID    Z sym.   atoms
    1    6 C      1, 3, 5-7, 10, 11, 14
    2    7 N      2, 4, 9, 13
    3    8 O      8, 12
    4    1 H      15-25
constraining bond 4 11 to    5.9200000 Å, actual value:    3.6888736 Å

          :  Hamiltonian                  GFN2-xTB          :
 * total energy  :   -33.3596133 Eh     change       -0.6650680E-10 Eh
 * total energy  :   -36.9448143 Eh     change       -0.3585201E+01 Eh
 * total energy  :   -39.6175035 Eh     change       -0.2672689E+01 Eh
 * total energy  :   -41.2327336 Eh     change       -0.1615230E+01 Eh
 * total energy  :   -41.8174307 Eh     change       -0.5846971E+00 Eh
 * total energy  :   -41.8830321 Eh     change       -0.6560145E-01 Eh
 * total energy  :   -41.9068718 Eh     change       -0.2383971E-01 Eh
 * total energy  :   -41.9537371 Eh     change       -0.4686526E-01 Eh
 * total energy  :   -41.9763100 Eh     change       -0.2257291E-01 Eh
 * total energy  :   -41.9894143 Eh     change       -0.1310428E-01 Eh
 * total energy  :   -42.0739883 Eh     change        0.2587253E-04 Eh
 * total energy  :   -42.0740776 Eh     change       -0.8934920E-04 Eh
 * total energy  :   -42.0740990 Eh     change       -0.2132864E-04 Eh
 * total energy  :   -42.0741291 Eh     change       -0.3014863E-04 Eh
 * total energy  :   -42.0741920 Eh     change       -0.6288368E-04 Eh
 * total energy  :   -42.0742419 Eh     change       -0.4990049E-04 Eh
 * total energy  :   -42.0742521 Eh     change       -0.1025069E-04 Eh
 * total energy  :   -42.0743163 Eh     change       -0.6410400E-04 Eh
 * total energy  :   -42.0743465 Eh     change       -0.3025089E-04 Eh
   *** GEOMETRY OPTIMIZATION CONVERGED AFTER 89 ITERATIONS ***

 final structure:
================
25
 xtb: 6.6.1 (8d0f1dd)
C            2.61685790403232        0.82789497175192       -1.03361733703341
N            1.98999036433743       -0.14805685351238       -0.16348698924681
C            2.78128257931761       -1.04987899427533        0.49615235181654
N            2.52405851147086       -1.94782969362408        1.33852198664783
C           -0.18797168270062       -1.14648582287394       -0.16425797307543
C            0.57187926199374       -0.03882502596221       -0.03214516357914
C            0.06657799397180        1.26494386314570        0.23041639901369
O            0.65330710086819        2.25870723724402        0.52663210936008
N           -1.48764818920296        1.46219055435706        0.10892907943458
C           -1.95420727864455        2.62301279676318        0.88186682551906
C           -2.21470682021351        0.91345775880292       -0.74683395575047
O           -2.74981764273434        0.26160196284273       -1.53415137852030
N           -0.79159892318490       -2.11526317579355       -0.46063940482098
C           -1.42910808363156       -3.32644889223793       -0.21402310960310
H            2.73814726326647        1.78784955205539       -0.52517220684215
H            3.59625745856895        0.46949320092411       -1.34069885770765
H            2.00428614807309        0.97942050461204       -1.92280072482080
H            3.82720300685578       -0.95737907439384        0.21935916305881
H           -1.36509037549254        2.68270101648555        1.79554543985548
H           -1.80242436899566        3.54019620529600        0.31064050866555
H           -3.00813600069964        2.50772526992592        1.12165443940038
H           -1.48710403915621       -3.55895733412594        0.85156223968578
H           -0.87438184869312       -4.11074742819833       -0.73295247380310
H           -2.43080633804536       -3.28035439545260       -0.64511614282370
H            1.57358551274705       -2.08072966215221        1.66578679306852

          :  Hamiltonian                  GFN2-xTB          :
         :: total energy             -42.074346503074 Eh    ::
         :: gradient norm              0.002467734358 Eh/a0 ::
         :: HOMO-LUMO gap              1.787728564978 eV    ::
         :: SCC energy               -42.683526265694 Eh    ::
         :: -> dispersion             -0.020739865691 Eh    ::
         :: repulsion energy           0.608929385335 Eh    ::

    * Orbital Energies and Occupations

         #    Occupation            Energy/Eh            Energy/eV
      -------------------------------------------------------------
         1        2.0000           -0.9439970             -25.6875
       ...           ...                  ...                  ...
        25        2.0000           -0.6745675             -18.3559
        26        2.0000           -0.6638093             -18.0632
        27        1.9999           -0.6399043             -17.4127
        28        1.9998           -0.6345909             -17.2681
        29        1.9998           -0.6293265             -17.1248
        30        1.9996           -0.6213112             -16.9067
        31        1.9994           -0.6144567             -16.7202
        32        1.9991           -0.6085757             -16.5602
        33        1.9991           -0.6072348             -16.5237
        34        1.9984           -0.5988601             -16.2958
        35        1.9860           -0.5644812             -15.3603
        36        1.8630           -0.5273445             -14.3498
        37        1.8055           -0.5212937             -14.1851 (HOMO)
        38        0.2555           -0.4555958             -12.3974 (LUMO)
        39        0.0641           -0.4320577             -11.7569
        40        0.0269           -0.4179842             -11.3739
        41        0.0035           -0.3856666             -10.4945
        42        0.0005           -0.3538847              -9.6297
        43        0.0000           -0.3066407              -8.3441
        44        0.0000           -0.2604390              -7.0869
        45                         -0.1595157              -4.3406
        46                         -0.1187645              -3.2317
        47                         -0.0967935              -2.6339
        48                         -0.0435971              -1.1863
       ...                                ...                  ...
        67                          1.0090643              27.4580
      -------------------------------------------------------------
                  HL-Gap            0.0656978 Eh            1.7877 eV

     #   Z          covCN         q      C6AA      α(0)
     1   6 C        3.702    -0.069    21.986     6.704
     2   7 N        2.739    -0.030    21.816     6.937
     3   6 C        2.761     0.124    25.270     8.232
     4   7 N        1.772    -0.270    27.828     7.811
     5   6 C        1.909     0.087    28.933     8.687
     6   6 C        2.886    -0.003    28.108     8.692
     7   6 C        2.746     0.261    22.607     7.785
     8   8 O        0.857    -0.292    19.644     5.942
     9   7 N        2.710    -0.050    22.211     7.000
    10   6 C        3.706    -0.061    21.819     6.677
    11   6 C        1.792     0.307    24.291     7.966
    12   8 O        0.856    -0.140    17.113     5.546
    13   7 N        1.821    -0.002    21.988     6.948
    14   6 C        3.686    -0.057    21.800     6.684
    15   1 H        0.924     0.098     1.801     2.099
    16   1 H        0.925     0.089     1.887     2.148
    17   1 H        0.924     0.071     2.070     2.250
    18   1 H        0.925     0.098     1.804     2.100
    19   1 H        0.925     0.120     1.610     1.984
    20   1 H        0.924     0.112     1.682     2.028
    21   1 H        0.925     0.097     1.810     2.104
    22   1 H        0.924     0.103     1.760     2.075
    23   1 H        0.924     0.128     1.548     1.946
    24   1 H        0.924     0.122     1.600     1.978
    25   1 H        0.860     0.157     1.356     1.824

Wiberg/Mayer (AO) data.
largest (>0.10) Wiberg bond orders for each atom

     #   Z sym  total        # sym  WBO       # sym  WBO       # sym  WBO
 ---------------------------------------------------------------------------
     1   6 C    3.934 --     2 N    0.989    17 H    0.975    16 H    0.969
                            15 H    0.956
     2   7 N    3.415 --     3 C    1.182     6 C    0.999     1 C    0.989
                             4 N    0.139
     3   6 C    3.949 --     4 N    1.786     2 N    1.182    18 H    0.926
     4   7 N    2.907 --     3 C    1.786    25 H    0.934     2 N    0.139
     5   6 C    3.882 --    13 N    2.236     6 C    1.385
     6   6 C    3.866 --     5 C    1.385     7 C    1.176     2 N    0.999
                            13 N    0.112
     7   6 C    3.852 --     8 O    1.793     6 C    1.176     9 N    0.728
     8   8 O    2.167 --     7 C    1.793
     9   7 N    3.562 --    11 C    1.572    10 C    0.921     7 C    0.728
                            12 O    0.225
    10   6 C    3.884 --    21 H    0.975    19 H    0.967    20 H    0.965
                             9 N    0.921
    11   6 C    3.710 --    12 O    2.029     9 N    1.572
    12   8 O    2.349 --    11 C    2.029     9 N    0.225
    13   7 N    3.544 --     5 C    2.236    14 C    1.041     6 C    0.112
    14   6 C    3.928 --    13 N    1.041    22 H    0.948    24 H    0.940
                            23 H    0.932
    15   1 H    0.975 --     1 C    0.956
    16   1 H    0.988 --     1 C    0.969
    17   1 H    0.988 --     1 C    0.975
    18   1 H    0.977 --     3 C    0.926
    19   1 H    0.984 --    10 C    0.967
    20   1 H    0.987 --    10 C    0.965
    21   1 H    0.990 --    10 C    0.975
    22   1 H    0.979 --    14 C    0.948
    23   1 H    0.979 --    14 C    0.932
    24   1 H    0.979 --    14 C    0.940
    25   1 H    0.966 --     4 N    0.934
 ---------------------------------------------------------------------------

molecular dipole:
                 x           y           z       tot (Debye)
 q only:       -1.236      -0.653      -0.271
   full:       -1.590      -0.504      -0.389       4.354

           -------------------------------------------------
          | TOTAL ENERGY              -42.074346503074 Eh   |
          | GRADIENT NORM               0.002467734358 Eh/α |
          | HOMO-LUMO GAP               1.787728564978 eV   |
           -------------------------------------------------

 * finished run on 2024/06/05 at 19:58:58.826
