   * xtb version 6.6.1 (8d0f1dd) compiled by 'conda@1efc2f54142f' on 2023-08-01
          program call               : xtb struc.xyz --opt loose --input .xc1 --gfn2

   ID    Z sym.   atoms
    1    6 C      1, 3, 5-7, 10, 11, 14
    2    7 N      2, 4, 9, 13
    3    8 O      8, 12
    4    1 H      15-25
constraining bond 5 11 to    5.0000000 Å, actual value:    2.3692066 Å

          :  Hamiltonian                  GFN2-xTB          :
 * total energy  :     7.1833387 Eh     change       -0.6650680E-10 Eh
 * total energy  :   -14.7250009 Eh     change       -0.2190834E+02 Eh
 * total energy  :   -27.3611636 Eh     change       -0.1263616E+02 Eh
 * total energy  :   -35.6190507 Eh     change       -0.8257887E+01 Eh
 * total energy  :   -40.0244630 Eh     change       -0.4405412E+01 Eh
 * total energy  :   -41.0858294 Eh     change       -0.1061366E+01 Eh
 * total energy  :   -41.2890939 Eh     change       -0.2032645E+00 Eh
 * total energy  :   -41.4038881 Eh     change       -0.1147943E+00 Eh
 * total energy  :   -41.4832706 Eh     change       -0.7938247E-01 Eh
 * total energy  :   -41.5347539 Eh     change       -0.5148327E-01 Eh
 * total energy  :   -42.0446675 Eh     change       -0.5182472E-04 Eh
 * total energy  :   -42.0447024 Eh     change       -0.3482142E-04 Eh
 * total energy  :   -42.0447513 Eh     change       -0.4893534E-04 Eh
 * total energy  :   -42.0448149 Eh     change       -0.6356102E-04 Eh
 * total energy  :   -42.0448907 Eh     change       -0.7581860E-04 Eh
 * total energy  :   -42.0449530 Eh     change       -0.6232710E-04 Eh
 * total energy  :   -42.0448584 Eh     change        0.9463345E-04 Eh
 * total energy  :   -42.0450556 Eh     change       -0.1972332E-03 Eh
 * total energy  :   -42.0450915 Eh     change       -0.3593834E-04 Eh
   *** GEOMETRY OPTIMIZATION CONVERGED AFTER 40 ITERATIONS ***

 final structure:
================
25
 xtb: 6.6.1 (8d0f1dd)
C            3.30231455142430        1.13474051065076        0.01739089625986
N            2.34570170969467        0.05721959619195        0.00093190672136
C            2.66651083557002       -1.23064279988205       -0.00293012854489
N            1.55860548843793       -1.97835017229617        0.00377379147277
C            0.43572422463203       -1.13233853942285        0.01099196846724
C            0.98601692424672        0.18099853676033        0.00781209338790
C            0.24810550264297        1.45213657396701       -0.00905713180156
O            0.82422370955525        2.54353694683936       -0.07814923018167
N           -1.06678883438726        1.29582449141941        0.05384012802387
C           -1.99546938043774        2.33323550964033        0.06553372505313
C           -4.37657159764427        0.19341108805290       -0.27878101452446
O           -4.16952125784066       -0.90731041920187       -0.16921537970941
N           -0.80113079952412       -1.46056124512524        0.01865221338846
C           -1.33408217081760       -2.76570909296922        0.02756327095448
H            3.80535174167756        1.17501346670611        0.98434691633628
H            4.04635803358242        0.98826203246229       -0.76428740263744
H            2.77395560854546        2.07628457628304       -0.14455522711644
H            3.67070479759836       -1.61258402782276       -0.00446564133796
H           -1.52387902001691        3.32088909311378       -0.03814055891342
H           -2.71837357522392        2.18266653493102       -0.74574088164638
H           -2.56416965511123        2.30104853105878        1.00199474888848
H           -1.00898906259138       -3.33788963694338        0.90464453931427
H           -1.06023838497645       -3.32525196853096       -0.87467823765944
H           -2.42040832213126       -2.67916234434075        0.05819670737914
H            1.53648044719572       -2.98722869994126       -0.01450045367385

          :  Hamiltonian                  GFN2-xTB          :
         :: total energy             -42.045091544529 Eh    ::
         :: gradient norm              0.002170284872 Eh/a0 ::
         :: HOMO-LUMO gap              0.291153839260 eV    ::
         :: SCC energy               -42.581250536706 Eh    ::
         :: -> dispersion             -0.020179882644 Eh    ::
         :: repulsion energy           0.536046906751 Eh    ::

    * Orbital Energies and Occupations

         #    Occupation            Energy/Eh            Energy/eV
      -------------------------------------------------------------
         1        2.0000           -0.8969008             -24.4059
       ...           ...                  ...                  ...
        25        1.9999           -0.6564866             -17.8639
        26        1.9999           -0.6559869             -17.8503
        27        1.9994           -0.6329325             -17.2230
        28        1.9991           -0.6276940             -17.0804
        29        1.9988           -0.6226778             -16.9439
        30        1.9982           -0.6163460             -16.7716
        31        1.9972           -0.6095037             -16.5854
        32        1.9958           -0.6030386             -16.4095
        33        1.9693           -0.5713665             -15.5477
        34        1.8993           -0.5520010             -15.0207
        35        1.7830           -0.5388448             -14.6627
        36        1.6625           -0.5307428             -14.4422
        37        1.4916           -0.5225398             -14.2190 (HOMO)
        38        1.1977           -0.5118401             -13.9279 (LUMO)
        39        0.0071           -0.4162325             -11.3263
        40        0.0007           -0.3795882             -10.3291
        41        0.0007           -0.3794985             -10.3267
        42        0.0003           -0.3675228             -10.0008
        43        0.0000           -0.2878945              -7.8340
        44                         -0.1826297              -4.9696
        45                         -0.1482642              -4.0345
        46                         -0.0754168              -2.0522
        47                         -0.0725391              -1.9739
        48                         -0.0230894              -0.6283
       ...                                ...                  ...
        67                          0.7216110              19.6360
      -------------------------------------------------------------
                  HL-Gap            0.0106997 Eh            0.2912 eV

     #   Z          covCN         q      C6AA      α(0)
     1   6 C        3.693    -0.096    22.531     6.791
     2   7 N        2.825     0.087    19.731     6.597
     3   6 C        3.009     0.068    26.466     8.439
     4   7 N        2.786    -0.082    22.824     7.096
     5   6 C        2.966     0.142    24.909     8.186
     6   6 C        3.093     0.006    27.779     8.639
     7   6 C        2.760     0.283    22.208     7.717
     8   8 O        0.858    -0.381    21.306     6.189
     9   7 N        1.837    -0.161    25.277     7.451
    10   6 C        3.694    -0.041    21.491     6.632
    11   6 C        0.856     0.064    33.231     9.619
    12   8 O        0.856    -0.033    15.561     5.289
    13   7 N        1.825    -0.160    25.246     7.445
    14   6 C        3.696    -0.045    21.556     6.642
    15   1 H        0.924     0.107     1.727     2.055
    16   1 H        0.925     0.103     1.762     2.076
    17   1 H        0.924     0.148     1.406     1.855
    18   1 H        0.926     0.120     1.616     1.988
    19   1 H        0.923     0.123     1.590     1.972
    20   1 H        0.924     0.127     1.557     1.951
    21   1 H        0.924     0.122     1.595     1.975
    22   1 H        0.924     0.083     1.948     2.182
    23   1 H        0.924     0.085     1.930     2.173
    24   1 H        0.925     0.111     1.687     2.031
    25   1 H        0.860     0.221     1.003     1.569

Wiberg/Mayer (AO) data.
largest (>0.10) Wiberg bond orders for each atom

     #   Z sym  total        # sym  WBO       # sym  WBO       # sym  WBO
 ---------------------------------------------------------------------------
     1   6 C    3.895 --     2 N    0.982    16 H    0.963    15 H    0.955
                            17 H    0.941
     2   7 N    3.710 --     3 C    1.366     6 C    1.213     1 C    0.982
     3   6 C    3.819 --     2 N    1.366     4 N    1.329    18 H    0.951
     4   7 N    3.519 --     3 C    1.329     5 C    1.067    25 H    0.923
     5   6 C    3.944 --    13 N    1.532     6 C    1.207     4 N    1.067
     6   6 C    3.689 --     2 N    1.213     5 C    1.207     7 C    1.033
     7   6 C    3.924 --     8 O    1.517     9 N    1.303     6 C    1.033
     8   8 O    1.747 --     7 C    1.517     9 N    0.111
     9   7 N    2.587 --     7 C    1.303    10 C    1.118     8 O    0.111
    10   6 C    3.853 --     9 N    1.118    19 H    0.901    21 H    0.900
                            20 H    0.897
    11   6 C    2.621 --    12 O    2.610
    12   8 O    2.616 --    11 C    2.610
    13   7 N    2.730 --     5 C    1.532    14 C    1.065
    14   6 C    3.910 --    13 N    1.065    24 H    0.949    22 H    0.930
                            23 H    0.929
    15   1 H    0.985 --     1 C    0.955
    16   1 H    0.986 --     1 C    0.963
    17   1 H    0.975 --     1 C    0.941
    18   1 H    0.983 --     3 C    0.951
    19   1 H    0.905 --    10 C    0.901
    20   1 H    0.922 --    10 C    0.897
    21   1 H    0.922 --    10 C    0.900
    22   1 H    0.948 --    14 C    0.930
    23   1 H    0.947 --    14 C    0.929
    24   1 H    0.962 --    14 C    0.949
    25   1 H    0.950 --     4 N    0.923
 ---------------------------------------------------------------------------

molecular dipole:
                 x           y           z       tot (Debye)
 q only:        1.480      -1.624       0.058
   full:        1.868      -2.383       0.091       7.700

           -------------------------------------------------
          | TOTAL ENERGY              -42.045091544529 Eh   |
          | GRADIENT NORM               0.002170284872 Eh/α |
          | HOMO-LUMO GAP               0.291153839260 eV   |
           -------------------------------------------------

 * finished run on 2024/06/05 at 20:00:11.149
