   * xtb version 6.6.1 (8d0f1dd) compiled by 'conda@1efc2f54142f' on 2023-08-01
          program call               : xtb struc.xyz --opt loose --input .xc1 --gfn2

   ID    Z sym.   atoms
    1    6 C      1, 3, 5-7, 10, 11, 14
    2    7 N      2, 4, 9, 13
    3    8 O      8, 12
    4    1 H      15-25
constraining bond 4 13 to    4.8400000 Å, actual value:    2.4476530 Å

          :  Hamiltonian                  GFN2-xTB          :
 * total energy  :   -32.0286795 Eh     change       -0.6650680E-10 Eh
 * total energy  :   -35.8506712 Eh     change       -0.3821992E+01 Eh
 * total energy  :   -38.7899264 Eh     change       -0.2939255E+01 Eh
 * total energy  :   -40.6162758 Eh     change       -0.1826349E+01 Eh
 * total energy  :   -41.5083118 Eh     change       -0.8920359E+00 Eh
 * total energy  :   -41.6663823 Eh     change       -0.1580705E+00 Eh
 * total energy  :   -41.6910223 Eh     change       -0.2463997E-01 Eh
 * total energy  :   -41.7640728 Eh     change       -0.7305055E-01 Eh
 * total energy  :   -41.8039460 Eh     change       -0.3987322E-01 Eh
 * total energy  :   -41.8195457 Eh     change       -0.1559969E-01 Eh
 * total energy  :   -42.1028715 Eh     change       -0.2475389E-03 Eh
 * total energy  :   -42.1029963 Eh     change       -0.1248088E-03 Eh
 * total energy  :   -42.1031431 Eh     change       -0.1467925E-03 Eh
 * total energy  :   -42.1032264 Eh     change       -0.8324071E-04 Eh
 * total energy  :   -42.1033393 Eh     change       -0.1129808E-03 Eh
 * total energy  :   -42.1034318 Eh     change       -0.9250266E-04 Eh
 * total energy  :   -42.1034842 Eh     change       -0.5236265E-04 Eh
 * total energy  :   -42.1034836 Eh     change        0.5952819E-06 Eh
 * total energy  :   -42.1035224 Eh     change       -0.3876975E-04 Eh
   *** GEOMETRY OPTIMIZATION CONVERGED AFTER 82 ITERATIONS ***

 final structure:
================
25
 xtb: 6.6.1 (8d0f1dd)
C            2.74987466700540        0.65663842936015        1.12243179627014
N            2.25939385558636       -0.24048461289579        0.09944858883228
C            3.15090065072448       -0.72708895493761       -0.81751294029999
N            2.99758096816079       -1.40545630689642       -1.86063503930338
C            0.04818254476157       -1.32168982813795        0.35989066338061
C            0.86216385325738       -0.31644798678153        0.02006597677232
C            0.15517285535031        0.96759515385726       -0.34335279428542
O            0.79084271223546        1.94916963834226       -0.63255705410274
N           -1.21489275761232        0.91188428618217       -0.32297616618305
C           -1.95569940901544        2.10817380331059       -0.70817562628938
C           -1.99209096697574       -0.16472790612042        0.05506753765733
O           -3.18773068008308       -0.14966815293093        0.09496824057037
N           -1.26582446283226       -1.32164687389960        0.42061017225254
C           -2.02813765980613       -2.48569922886417        0.82154738774337
H            2.21571055800994        0.47973123305261        2.05651618334718
H            3.81386773778195        0.49861957265849        1.28272520531638
H            2.59243306292853        1.69924550316921        0.82410743225274
H            4.17797555828931       -0.45783375767716       -0.58318701889586
H           -1.24732423184959        2.91082328624994       -0.89933067977632
H           -2.54200991917480        1.90436959625568       -1.60511174488314
H           -2.64144048918931        2.38521335935045        0.09281314201127
H           -1.38311636180748       -3.17152029178907        1.36519212279070
H           -2.43740825119305       -2.98836100689443       -0.05801536310071
H           -2.86325494580767       -2.16600063784635        1.44538463794540
H            2.10526262535669       -1.73659977451775       -2.19874304212297

          :  Hamiltonian                  GFN2-xTB          :
         :: total energy             -42.103522379121 Eh    ::
         :: gradient norm              0.001825911624 Eh/a0 ::
         :: HOMO-LUMO gap              0.764895254536 eV    ::
         :: SCC energy               -42.635300755330 Eh    ::
         :: -> dispersion             -0.021613848306 Eh    ::
         :: repulsion energy           0.531563513269 Eh    ::

    * Orbital Energies and Occupations

         #    Occupation            Energy/Eh            Energy/eV
      -------------------------------------------------------------
         1        2.0000           -0.9055968             -24.6425
       ...           ...                  ...                  ...
        25        1.9991           -0.6579145             -17.9028
        26        1.9988           -0.6534468             -17.7812
        27        1.9982           -0.6464061             -17.5896
        28        1.9971           -0.6389137             -17.3857
        29        1.9967           -0.6369518             -17.3323
        30        1.9961           -0.6342942             -17.2600
        31        1.9951           -0.6307333             -17.1631
        32        1.9933           -0.6256481             -17.0248
        33        1.9708           -0.6021143             -16.3844
        34        1.9486           -0.5930039             -16.1365
        35        1.8816           -0.5792423             -15.7620
        36        1.7810           -0.5686350             -15.4733
        37        1.6131           -0.5580503             -15.1853 (HOMO)
        38        0.8279           -0.5299409             -14.4204 (LUMO)
        39        0.0022           -0.4276693             -11.6375
        40        0.0007           -0.4096437             -11.1470
        41        0.0002           -0.3858141             -10.4985
        42        0.0000           -0.3179702              -8.6524
        43                         -0.2150000              -5.8504
        44                         -0.1643913              -4.4733
        45                         -0.1471782              -4.0049
        46                         -0.0948016              -2.5797
        47                         -0.0620397              -1.6882
        48                         -0.0512629              -1.3949
       ...                                ...                  ...
        67                          0.5434151              14.7871
      -------------------------------------------------------------
                  HL-Gap            0.0281094 Eh            0.7649 eV

     #   Z          covCN         q      C6AA      α(0)
     1   6 C        3.712    -0.078    22.130     6.722
     2   7 N        2.733     0.016    20.980     6.803
     3   6 C        2.764     0.129    25.154     8.214
     4   7 N        1.773    -0.199    26.110     7.567
     5   6 C        1.948    -0.001    31.111     9.007
     6   6 C        2.902     0.019    27.575     8.610
     7   6 C        2.780     0.279    22.275     7.730
     8   8 O        0.858    -0.318    20.106     6.012
     9   7 N        2.738    -0.063    22.467     7.040
    10   6 C        3.709    -0.062    21.842     6.679
    11   6 C        2.733     0.318    21.592     7.608
    12   8 O        0.859    -0.314    20.036     6.001
    13   7 N        2.741     0.012    21.040     6.813
    14   6 C        3.702    -0.068    21.972     6.702
    15   1 H        0.924     0.095     1.829     2.115
    16   1 H        0.925     0.105     1.738     2.062
    17   1 H        0.924     0.123     1.593     1.974
    18   1 H        0.925     0.125     1.575     1.963
    19   1 H        0.925     0.118     1.627     1.995
    20   1 H        0.924     0.111     1.689     2.033
    21   1 H        0.924     0.113     1.670     2.021
    22   1 H        0.925     0.110     1.700     2.039
    23   1 H        0.924     0.114     1.663     2.017
    24   1 H        0.924     0.121     1.607     1.983
    25   1 H        0.860     0.195     1.130     1.665

Wiberg/Mayer (AO) data.
largest (>0.10) Wiberg bond orders for each atom

     #   Z sym  total        # sym  WBO       # sym  WBO       # sym  WBO
 ---------------------------------------------------------------------------
     1   6 C    3.893 --     2 N    0.989    15 H    0.963    16 H    0.962
                            17 H    0.928
     2   7 N    3.386 --     3 C    1.180     6 C    1.051     1 C    0.989
                             4 N    0.101
     3   6 C    3.932 --     4 N    1.786     2 N    1.180    18 H    0.911
     4   7 N    2.845 --     3 C    1.786    25 H    0.920     2 N    0.101
     5   6 C    3.200 --     6 C    1.586    13 N    1.339
     6   6 C    3.775 --     5 C    1.586     2 N    1.051     7 C    0.917
     7   6 C    3.871 --     8 O    1.693     9 N    1.154     6 C    0.917
     8   8 O    2.038 --     7 C    1.693     9 N    0.129
     9   7 N    3.543 --     7 C    1.154    11 C    1.114    10 C    0.957
                             8 O    0.129    12 O    0.124
    10   6 C    3.876 --    19 H    0.965     9 N    0.957    21 H    0.956
                            20 H    0.954
    11   6 C    3.926 --    12 O    1.716     9 N    1.114    13 N    1.006
    12   8 O    2.044 --    11 C    1.716     9 N    0.124    13 N    0.102
    13   7 N    3.544 --     5 C    1.339    11 C    1.006    14 C    0.967
                            12 O    0.102
    14   6 C    3.879 --    22 H    0.971    13 N    0.967    24 H    0.956
                            23 H    0.946
    15   1 H    0.975 --     1 C    0.963
    16   1 H    0.981 --     1 C    0.962
    17   1 H    0.950 --     1 C    0.928
    18   1 H    0.956 --     3 C    0.911
    19   1 H    0.982 --    10 C    0.965
    20   1 H    0.974 --    10 C    0.954
    21   1 H    0.975 --    10 C    0.956
    22   1 H    0.983 --    14 C    0.971
    23   1 H    0.966 --    14 C    0.946
    24   1 H    0.975 --    14 C    0.956
    25   1 H    0.945 --     4 N    0.920
 ---------------------------------------------------------------------------

molecular dipole:
                 x           y           z       tot (Debye)
 q only:        0.924      -0.905       0.487
   full:        0.756      -0.881       0.573       3.291

           -------------------------------------------------
          | TOTAL ENERGY              -42.103522379121 Eh   |
          | GRADIENT NORM               0.001825911624 Eh/α |
          | HOMO-LUMO GAP               0.764895254536 eV   |
           -------------------------------------------------

 * finished run on 2024/06/05 at 20:00:11.381
