   * xtb version 6.6.1 (8d0f1dd) compiled by 'conda@1efc2f54142f' on 2023-08-01
          program call               : xtb struc.xyz --opt loose --input .xc1 --gfn2

   ID    Z sym.   atoms
    1    6 C      1, 3, 5-7, 10, 11, 14
    2    7 N      2, 4, 9, 13
    3    8 O      8, 12
    4    1 H      15-25
constraining bond 1 6 to    5.0000000 Å, actual value:    2.4924048 Å

          :  Hamiltonian                  GFN2-xTB          :
 * total energy  :   -31.0325644 Eh     change       -0.2401990E-09 Eh
 * total energy  :   -35.2016178 Eh     change       -0.4169053E+01 Eh
 * total energy  :   -38.4771935 Eh     change       -0.3275576E+01 Eh
 * total energy  :   -40.5180729 Eh     change       -0.2040879E+01 Eh
 * total energy  :   -41.4119493 Eh     change       -0.8938764E+00 Eh
 * total energy  :   -41.5789923 Eh     change       -0.1670430E+00 Eh
 * total energy  :   -41.6092850 Eh     change       -0.3029267E-01 Eh
 * total energy  :   -41.6548118 Eh     change       -0.4552686E-01 Eh
 * total energy  :   -41.6874852 Eh     change       -0.3267333E-01 Eh
 * total energy  :   -41.7246309 Eh     change       -0.3714568E-01 Eh
 * total energy  :   -42.1677445 Eh     change       -0.1097211E-03 Eh
 * total energy  :   -42.1679929 Eh     change       -0.2484001E-03 Eh
 * total energy  :   -42.1681295 Eh     change       -0.1365480E-03 Eh
 * total energy  :   -42.1682579 Eh     change       -0.1284337E-03 Eh
 * total energy  :   -42.1683877 Eh     change       -0.1297618E-03 Eh
 * total energy  :   -42.1685073 Eh     change       -0.1196630E-03 Eh
 * total energy  :   -42.1685701 Eh     change       -0.6273045E-04 Eh
 * total energy  :   -42.1685974 Eh     change       -0.2734667E-04 Eh
 * total energy  :   -42.1686380 Eh     change       -0.4061693E-04 Eh
   *** GEOMETRY OPTIMIZATION CONVERGED AFTER 67 ITERATIONS ***

 final structure:
================
25
 xtb: 6.6.1 (8d0f1dd)
C            3.97877316582588        3.35906067714674        0.11795760079168
N            2.17814470607154       -1.07794786882968       -0.02930145352150
C            2.08106474957746       -2.37293463211236       -0.07386306799246
N            0.77456269882424       -2.78986226063871       -0.09349012868670
C            0.01509161489042       -1.66519876674619       -0.05838631849783
C            0.91408999188322       -0.58953897150874       -0.01849795791835
C            0.43439169605018        0.76994340391729        0.03065816277862
O            1.10965601832920        1.77674825829580        0.06504930129778
N           -0.96584987665818        0.82905538558497        0.03492890375597
C           -1.58493170915654        2.14149486785793        0.09555590659771
C           -1.85767122080578       -0.22977434261718       -0.00136914071384
O           -3.05030483064961       -0.05251436979194        0.01044643805660
N           -1.32498986216416       -1.52368853466508       -0.05620774633000
C           -2.22614794418639       -2.65467471724260       -0.10557874037567
H            4.40229253163129        3.68215881742613        1.04965115850150
H            4.54088975207560        3.48213672214445       -0.78829654531557
H            2.99708454165439        2.91887774195232        0.09230083635892
H            2.91107115439565       -3.04941907148026       -0.09097361052362
H           -0.79751961196669        2.89180731175962        0.06667815366059
H           -2.26587889364882        2.27170095199373       -0.74653491639152
H           -2.16330497633844        2.23938789521782        1.01600628958777
H           -2.09627738117910       -3.28690006138277        0.77408503777433
H           -2.05251528171083       -3.23905445385987       -1.01028226185819
H           -3.24448355071022       -2.26674019305532       -0.11859419368589
H            0.45319403205953       -3.74588524776203       -0.13077008945359

          :  Hamiltonian                  GFN2-xTB          :
         :: total energy             -42.168638034999 Eh    ::
         :: gradient norm              0.002528168580 Eh/a0 ::
         :: HOMO-LUMO gap              1.621171834194 eV    ::
         :: SCC energy               -42.691297958877 Eh    ::
         :: -> dispersion             -0.020581059224 Eh    ::
         :: repulsion energy           0.522601583049 Eh    ::

    * Orbital Energies and Occupations

         #    Occupation            Energy/Eh            Energy/eV
      -------------------------------------------------------------
         1        2.0000           -0.8861226             -24.1126
       ...           ...                  ...                  ...
        25        1.9967           -0.6550145             -17.8239
        26        1.9940           -0.6406905             -17.4341
        27        1.9911           -0.6313926             -17.1811
        28        1.9881           -0.6243390             -16.9891
        29        1.9805           -0.6126198             -16.6702
        30        1.9804           -0.6124128             -16.6646
        31        1.9778           -0.6094572             -16.5842
        32        1.9770           -0.6085690             -16.5600
        33        1.9509           -0.5902723             -16.0621
        34        1.8960           -0.5717673             -15.5586
        35        1.8942           -0.5713429             -15.5470
        36        1.8501           -0.5625130             -15.3068
        37        1.7458           -0.5485813             -14.9277 (HOMO)
        38        0.7171           -0.4890043             -13.3065 (LUMO)
        39        0.0432           -0.4122488             -11.2179
        40        0.0194           -0.3929318             -10.6922
        41        0.0056           -0.3631228              -9.8811
        42        0.0002           -0.2822637              -7.6808
        43        0.0000           -0.2009234              -5.4674
        44        0.0000           -0.1590285              -4.3274
        45        0.0000           -0.1349617              -3.6725
        46                         -0.0686559              -1.8682
        47                         -0.0476308              -1.2961
        48                         -0.0318614              -0.8670
       ...                                ...                  ...
        67                          0.5421060              14.7515
      -------------------------------------------------------------
                  HL-Gap            0.0595770 Eh            1.6212 eV

     #   Z          covCN         q      C6AA      α(0)
     1   6 C        2.778    -0.085    30.107     8.987
     2   7 N        1.905    -0.144    24.901     7.398
     3   6 C        3.145     0.103    25.485     8.259
     4   7 N        2.788    -0.078    22.756     7.085
     5   6 C        3.053     0.112    25.484     8.279
     6   6 C        3.195     0.025    26.929     8.461
     7   6 C        2.764     0.273    22.385     7.748
     8   8 O        0.858    -0.334    20.413     6.058
     9   7 N        2.744    -0.073    22.649     7.068
    10   6 C        3.709    -0.060    21.799     6.673
    11   6 C        2.733     0.317    21.616     7.612
    12   8 O        0.860    -0.343    20.578     6.082
    13   7 N        2.737    -0.042    22.050     6.974
    14   6 C        3.697    -0.070    22.010     6.711
    15   1 H        0.926     0.128     1.546     1.945
    16   1 H        0.926     0.128     1.549     1.946
    17   1 H        0.926     0.149     1.396     1.848
    18   1 H        0.926     0.113     1.670     2.021
    19   1 H        0.925     0.121     1.609     1.983
    20   1 H        0.924     0.113     1.667     2.019
    21   1 H        0.924     0.112     1.681     2.027
    22   1 H        0.924     0.094     1.837     2.120
    23   1 H        0.924     0.093     1.846     2.125
    24   1 H        0.925     0.130     1.534     1.937
    25   1 H        0.860     0.216     1.026     1.587

Wiberg/Mayer (AO) data.
largest (>0.10) Wiberg bond orders for each atom

     #   Z sym  total        # sym  WBO       # sym  WBO       # sym  WBO
 ---------------------------------------------------------------------------
     1   6 C    2.900 --    16 H    0.970    15 H    0.970    17 H    0.954
     2   7 N    2.974 --     3 C    1.552     6 C    1.260
     3   6 C    3.834 --     2 N    1.552     4 N    1.207    18 H    0.953
     4   7 N    3.559 --     5 C    1.222     3 C    1.207    25 H    0.924
     5   6 C    3.872 --     6 C    1.275     4 N    1.222    13 N    1.197
     6   6 C    3.826 --     5 C    1.275     2 N    1.260     7 C    1.076
     7   6 C    3.917 --     8 O    1.659     9 N    1.085     6 C    1.076
     8   8 O    1.937 --     7 C    1.659     9 N    0.118
     9   7 N    3.485 --    11 C    1.119     7 C    1.085    10 C    0.979
                             8 O    0.118    12 O    0.117
    10   6 C    3.866 --     9 N    0.979    19 H    0.955    20 H    0.946
                            21 H    0.944
    11   6 C    3.941 --    12 O    1.665     9 N    1.119    13 N    1.064
    12   8 O    1.963 --    11 C    1.665     9 N    0.117    13 N    0.107
    13   7 N    3.489 --     5 C    1.197    11 C    1.064    14 C    0.978
                            12 O    0.107
    14   6 C    3.899 --    13 N    0.978    23 H    0.960    22 H    0.959
                            24 H    0.957
    15   1 H    0.971 --     1 C    0.970
    16   1 H    0.972 --     1 C    0.970
    17   1 H    0.964 --     1 C    0.954
    18   1 H    0.983 --     3 C    0.953
    19   1 H    0.974 --    10 C    0.955
    20   1 H    0.963 --    10 C    0.946
    21   1 H    0.961 --    10 C    0.944
    22   1 H    0.975 --    14 C    0.959
    23   1 H    0.976 --    14 C    0.960
    24   1 H    0.977 --    14 C    0.957
    25   1 H    0.952 --     4 N    0.924
 ---------------------------------------------------------------------------

molecular dipole:
                 x           y           z       tot (Debye)
 q only:        1.367      -1.110      -0.037
   full:        1.188      -1.760      -0.058       5.401

           -------------------------------------------------
          | TOTAL ENERGY              -42.168638034999 Eh   |
          | GRADIENT NORM               0.002528168580 Eh/α |
          | HOMO-LUMO GAP               1.621171834194 eV   |
           -------------------------------------------------

 * finished run on 2024/06/05 at 19:58:42.919
