   * xtb version 6.6.1 (8d0f1dd) compiled by 'conda@1efc2f54142f' on 2023-08-01
          program call               : xtb xtbopt.xyz --opt crude --input .xc2 --gfn2

   ID    Z sym.   atoms
    1    6 C      1, 3, 5-7, 10, 11, 14
    2    7 N      2, 4, 9, 13
    3    8 O      8, 12
    4    1 H      15-25
########################################################################
[WARNING] Please study the warnings concerning your input carefully
-1- readin_getIntValue: could not parse ''
########################################################################

          :  Hamiltonian                  GFN2-xTB          :
 * total energy  :   -42.0982442 Eh     change       -0.8526513E-13 Eh
   *** GEOMETRY OPTIMIZATION CONVERGED AFTER 1 ITERATIONS ***

 final structure:
================
25
 xtb: 6.6.1 (8d0f1dd)
C            2.29140463414541       -0.15668902790734        1.32294213772844
N            1.81814604319989       -0.38036740004954       -0.02882599609528
C            2.56889640423921       -1.08900342038944       -0.92896325173170
N            2.39861121195894       -1.24587472959503       -2.16106620285306
C           -0.57484620228549        0.16872886978620       -0.03522045593161
C            0.73084704662093        0.44413035053777       -0.46566219746598
C            1.01550554529092        1.48790335588228       -1.26874135629518
O            1.32932546473206        2.34214283765750       -1.97014116735500
N           -1.77342600622644        0.81019798943653       -0.20975449480040
C           -2.19528057023610        2.11002613080619       -0.64266547485404
C           -2.40071246388217       -0.22283697920331        0.54982140625318
O           -3.49704784713239       -0.47077003015911        0.89105497715505
N           -1.12208451449085       -0.84225808540369        0.71405942169414
C           -0.75074026693583       -2.17799089715396        1.08287622050372
H            2.90211652749925       -0.99998914103146        1.63680318155174
H            2.89476087007318        0.75266572035332        1.38741138824540
H            1.44517300706356       -0.05740244583643        2.00149268378237
H            3.41013982549883       -1.60544334682524       -0.47776083651954
H           -1.80461626118942        2.32676664965052       -1.63753802593351
H           -3.28351641126192        2.10567319297318       -0.68259766533158
H           -1.86823646301071        2.88786827534626        0.05224755369149
H            0.12769375175870       -2.17188542566973        1.72774022086720
H           -0.54825185007482       -2.79321351742203        0.20214839850693
H           -1.59112730035015       -2.60449276282067        1.62812558993418
H            1.63769733909593       -0.79964762135875       -2.65661443684363

          :  Hamiltonian                  GFN2-xTB          :
         :: total energy             -42.098244245686 Eh    ::
         :: gradient norm              0.003632028589 Eh/a0 ::
         :: HOMO-LUMO gap              1.835313849045 eV    ::
         :: SCC energy               -42.653562767346 Eh    ::
         :: -> dispersion             -0.021860087484 Eh    ::
         :: repulsion energy           0.555035135323 Eh    ::

    * Orbital Energies and Occupations

         #    Occupation            Energy/Eh            Energy/eV
      -------------------------------------------------------------
         1        2.0000           -0.9544964             -25.9732
       ...           ...                  ...                  ...
        25        2.0000           -0.6870744             -18.6962
        26        1.9999           -0.6801168             -18.5069
        27        1.9997           -0.6497814             -17.6815
        28        1.9996           -0.6478166             -17.6280
        29        1.9994           -0.6403793             -17.4256
        30        1.9993           -0.6391643             -17.3925
        31        1.9992           -0.6375355             -17.3482
        32        1.9991           -0.6339935             -17.2518
        33        1.9941           -0.6048282             -16.4582
        34        1.9889           -0.5948657             -16.1871
        35        1.9500           -0.5707114             -15.5298
        36        1.8956           -0.5585979             -15.2002
        37        1.8153           -0.5488724             -14.9356 (HOMO)
        38        0.2438           -0.4814258             -13.1003 (LUMO)
        39        0.1152           -0.4684280             -12.7466
        40        0.0007           -0.3860149             -10.5040
        41        0.0003           -0.3739791             -10.1765
        42        0.0000           -0.3322076              -9.0398
        43                         -0.2184781              -5.9451
        44                         -0.1977870              -5.3821
        45                         -0.1651430              -4.4938
        46                         -0.1298617              -3.5337
        47                         -0.0892393              -2.4283
        48                         -0.0668166              -1.8182
       ...                                ...                  ...
        67                          0.9119451              24.8153
      -------------------------------------------------------------
                  HL-Gap            0.0674465 Eh            1.8353 eV

     #   Z          covCN         q      C6AA      α(0)
     1   6 C        3.697    -0.069    22.005     6.710
     2   7 N        2.740    -0.048    22.174     6.994
     3   6 C        2.763     0.122    25.299     8.237
     4   7 N        1.774    -0.251    27.362     7.746
     5   6 C        3.398     0.140    21.522     7.173
     6   6 C        2.888     0.005    27.899     8.660
     7   6 C        1.860     0.259    25.183     8.106
     8   8 O        0.856    -0.078    16.191     5.395
     9   7 N        2.993    -0.088    22.946     7.115
    10   6 C        3.683    -0.063    21.923     6.705
    11   6 C        3.252     0.342    20.400     7.308
    12   8 O        0.856    -0.250    18.900     5.829
    13   7 N        2.993    -0.080    22.798     7.092
    14   6 C        3.683    -0.063    21.922     6.705
    15   1 H        0.925     0.097     1.815     2.107
    16   1 H        0.924     0.083     1.951     2.184
    17   1 H        0.925     0.079     1.989     2.205
    18   1 H        0.925     0.108     1.713     2.047
    19   1 H        0.924     0.087     1.909     2.161
    20   1 H        0.925     0.116     1.646     2.007
    21   1 H        0.924     0.090     1.883     2.146
    22   1 H        0.925     0.092     1.858     2.132
    23   1 H        0.924     0.088     1.895     2.153
    24   1 H        0.925     0.112     1.678     2.026
    25   1 H        0.860     0.170     1.270     1.766

Wiberg/Mayer (AO) data.
largest (>0.10) Wiberg bond orders for each atom

     #   Z sym  total        # sym  WBO       # sym  WBO       # sym  WBO
 ---------------------------------------------------------------------------
     1   6 C    3.935 --     2 N    0.984    17 H    0.973    15 H    0.968
                            16 H    0.963
     2   7 N    3.376 --     3 C    1.172     1 C    0.984     6 C    0.969
                             4 N    0.146
     3   6 C    3.947 --     4 N    1.801     2 N    1.172    18 H    0.924
     4   7 N    2.921 --     3 C    1.801    25 H    0.929     2 N    0.146
     5   6 C    3.813 --     6 C    1.251     9 N    1.173    13 N    1.172
     6   6 C    3.908 --     7 C    1.397     5 C    1.251     2 N    0.969
                             8 O    0.140
     7   6 C    3.686 --     8 O    2.149     6 C    1.397
     8   8 O    2.409 --     7 C    2.149     6 C    0.140
     9   7 N    3.474 --     5 C    1.173    10 C    0.992    11 C    0.977
                            13 N    0.120    12 O    0.107
    10   6 C    3.929 --     9 N    0.992    20 H    0.967    19 H    0.966
                            21 H    0.959
    11   6 C    3.901 --    12 O    1.859     9 N    0.977    13 N    0.972
    12   8 O    2.152 --    11 C    1.859     9 N    0.107    13 N    0.106
    13   7 N    3.468 --     5 C    1.172    14 C    0.990    11 C    0.972
                             9 N    0.120    12 O    0.106
    14   6 C    3.927 --    13 N    0.990    24 H    0.968    22 H    0.964
                            23 H    0.960
    15   1 H    0.988 --     1 C    0.968
    16   1 H    0.980 --     1 C    0.963
    17   1 H    0.988 --     1 C    0.973
    18   1 H    0.974 --     3 C    0.924
    19   1 H    0.987 --    10 C    0.966
    20   1 H    0.985 --    10 C    0.967
    21   1 H    0.982 --    10 C    0.959
    22   1 H    0.985 --    14 C    0.964
    23   1 H    0.982 --    14 C    0.960
    24   1 H    0.986 --    14 C    0.968
    25   1 H    0.961 --     4 N    0.929
 ---------------------------------------------------------------------------

molecular dipole:
                 x           y           z       tot (Debye)
 q only:        0.743       0.185       0.237
   full:        0.774       0.454       0.319       2.422

           -------------------------------------------------
          | TOTAL ENERGY              -42.098244245686 Eh   |
          | GRADIENT NORM               0.003632028589 Eh/α |
          | HOMO-LUMO GAP               1.835313849045 eV   |
           -------------------------------------------------

 * finished run on 2024/06/05 at 19:57:52.869
