   * xtb version 6.6.1 (8d0f1dd) compiled by 'conda@1efc2f54142f' on 2023-08-01
          program call               : xtb xtbopt.xyz --opt crude --input .xc2 --gfn2

   ID    Z sym.   atoms
    1    6 C      1, 3, 5-7, 10, 11, 14
    2    7 N      2, 4, 9, 13
    3    8 O      8, 12
    4    1 H      15-25

          :  Hamiltonian                  GFN2-xTB          :
 * total energy  :   -42.1367341 Eh     change       -0.7580070E-10 Eh
   *** GEOMETRY OPTIMIZATION CONVERGED AFTER 1 ITERATIONS ***

 final structure:
================
25
 xtb: 6.6.1 (8d0f1dd)
C            3.31047835597695        2.39252925752897        0.02256679089710
N            2.81598638934869        1.03990535620649        0.01833369294046
C            3.54064977985420       -0.07142886967092        0.02292604298870
N            2.74093537997784       -1.15092270671392        0.01900342944712
C            1.43831595889400       -0.72081379025497        0.01165351585390
C            1.49737730418459        0.68037402281892        0.01115646769541
C            0.27305327591461        1.45190538373601       -0.00024165198028
O            0.20784434752859        2.66550611490881       -0.00478758191426
N           -0.84088837834440        0.63068709560239       -0.00644449066969
C           -2.14525687062840        1.26023931469492       -0.02018842311819
C           -0.84400658972345       -0.78883723638147       -0.00127300465530
O           -1.90642799334991       -1.36812019263975       -0.00443628577188
N            0.34689774539619       -1.44044979111225        0.00690587859245
C           -4.44913988967795       -4.25322943332358       -0.02341602914414
H            3.91188580900061        2.57311939466107        0.91385425469329
H            3.92562487079387        2.57412176122984       -0.85897907919725
H            2.45962388421996        3.07401643069711        0.01619325285342
H            4.61363693516244       -0.10252451404860        0.02845532570221
H           -2.00437828159442        2.33944511578593       -0.02653338874424
H           -2.69870172679946        0.94393249322260       -0.90528859844936
H           -2.71207260224549        0.95633907925950        0.86087615293685
H           -4.83359454464352       -4.64484950964182        0.89742457666920
H           -4.85505464930567       -4.59129993712316       -0.95599324006629
H           -3.66820048903427       -3.51418610109512       -0.01134064819633
H            3.03584349329596       -2.11722019669320        0.02074465866422

          :  Hamiltonian                  GFN2-xTB          :
         :: total energy             -42.136734143775 Eh    ::
         :: gradient norm              0.003391615687 Eh/a0 ::
         :: HOMO-LUMO gap              1.105168885300 eV    ::
         :: SCC energy               -42.664466958743 Eh    ::
         :: -> dispersion             -0.020094537568 Eh    ::
         :: repulsion energy           0.527739560390 Eh    ::

    * Orbital Energies and Occupations

         #    Occupation            Energy/Eh            Energy/eV
      -------------------------------------------------------------
         1        2.0000           -0.8986522             -24.4536
       ...           ...                  ...                  ...
        25        1.9998           -0.6499050             -17.6848
        26        1.9993           -0.6309977             -17.1703
        27        1.9993           -0.6299582             -17.1420
        28        1.9982           -0.6146383             -16.7252
        29        1.9980           -0.6136553             -16.6984
        30        1.9978           -0.6121420             -16.6572
        31        1.9970           -0.6069160             -16.5150
        32        1.9944           -0.5969229             -16.2431
        33        1.9640           -0.5672649             -15.4361
        34        1.9067           -0.5517004             -15.0125
        35        1.8998           -0.5505254             -14.9806
        36        1.8288           -0.5414393             -14.7333
        37        1.7347           -0.5336637             -14.5217 (HOMO)
        38        0.6693           -0.4930495             -13.4166 (LUMO)
        39        0.0120           -0.4230243             -11.5111
        40        0.0009           -0.3824286             -10.4064
        41        0.0001           -0.3499831              -9.5235
        42        0.0000           -0.2631067              -7.1595
        43                         -0.1804832              -4.9112
        44                         -0.1607830              -4.3751
        45                         -0.1185326              -3.2254
        46                         -0.0690537              -1.8790
        47                         -0.0227588              -0.6193
        48                         -0.0184154              -0.5011
       ...                                ...                  ...
        67                          0.5456754              14.8486
      -------------------------------------------------------------
                  HL-Gap            0.0406142 Eh            1.1052 eV

     #   Z          covCN         q      C6AA      α(0)
     1   6 C        3.691    -0.092    22.453     6.781
     2   7 N        2.827     0.086    19.746     6.600
     3   6 C        3.064     0.064    26.504     8.442
     4   7 N        2.794    -0.053    22.268     7.009
     5   6 C        3.066     0.149    24.708     8.151
     6   6 C        3.131    -0.021    28.321     8.712
     7   6 C        2.767     0.276    22.327     7.738
     8   8 O        0.858    -0.368    21.047     6.151
     9   7 N        2.747    -0.086    22.915     7.110
    10   6 C        3.704    -0.055    21.709     6.661
    11   6 C        2.754     0.339    21.238     7.547
    12   8 O        0.860    -0.352    20.741     6.106
    13   7 N        1.832    -0.248    27.319     7.745
    14   6 C        2.779    -0.072    29.769     8.936
    15   1 H        0.924     0.107     1.724     2.053
    16   1 H        0.925     0.107     1.724     2.053
    17   1 H        0.925     0.135     1.496     1.912
    18   1 H        0.926     0.125     1.573     1.961
    19   1 H        0.925     0.112     1.680     2.027
    20   1 H        0.924     0.101     1.775     2.083
    21   1 H        0.924     0.101     1.774     2.083
    22   1 H        0.926     0.131     1.526     1.932
    23   1 H        0.926     0.131     1.526     1.932
    24   1 H        0.926     0.144     1.436     1.874
    25   1 H        0.860     0.238     0.931     1.512

Wiberg/Mayer (AO) data.
largest (>0.10) Wiberg bond orders for each atom

     #   Z sym  total        # sym  WBO       # sym  WBO       # sym  WBO
 ---------------------------------------------------------------------------
     1   6 C    3.912 --     2 N    0.983    17 H    0.961    16 H    0.959
                            15 H    0.959
     2   7 N    3.710 --     3 C    1.393     6 C    1.182     1 C    0.983
     3   6 C    3.877 --     2 N    1.393     4 N    1.316    18 H    0.951
     4   7 N    3.595 --     3 C    1.316     5 C    1.152    25 H    0.916
     5   6 C    3.948 --    13 N    1.381     6 C    1.258     4 N    1.152
     6   6 C    3.806 --     5 C    1.258     2 N    1.182     7 C    1.077
     7   6 C    3.954 --     8 O    1.639     9 N    1.141     6 C    1.077
     8   8 O    1.943 --     7 C    1.639     9 N    0.140
     9   7 N    3.472 --     7 C    1.141    11 C    1.033    10 C    0.987
                             8 O    0.140
    10   6 C    3.892 --     9 N    0.987    19 H    0.962    20 H    0.951
                            21 H    0.951
    11   6 C    3.943 --    12 O    1.649    13 N    1.176     9 N    1.033
    12   8 O    1.909 --    11 C    1.649
    13   7 N    2.830 --     5 C    1.381    11 C    1.176
    14   6 C    2.936 --    23 H    0.980    22 H    0.980    24 H    0.976
    15   1 H    0.986 --     1 C    0.959
    16   1 H    0.986 --     1 C    0.959
    17   1 H    0.981 --     1 C    0.961
    18   1 H    0.983 --     3 C    0.951
    19   1 H    0.980 --    10 C    0.962
    20   1 H    0.970 --    10 C    0.951
    21   1 H    0.970 --    10 C    0.951
    22   1 H    0.982 --    14 C    0.980
    23   1 H    0.982 --    14 C    0.980
    24   1 H    0.978 --    14 C    0.976
    25   1 H    0.942 --     4 N    0.916
 ---------------------------------------------------------------------------

molecular dipole:
                 x           y           z       tot (Debye)
 q only:        1.715      -1.577       0.011
   full:        2.164      -1.614       0.013       6.863

           -------------------------------------------------
          | TOTAL ENERGY              -42.136734143775 Eh   |
          | GRADIENT NORM               0.003391615687 Eh/α |
          | HOMO-LUMO GAP               1.105168885300 eV   |
           -------------------------------------------------

 * finished run on 2024/06/05 at 20:00:19.767
