   * xtb version 6.6.1 (8d0f1dd) compiled by 'conda@1efc2f54142f' on 2023-08-01
          program call               : xtb struc.xyz --opt loose --input .xc1 --gfn2

   ID    Z sym.   atoms
    1    6 C      1, 3, 5-7, 10, 11, 14
    2    7 N      2, 4, 9, 13
    3    8 O      8, 12
    4    1 H      15-25
constraining bond 19 21 to    3.2800000 Å, actual value:    1.7861504 Å

          :  Hamiltonian                  GFN2-xTB          :
 * total energy  :   -38.2607141 Eh     change       -0.6633627E-10 Eh
 * total energy  :   -40.3284156 Eh     change       -0.2067701E+01 Eh
 * total energy  :   -41.6496474 Eh     change       -0.1321232E+01 Eh
 * total energy  :   -42.0361002 Eh     change       -0.3864528E+00 Eh
 * total energy  :   -42.0626787 Eh     change       -0.2657855E-01 Eh
 * total energy  :   -42.0632840 Eh     change       -0.6053108E-03 Eh
 * total energy  :   -42.0640403 Eh     change       -0.7562937E-03 Eh
 * total energy  :   -42.0659299 Eh     change       -0.1889599E-02 Eh
 * total energy  :   -42.0663208 Eh     change       -0.3909221E-03 Eh
 * total energy  :   -42.0676697 Eh     change       -0.1348877E-02 Eh
 * total energy  :   -42.1564173 Eh     change       -0.1233433E-02 Eh
 * total energy  :   -42.1573921 Eh     change       -0.9748250E-03 Eh
 * total energy  :   -42.1580325 Eh     change       -0.6404319E-03 Eh
 * total energy  :   -42.1586408 Eh     change       -0.6082790E-03 Eh
 * total energy  :   -42.1589796 Eh     change       -0.3388186E-03 Eh
 * total energy  :   -42.1591292 Eh     change       -0.1495296E-03 Eh
 * total energy  :   -42.1592445 Eh     change       -0.1153077E-03 Eh
 * total energy  :   -42.1593041 Eh     change       -0.5965584E-04 Eh
 * total energy  :   -42.1593332 Eh     change       -0.2902086E-04 Eh
   *** GEOMETRY OPTIMIZATION CONVERGED AFTER 36 ITERATIONS ***

 final structure:
================
25
 xtb: 6.6.1 (8d0f1dd)
C            3.30188547845077        1.10113383409448        0.01571933670261
N            2.31437036413538        0.05585068206588        0.00212826264914
C            2.54052207900029       -1.25367863495518       -0.03819846876931
N            1.36895590467129       -1.93087192995315       -0.03004294874149
C            0.35373764131788       -1.01531483024524        0.01995798244132
C            0.94397761512952        0.25636014734700        0.03956218142919
C            0.20728727449385        1.46319442341818        0.01615375935920
O            0.60716560288125        2.60358453453287        0.05589038492792
N           -1.23803119190961        1.20256286834947       -0.08241596606881
C           -2.02373974414855        2.27552191929926       -0.19728290118764
C           -1.74366738989938       -0.05267263768342        0.01349694842621
O           -3.07270385451598       -0.21660941505172        0.12491688391347
N           -0.97662424274594       -1.18731180236413        0.04000399378925
C           -1.58068765161241       -2.50566094262748        0.07313494717785
H            3.80463179690304        1.13681150217829        0.98369802473355
H            4.04510969050688        0.93019200161219       -0.76198086132151
H            2.80243932535528        2.05441047569499       -0.15261430832449
H            3.50772258161132       -1.71281341382749       -0.07123101655363
H           -1.54455566990383        3.22644431572558       -0.13865568594466
H           -3.04994081380868        2.20329254216269       -0.50078273044797
H           -3.46310744400986        0.62383291823002        0.42396243436289
H           -1.23534714551286       -3.05066631486680        0.95208945529750
H           -1.32523787706924       -3.05920134812490       -0.83091927015014
H           -2.66022762044912       -2.39541658921268        0.12493551817588
H            1.27649680522874       -2.93473576419869       -0.05035433797633

          :  Hamiltonian                  GFN2-xTB          :
         :: total energy             -42.159333155307 Eh    ::
         :: gradient norm              0.002851362961 Eh/a0 ::
         :: HOMO-LUMO gap              0.977809610771 eV    ::
         :: SCC energy               -42.680969789261 Eh    ::
         :: -> dispersion             -0.022978440465 Eh    ::
         :: repulsion energy           0.521520917794 Eh    ::

    * Orbital Energies and Occupations

         #    Occupation            Energy/Eh            Energy/eV
      -------------------------------------------------------------
         1        2.0000           -0.8939900             -24.3267
       ...           ...                  ...                  ...
        25        2.0000           -0.6679984             -18.1772
        26        2.0000           -0.6628719             -18.0377
        27        2.0000           -0.6492857             -17.6680
        28        2.0000           -0.6368894             -17.3306
        29        2.0000           -0.6291452             -17.1199
        30        2.0000           -0.6224004             -16.9364
        31        2.0000           -0.6195279             -16.8582
        32        2.0000           -0.6170873             -16.7918
        33        2.0000           -0.6010354             -16.3550
        34        2.0000           -0.5878329             -15.9957
        35        2.0000           -0.5544759             -15.0881
        36        2.0000           -0.5505763             -14.9819
        37        1.8114           -0.4571133             -12.4387 (HOMO)
        38        0.1861           -0.4211795             -11.4609 (LUMO)
        39        0.0021           -0.3850403             -10.4775
        40        0.0004           -0.3716475             -10.1130
        41                         -0.2756872              -7.5018
        42                         -0.1996424              -5.4325
        43                         -0.1886792              -5.1342
        44                         -0.1560979              -4.2476
        45                         -0.1234566              -3.3594
        46                         -0.0953105              -2.5935
        47                         -0.0482203              -1.3121
        48                         -0.0366231              -0.9966
       ...                                ...                  ...
        67                          0.5620983              15.2955
      -------------------------------------------------------------
                  HL-Gap            0.0359338 Eh            0.9778 eV

     #   Z          covCN         q      C6AA      α(0)
     1   6 C        3.691    -0.092    22.444     6.779
     2   7 N        2.823     0.069    20.039     6.649
     3   6 C        3.036     0.047    26.910     8.509
     4   7 N        2.779    -0.064    22.485     7.043
     5   6 C        3.059     0.083    26.106     8.379
     6   6 C        3.087    -0.033    28.725     8.785
     7   6 C        2.774     0.245    22.887     7.835
     8   8 O        0.857    -0.371    21.112     6.160
     9   7 N        2.737    -0.015    21.552     6.895
    10   6 C        2.813    -0.108    30.717     9.081
    11   6 C        2.767     0.196    23.821     7.993
    12   8 O        1.659    -0.361    20.109     6.054
    13   7 N        2.737    -0.007    21.388     6.869
    14   6 C        3.698    -0.077    22.155     6.732
    15   1 H        0.924     0.103     1.757     2.073
    16   1 H        0.925     0.099     1.797     2.097
    17   1 H        0.925     0.132     1.522     1.929
    18   1 H        0.926     0.116     1.642     2.004
    19   1 H        0.927     0.104     1.748     2.068
    20   1 H        0.926     0.065     2.140     2.288
    21   1 H        0.804     0.350     0.588     1.204
    22   1 H        0.924     0.087     1.906     2.159
    23   1 H        0.924     0.088     1.897     2.154
    24   1 H        0.925     0.124     1.582     1.967
    25   1 H        0.860     0.221     1.006     1.571

Wiberg/Mayer (AO) data.
largest (>0.10) Wiberg bond orders for each atom

     #   Z sym  total        # sym  WBO       # sym  WBO       # sym  WBO
 ---------------------------------------------------------------------------
     1   6 C    3.922 --     2 N    0.988    16 H    0.966    17 H    0.962
                            15 H    0.958
     2   7 N    3.639 --     3 C    1.378     6 C    1.121     1 C    0.988
     3   6 C    3.814 --     2 N    1.378     4 N    1.266    18 H    0.955
     4   7 N    3.551 --     3 C    1.266     5 C    1.168    25 H    0.923
     5   6 C    3.922 --     6 C    1.264    13 N    1.210     4 N    1.168
     6   6 C    3.905 --     5 C    1.264     7 C    1.175     2 N    1.121
     7   6 C    3.909 --     8 O    1.672     6 C    1.175     9 N    0.917
     8   8 O    2.030 --     7 C    1.672     9 N    0.103
     9   7 N    3.676 --    10 C    1.325    11 C    1.200     7 C    0.917
                             8 O    0.103
    10   6 C    3.714 --     9 N    1.325    19 H    0.964    20 H    0.962
                            11 C    0.198
    11   6 C    3.815 --     9 N    1.200    13 N    1.151    12 O    1.102
                            10 C    0.198
    12   8 O    2.124 --    11 C    1.102    21 H    0.831
    13   7 N    3.593 --     5 C    1.210    11 C    1.151    14 C    0.972
    14   6 C    3.926 --    13 N    0.972    22 H    0.971    23 H    0.970
                            24 H    0.968
    15   1 H    0.984 --     1 C    0.958
    16   1 H    0.987 --     1 C    0.966
    17   1 H    0.982 --     1 C    0.962
    18   1 H    0.985 --     3 C    0.955
    19   1 H    0.988 --    10 C    0.964
    20   1 H    0.995 --    10 C    0.962
    21   1 H    0.875 --    12 O    0.831
    22   1 H    0.990 --    14 C    0.971
    23   1 H    0.989 --    14 C    0.970
    24   1 H    0.984 --    14 C    0.968
    25   1 H    0.951 --     4 N    0.923
 ---------------------------------------------------------------------------

molecular dipole:
                 x           y           z       tot (Debye)
 q only:        1.079      -2.322       0.132
   full:        1.075      -2.680       0.132       7.348

           -------------------------------------------------
          | TOTAL ENERGY              -42.159333155307 Eh   |
          | GRADIENT NORM               0.002851362961 Eh/α |
          | HOMO-LUMO GAP               0.977809610771 eV   |
           -------------------------------------------------

 * finished run on 2024/06/05 at 19:58:09.045
