   * xtb version 6.6.1 (8d0f1dd) compiled by 'conda@1efc2f54142f' on 2023-08-01
          program call               : xtb struc.xyz --opt loose --input .xc1 --gfn2

   ID    Z sym.   atoms
    1    7 N      1, 17
    2    6 C      2-6, 8, 9, 11-16, 18-23, 25, 26, 28-33
    3    8 O      7, 10, 24, 27
    4    1 H      34-72
constraining bond 46 48 to    4.2800000 Å, actual value:    2.4822726 Å

          :  Hamiltonian                  GFN2-xTB          :
 * total energy  :   -98.8270784 Eh     change       -0.4035485E-08 Eh
 * total energy  :   -99.0886563 Eh     change       -0.2615779E+00 Eh
 * total energy  :   -99.2313611 Eh     change       -0.1427048E+00 Eh
 * total energy  :   -99.2705273 Eh     change       -0.3916620E-01 Eh
 * total energy  :   -99.2761630 Eh     change       -0.5635658E-02 Eh
 * total energy  :   -99.2783900 Eh     change       -0.2226990E-02 Eh
 * total energy  :   -99.2812011 Eh     change       -0.2811123E-02 Eh
 * total energy  :   -99.2828422 Eh     change       -0.1641127E-02 Eh
 * total energy  :   -99.2834833 Eh     change       -0.6410940E-03 Eh
 * total energy  :   -99.2841666 Eh     change       -0.6832528E-03 Eh
 * total energy  :   -99.2991749 Eh     change       -0.1777415E-03 Eh
 * total energy  :   -99.2993454 Eh     change       -0.1705033E-03 Eh
 * total energy  :   -99.2995340 Eh     change       -0.1885635E-03 Eh
 * total energy  :   -99.2997388 Eh     change       -0.2047717E-03 Eh
 * total energy  :   -99.2999029 Eh     change       -0.1641891E-03 Eh
 * total energy  :   -99.3000435 Eh     change       -0.1405356E-03 Eh
 * total energy  :   -99.3001198 Eh     change       -0.7630518E-04 Eh
 * total energy  :   -99.3001982 Eh     change       -0.7837149E-04 Eh
 * total energy  :   -99.3002474 Eh     change       -0.4922071E-04 Eh
   *** GEOMETRY OPTIMIZATION CONVERGED AFTER 46 ITERATIONS ***

 final structure:
================
72
 xtb: 6.6.1 (8d0f1dd)
N           -2.28330467918867        2.95017857826708        2.43954431814525
C           -2.19678850778120        2.02282608437268        1.60486551282503
C           -3.17568848774836        1.80964059808057        0.47949309523347
C           -3.83716808453634        0.44642294092705        0.63025621103818
C           -4.64305770587609       -0.04579742042769       -0.39796476906340
C           -5.21122401095968       -1.30674113150859       -0.33432832274570
O           -6.02193278199529       -1.84290370496204       -1.27194560993901
C           -6.49973542697184       -1.02406274403828       -2.31308692434294
C           -4.93412659389101       -2.14251214532890        0.78035368153838
O           -5.45513006318032       -3.38420771182856        0.72080114140580
C           -5.19266648623021       -4.28647165352196        1.76883248798468
C           -4.17183749645640       -1.63101041666800        1.81885341405586
C           -3.64365068083670       -0.34934656797916        1.75032641389804
C           -2.31905673476476        1.80474200856717       -0.82201193639312
C           -1.51839265224249        0.50419991041654       -1.04093574951959
C            0.03573189110753        0.76236393211095       -0.71143163821859
N            0.89129412825824       -0.17938871342761       -1.10085177472171
C            2.26571697887556       -0.20243369275350       -0.65911915591704
C            3.28241967956247        0.00452878680746       -1.79523819256834
C            4.66165883213835        0.14053518465740       -1.20795583280856
C            5.35241140648688        1.33813455740756       -1.27099055489623
C            6.61068981738670        1.46294831127192       -0.69989839451701
C            7.19541761332301        0.39556819280503       -0.03477143003738
O            8.39902396234646        0.40787985948961        0.56716090358712
C            9.18671704699276        1.57448020313850        0.50310572710425
C            6.48986944210199       -0.83712477802661        0.04256242861168
O            7.12275892797473       -1.82007627389702        0.71498654710314
C            6.48910068354102       -3.06660387344404        0.87256605497047
C            5.24363438034519       -0.94367216500466       -0.55188809086490
C            0.47199090611656       -1.27403677687650       -1.94453575583389
C           -4.27463130376166        2.90503622588171        0.39889093902180
C           -5.16261237420661        2.89044904455892        1.64133896425645
C           -3.71293125449847        4.30627282132965        0.17381247814303
H           -4.83073659551977        0.57091280101820       -1.26144538484399
H           -6.97935678528681       -0.12084217680628       -1.92331373164064
H           -7.23752006719043       -1.62440503132198       -2.84207251496629
H           -5.69999429824504       -0.74417266777715       -3.00680250330205
H           -5.61917835110835       -3.94166402023063        2.71526761201480
H           -5.67082663065079       -5.21882402512651        1.47628360495906
H           -4.11775129365093       -4.45340119736625        1.89408757939184
H           -3.98681957225838       -2.22348564537957        2.69946698040652
H           -3.08079692425449        0.02033064096957        2.59290441785363
H           -2.98210930053045        1.97647479450922       -1.66763502632755
H           -1.63291572091413        2.65087464106200       -0.78361834481814
H           -1.78937690080836       -0.21191267272935       -0.25202793526542
H           -2.12613351871777       -0.09412707091270       -2.04964411193527
H           -1.36893072355101        1.29344883481975        1.59012782991921
H            0.68669888319956        1.53972846612770        0.06252388908553
H            2.45806765676564       -1.16212614877997       -0.16831885959166
H            2.41954607360642        0.58854477952714        0.07995650160928
H            3.02392690150366        0.91002967989043       -2.34560930066503
H            3.25758759496931       -0.83746957968381       -2.48983399036637
H            4.91947481936238        2.18752634025792       -1.77674173964882
H            7.12801219669683        2.40530122810567       -0.77667835789867
H            8.69485365214276        2.41829383276136        0.99665497565043
H            9.42121222361381        1.84167530645206       -0.53139577233947
H           10.10699778723968        1.33416959050943        1.03174638123095
H            7.18399629776319       -3.67703336336278        1.44598912068145
H            5.54999033923887       -2.97113632514168        1.42747492251000
H            6.29800646919835       -3.54748241617394       -0.09186609924430
H            4.71427815018986       -1.88312903774080       -0.51774483111472
H            0.04262682389031       -0.90020687226782       -2.87341026278675
H           -0.28145226985527       -1.88142404484370       -1.43827424408246
H            1.32481026162098       -1.90252839980456       -2.18044521536827
H           -4.90319219511705        2.65494187045142       -0.46396583230527
H           -4.58437361985886        3.17654880473400        2.51412304999702
H           -5.58603801834627        1.90189154383700        1.80618205673021
H           -5.97943279598502        3.59779172327749        1.51926285059785
H           -3.04308895465669        4.57831708095399        0.98315569963984
H           -3.18272337056532        4.38048319342691       -0.77180832639751
H           -4.53079708579968        5.02105710968588        0.15409362607189
H           -1.55452591256332        3.02135048518562        3.14381994261057

          :  Hamiltonian                  GFN2-xTB          :
         :: total energy             -99.300247385994 Eh    ::
         :: gradient norm              0.003067910333 Eh/a0 ::
         :: HOMO-LUMO gap              1.642615459542 eV    ::
         :: SCC energy              -100.667084743353 Eh    ::
         :: -> dispersion             -0.072049173122 Eh    ::
         :: repulsion energy           1.337048895218 Eh    ::

    * Orbital Energies and Occupations

         #    Occupation            Energy/Eh            Energy/eV
      -------------------------------------------------------------
         1        2.0000           -0.8066179             -21.9492
       ...           ...                  ...                  ...
        78        1.9984           -0.5279518             -14.3663
        79        1.9980           -0.5245950             -14.2750
        80        1.9980           -0.5245187             -14.2729
        81        1.9971           -0.5188537             -14.1187
        82        1.9970           -0.5184657             -14.1082
        83        1.9950           -0.5101433             -13.8817
        84        1.9944           -0.5083058             -13.8317
        85        1.9936           -0.5062507             -13.7758
        86        1.9786           -0.4870502             -13.2533
        87        1.9785           -0.4869157             -13.2496
        88        1.9156           -0.4647691             -12.6470
        89        1.8619           -0.4565313             -12.4228
        90        1.8507           -0.4552017             -12.3867 (HOMO)
        91        0.4300           -0.3948367             -10.7441 (LUMO)
        92        0.0112           -0.3333118              -9.0699
        93        0.0032           -0.3133677              -8.5272
        94        0.0029           -0.3117711              -8.4837
        95        0.0026           -0.3099753              -8.4349
        96        0.0023           -0.3082673              -8.3884
        97        0.0003           -0.2747696              -7.4769
        98        0.0000           -0.1883199              -5.1244
        99        0.0000           -0.1860862              -5.0637
       100        0.0000           -0.1634749              -4.4484
       101                         -0.1345567              -3.6615
       ...                                ...                  ...
       171                          0.5791121              15.7584
      -------------------------------------------------------------
                  HL-Gap            0.0603650 Eh            1.6426 eV

     #   Z          covCN         q      C6AA      α(0)
     1   7 N        1.774    -0.271    27.853     7.815
     2   6 C        2.827     0.102    25.729     8.312
     3   6 C        3.907     0.005    20.441     6.426
     4   6 C        2.974     0.001    27.996     8.679
     5   6 C        2.921    -0.079    29.967     8.977
     6   6 C        2.863     0.130    25.161     8.222
     7   8 O        1.706    -0.232    17.840     5.703
     8   6 C        3.645     0.029    20.428     6.496
     9   6 C        2.865     0.130    25.159     8.222
    10   8 O        1.706    -0.227    17.772     5.692
    11   6 C        3.646     0.027    20.448     6.498
    12   6 C        2.914    -0.072    29.787     8.950
    13   6 C        2.921    -0.051    29.255     8.870
    14   6 C        3.810    -0.069    21.817     6.649
    15   6 C        3.590    -0.045    22.054     6.805
    16   6 C        2.706    -0.004    28.105     8.677
    17   7 N        2.728     0.013    21.031     6.811
    18   6 C        3.754    -0.016    20.920     6.522
    19   6 C        3.807    -0.070    21.843     6.653
    20   6 C        2.970    -0.001    28.043     8.686
    21   6 C        2.921    -0.048    29.190     8.860
    22   6 C        2.914    -0.067    29.678     8.933
    23   6 C        2.865     0.133    25.083     8.210
    24   8 O        1.706    -0.223    17.694     5.679
    25   6 C        3.646     0.025    20.488     6.505
    26   6 C        2.863     0.132    25.099     8.212
    27   8 O        1.706    -0.226    17.750     5.688
    28   6 C        3.645     0.028    20.439     6.498
    29   6 C        2.920    -0.081    30.034     8.987
    30   6 C        3.702    -0.072    22.042     6.713
    31   6 C        3.852    -0.008    20.679     6.468
    32   6 C        3.755    -0.117    22.805     6.809
    33   6 C        3.755    -0.119    22.842     6.815
    34   1 H        0.926     0.051     2.306     2.375
    35   1 H        0.924     0.054     2.277     2.360
    36   1 H        0.925     0.080     1.975     2.198
    37   1 H        0.924     0.046     2.371     2.408
    38   1 H        0.924     0.056     2.250     2.346
    39   1 H        0.925     0.080     1.974     2.197
    40   1 H        0.924     0.048     2.347     2.396
    41   1 H        0.926     0.054     2.269     2.355
    42   1 H        0.926     0.042     2.417     2.431
    43   1 H        0.925     0.057     2.232     2.337
    44   1 H        0.925     0.057     2.237     2.339
    45   1 H        0.923     0.072     2.065     2.247
    46   1 H        0.729     0.055     2.365     2.433
    47   1 H        0.923     0.003     3.014     2.715
    48   1 H        0.809     0.075     2.063     2.256
    49   1 H        0.924     0.069     2.093     2.263
    50   1 H        0.924     0.067     2.124     2.279
    51   1 H        0.924     0.058     2.226     2.333
    52   1 H        0.924     0.057     2.234     2.337
    53   1 H        0.926     0.049     2.338     2.391
    54   1 H        0.926     0.059     2.207     2.323
    55   1 H        0.924     0.054     2.268     2.355
    56   1 H        0.924     0.056     2.246     2.344
    57   1 H        0.925     0.082     1.958     2.188
    58   1 H        0.925     0.082     1.964     2.191
    59   1 H        0.924     0.046     2.365     2.405
    60   1 H        0.924     0.051     2.302     2.373
    61   1 H        0.926     0.043     2.403     2.424
    62   1 H        0.925     0.084     1.940     2.178
    63   1 H        0.924     0.077     2.015     2.220
    64   1 H        0.925     0.084     1.936     2.176
    65   1 H        0.924     0.036     2.502     2.474
    66   1 H        0.925     0.069     2.100     2.266
    67   1 H        0.925     0.035     2.514     2.480
    68   1 H        0.925     0.050     2.321     2.382
    69   1 H        0.925     0.063     2.162     2.299
    70   1 H        0.925     0.033     2.538     2.491
    71   1 H        0.925     0.054     2.274     2.358
    72   1 H        0.860     0.155     1.367     1.831

Wiberg/Mayer (AO) data.
largest (>0.10) Wiberg bond orders for each atom

     #   Z sym  total        # sym  WBO       # sym  WBO       # sym  WBO
 ---------------------------------------------------------------------------
     1   7 N    3.016 --     2 C    1.955    72 H    0.943
     2   6 C    3.943 --     1 N    1.955     3 C    0.993    47 H    0.930
     3   6 C    3.974 --     2 C    0.993     4 C    0.970    31 C    0.952
                            14 C    0.948
     4   6 C    3.946 --    13 C    1.409     5 C    1.368     3 C    0.970
     5   6 C    3.960 --     6 C    1.403     4 C    1.368    34 H    0.957
     6   6 C    3.903 --     5 C    1.403     9 C    1.222     7 O    1.096
     7   8 O    2.248 --     6 C    1.096     8 C    0.978
     8   6 C    3.933 --     7 O    0.978    36 H    0.977    35 H    0.974
                            37 H    0.973
     9   6 C    3.898 --    12 C    1.389     6 C    1.222    10 O    1.102
    10   8 O    2.251 --     9 C    1.102    11 C    0.978
    11   6 C    3.931 --    10 O    0.978    39 H    0.977    40 H    0.974
                            38 H    0.973
    12   6 C    3.961 --    13 C    1.410     9 C    1.389    41 H    0.963
    13   6 C    3.951 --    12 C    1.410     4 C    1.409    42 H    0.962
    14   6 C    3.985 --    15 C    1.006    44 H    0.972    43 H    0.971
                             3 C    0.948
    15   6 C    3.963 --    16 C    1.012    14 C    1.006    46 H    0.944
                            45 H    0.927
    16   6 C    3.504 --    17 N    1.426    15 C    1.012    48 H    0.929
    17   7 N    3.471 --    16 C    1.426    30 C    0.996    18 C    0.988
    18   6 C    3.957 --    17 N    0.988    19 C    0.974    50 H    0.961
                            49 H    0.956
    19   6 C    3.978 --    20 C    1.006    18 C    0.974    51 H    0.974
                            52 H    0.964
    20   6 C    3.945 --    21 C    1.417    29 C    1.374    19 C    1.006
    21   6 C    3.951 --    20 C    1.417    22 C    1.411    53 H    0.967
    22   6 C    3.959 --    21 C    1.411    23 C    1.387    54 H    0.963
    23   6 C    3.897 --    22 C    1.387    26 C    1.218    24 O    1.109
    24   8 O    2.255 --    23 C    1.109    25 C    0.976
    25   6 C    3.928 --    57 H    0.977    24 O    0.976    56 H    0.973
                            55 H    0.973
    26   6 C    3.900 --    29 C    1.401    23 C    1.218    27 O    1.101
    27   8 O    2.254 --    26 C    1.101    28 C    0.979
    28   6 C    3.933 --    27 O    0.979    58 H    0.977    59 H    0.974
                            60 H    0.973
    29   6 C    3.960 --    26 C    1.401    20 C    1.374    61 H    0.962
    30   6 C    3.956 --    17 N    0.996    64 H    0.976    62 H    0.966
                            63 H    0.965
    31   6 C    3.976 --    33 C    1.008    32 C    1.008    65 H    0.959
                             3 C    0.952
    32   6 C    3.978 --    31 C    1.008    68 H    0.982    67 H    0.982
                            66 H    0.974
    33   6 C    3.981 --    31 C    1.008    70 H    0.983    71 H    0.980
                            69 H    0.975
    34   1 H    0.996 --     5 C    0.957
    35   1 H    0.994 --     8 C    0.974
    36   1 H    0.993 --     8 C    0.977
    37   1 H    0.993 --     8 C    0.973
    38   1 H    0.992 --    11 C    0.973
    39   1 H    0.993 --    11 C    0.977
    40   1 H    0.993 --    11 C    0.974
    41   1 H    0.995 --    12 C    0.963
    42   1 H    0.997 --    13 C    0.962
    43   1 H    0.996 --    14 C    0.971
    44   1 H    0.996 --    14 C    0.972
    45   1 H    0.976 --    15 C    0.927
    46   1 H    0.986 --    15 C    0.944
    47   1 H    0.983 --     2 C    0.930
    48   1 H    0.993 --    16 C    0.929
    49   1 H    0.987 --    18 C    0.956
    50   1 H    0.995 --    18 C    0.961
    51   1 H    0.996 --    19 C    0.974
    52   1 H    0.994 --    19 C    0.964
    53   1 H    0.997 --    21 C    0.967
    54   1 H    0.995 --    22 C    0.963
    55   1 H    0.992 --    25 C    0.973
    56   1 H    0.992 --    25 C    0.973
    57   1 H    0.993 --    25 C    0.977
    58   1 H    0.993 --    28 C    0.977
    59   1 H    0.994 --    28 C    0.974
    60   1 H    0.993 --    28 C    0.973
    61   1 H    0.997 --    29 C    0.962
    62   1 H    0.985 --    30 C    0.966
    63   1 H    0.985 --    30 C    0.965
    64   1 H    0.993 --    30 C    0.976
    65   1 H    0.991 --    31 C    0.959
    66   1 H    0.990 --    32 C    0.974
    67   1 H    0.996 --    32 C    0.982
    68   1 H    0.994 --    32 C    0.982
    69   1 H    0.992 --    33 C    0.975
    70   1 H    0.997 --    33 C    0.983
    71   1 H    0.994 --    33 C    0.980
    72   1 H    0.970 --     1 N    0.943
 ---------------------------------------------------------------------------

molecular dipole:
                 x           y           z       tot (Debye)
 q only:        0.931      -0.357      -0.928
   full:        1.174      -0.597      -0.870       4.012

           -------------------------------------------------
          | TOTAL ENERGY              -99.300247385994 Eh   |
          | GRADIENT NORM               0.003067910333 Eh/α |
          | HOMO-LUMO GAP               1.642615459542 eV   |
           -------------------------------------------------

 * finished run on 2024/04/06 at 11:12:01.369
