   * xtb version 6.6.1 (8d0f1dd) compiled by 'conda@1efc2f54142f' on 2023-08-01
          program call               : xtb xtbopt.xyz --opt crude --input .xc2 --gfn2

   ID    Z sym.   atoms
    1    7 N      1, 17
    2    6 C      2-6, 8, 9, 11-16, 18-23, 25, 26, 28-33
    3    8 O      7, 10, 24, 27
    4    1 H      34-72
########################################################################
[WARNING] Please study the warnings concerning your input carefully
-1- readin_getIntValue: could not parse ''
########################################################################

          :  Hamiltonian                  GFN2-xTB          :
 * total energy  :   -99.3290305 Eh     change       -0.2813749E-11 Eh
 * total energy  :   -99.3775954 Eh     change       -0.4856493E-01 Eh
 * total energy  :   -99.3899727 Eh     change       -0.1237728E-01 Eh
 * total energy  :   -99.3965372 Eh     change       -0.6564506E-02 Eh
 * total energy  :   -99.3980925 Eh     change       -0.1555331E-02 Eh
 * total energy  :   -99.3986506 Eh     change       -0.5580598E-03 Eh
 * total energy  :   -99.3991713 Eh     change       -0.5206728E-03 Eh
 * total energy  :   -99.3997430 Eh     change       -0.5717048E-03 Eh
 * total energy  :   -99.4002329 Eh     change       -0.4899197E-03 Eh
 * total energy  :   -99.4008350 Eh     change       -0.6020796E-03 Eh
 * total energy  :   -99.4014555 Eh     change       -0.6205697E-03 Eh
 * total energy  :   -99.4020298 Eh     change       -0.5742454E-03 Eh
 * total energy  :   -99.4025913 Eh     change       -0.5615361E-03 Eh
 * total energy  :   -99.4031118 Eh     change       -0.5205003E-03 Eh
 * total energy  :   -99.4035842 Eh     change       -0.4724275E-03 Eh
   *** GEOMETRY OPTIMIZATION CONVERGED AFTER 15 ITERATIONS ***

 final structure:
================
72
 xtb: 6.6.1 (8d0f1dd)
N           -2.06843492564770        2.79135118995973        2.35819804974939
C           -2.03249082490756        1.91069001636768        1.47128271435372
C           -3.07226356394190        1.75970909373956        0.39163693385583
C           -3.72046147758675        0.38935195902480        0.52737271878246
C           -4.54147543984906       -0.10019561209863       -0.48975821054083
C           -5.17812377952605       -1.32568542852121       -0.38183825022208
O           -6.00102348952475       -1.85578210138200       -1.31231278946081
C           -6.36981409140822       -1.07324288553580       -2.42303024866611
C           -4.97574515839417       -2.11972718123755        0.77892476373973
O           -5.60757427523122       -3.31029002493597        0.78813362767767
C           -5.46548998209042       -4.15606373390877        1.90727761634958
C           -4.17298062859438       -1.61979338074159        1.79250355826394
C           -3.56237709152053       -0.37974210991758        1.67093920950248
C           -2.32409212132560        1.87920433273410       -0.96338511272068
C           -1.42877258038943        0.68946836951938       -1.32597384854954
C           -0.06338449422682        0.76278771103827       -0.75978041234658
N            0.81146732807265       -0.23491158713959       -0.85978296930874
C            2.18073166828850       -0.08465991710602       -0.43911356761301
C            3.15178661365884        0.05189803008021       -1.62935492370581
C            4.56077738116366        0.18623940829940       -1.12192225461049
C            5.23662513117891        1.39255176150258       -1.17869240343103
C            6.52353777152887        1.50913854626759       -0.67308404689306
C            7.15331614041200        0.42363123582884       -0.08196767578625
O            8.38497738577861        0.42707647473941        0.46084709162871
C            9.14096414130569        1.61609025600298        0.44624027115940
C            6.46762920609379       -0.82133376309672       -0.02158544072168
O            7.14754883769085       -1.82486847299746        0.57097449478750
C            6.53842944660203       -3.08723645820947        0.69527841923538
C            5.19066444301698       -0.91788815773102       -0.54825766777205
C            0.45124650006539       -1.46350393480920       -1.52925386762505
C           -4.19817682457799        2.83489886079482        0.44544079083215
C           -5.02924212175703        2.72229367798719        1.72223521784666
C           -3.68255263125796        4.26439153697241        0.29855473594988
H           -4.69638380352531        0.49551647580724       -1.37361276722350
H           -6.84872719083269       -0.13919350964563       -2.11135072750629
H           -7.08289207923994       -1.67515834577395       -2.98189815838816
H           -5.50998979927673       -0.84879815093357       -3.06243242212308
H           -5.87542087794664       -3.69701827078754        2.81294879434873
H           -6.03456955610426       -5.05330913776476        1.66937641294106
H           -4.41800748946771       -4.42576112682303        2.07590692175222
H           -4.02657118231608       -2.18501106150247        2.69838680214572
H           -2.97715567305016       -0.01185690457456        2.49892638339561
H           -3.07109624413615        1.99600070862799       -1.74892227728039
H           -1.72195096672952        2.78888162994930       -0.95145837490133
H           -1.91986445022664       -0.24366917821314       -1.04207868624398
H           -1.32918522134276        0.65518809476564       -2.41977463566429
H           -1.22160360482058        1.16598660137595        1.37837262976932
H            0.28802879910670        1.68648645478554       -0.32974380504700
H            2.46766421479680       -0.95662826826761        0.15668854021620
H            2.26742036805345        0.80181571264584        0.19187210527974
H            2.87881323369889        0.92974867423666       -2.21606794023884
H            3.07221420770900       -0.82845611465094       -2.26951450678223
H            4.76898200664036        2.25506302894809       -1.62858681039216
H            7.02881879734851        2.45838303479599       -0.74277794949755
H            8.63659152505888        2.41835320757843        0.99366812823193
H            9.34996770421686        1.94566287654318       -0.57591325598940
H           10.07697350041637        1.37188616109582        0.94522865494347
H            7.26046636264701       -3.71082202088050        1.21937017451360
H            5.61629766938712       -3.03098299352310        1.28385797766439
H            6.32338606336390       -3.52843922463679       -0.28321097534650
H            4.67260275664113       -1.86400571469466       -0.52746384896521
H            0.23319594186863       -1.27679334159679       -2.58577094429022
H           -0.43394829138146       -1.90787516040634       -1.06997205497152
H            1.27128895911012       -2.17668609959116       -1.45994913519068
H           -4.86034579959021        2.62589805317371       -0.40396394129365
H           -4.41978938963247        2.97146197172194        2.58609596319433
H           -5.42490730308237        1.71733542899769        1.84656413786610
H           -5.86572005691761        3.41613193199046        1.67529612612285
H           -3.01141559717671        4.50469330844222        1.11707136128308
H           -3.16872862151831        4.41973286952330       -0.64697767060959
H           -4.52470957410020        4.95197840794991        0.33293462551222
H           -1.30844023374575        2.81255180230009        3.03339346761823

          :  Hamiltonian                  GFN2-xTB          :
         :: total energy             -99.403584250915 Eh    ::
         :: gradient norm              0.007632628625 Eh/a0 ::
         :: HOMO-LUMO gap              1.653167161924 eV    ::
         :: SCC energy              -100.779591276423 Eh    ::
         :: -> dispersion             -0.072534962805 Eh    ::
         :: repulsion energy           1.374947338505 Eh    ::

    * Orbital Energies and Occupations

         #    Occupation            Energy/Eh            Energy/eV
      -------------------------------------------------------------
         1        2.0000           -0.8061411             -21.9362
       ...           ...                  ...                  ...
        78        1.9984           -0.5281680             -14.3722
        79        1.9981           -0.5257335             -14.3059
        80        1.9981           -0.5256567             -14.3038
        81        1.9971           -0.5187655             -14.1163
        82        1.9970           -0.5183908             -14.1061
        83        1.9955           -0.5117842             -13.9264
        84        1.9947           -0.5093580             -13.8603
        85        1.9938           -0.5067857             -13.7903
        86        1.9788           -0.4871318             -13.2555
        87        1.9785           -0.4869492             -13.2506
        88        1.9266           -0.4670645             -12.7095
        89        1.8572           -0.4559546             -12.4072
        90        1.8505           -0.4551727             -12.3859 (HOMO)
        91        0.4213           -0.3944199             -10.7327 (LUMO)
        92        0.0122           -0.3347289              -9.1084
        93        0.0030           -0.3126393              -8.5073
        94        0.0029           -0.3117230              -8.4824
        95        0.0025           -0.3095351              -8.4229
        96        0.0023           -0.3082473              -8.3878
        97        0.0000           -0.1870696              -5.0904
        98        0.0000           -0.1862091              -5.0670
        99                         -0.1355568              -3.6887
       100                         -0.0722381              -1.9657
       101                         -0.0628664              -1.7107
       ...                                ...                  ...
       171                          0.5791865              15.7605
      -------------------------------------------------------------
                  HL-Gap            0.0607528 Eh            1.6532 eV

     #   Z          covCN         q      C6AA      α(0)
     1   7 N        1.774    -0.272    27.873     7.818
     2   6 C        2.826     0.102    25.725     8.311
     3   6 C        3.907     0.006    20.422     6.423
     4   6 C        2.975     0.001    27.998     8.679
     5   6 C        2.921    -0.080    29.998     8.982
     6   6 C        2.863     0.129    25.171     8.224
     7   8 O        1.706    -0.231    17.831     5.701
     8   6 C        3.645     0.028    20.432     6.497
     9   6 C        2.863     0.130    25.151     8.220
    10   8 O        1.706    -0.228    17.777     5.693
    11   6 C        3.644     0.027    20.462     6.502
    12   6 C        2.914    -0.071    29.772     8.947
    13   6 C        2.922    -0.049    29.223     8.865
    14   6 C        3.811    -0.067    21.770     6.641
    15   6 C        3.803    -0.067    21.774     6.643
    16   6 C        2.843     0.000    28.019     8.675
    17   7 N        2.729     0.014    21.012     6.808
    18   6 C        3.753    -0.018    20.945     6.526
    19   6 C        3.807    -0.071    21.849     6.654
    20   6 C        2.969    -0.000    28.036     8.685
    21   6 C        2.921    -0.048    29.183     8.859
    22   6 C        2.914    -0.067    29.675     8.933
    23   6 C        2.864     0.133    25.080     8.209
    24   8 O        1.706    -0.222    17.690     5.679
    25   6 C        3.645     0.025    20.489     6.506
    26   6 C        2.863     0.132    25.099     8.212
    27   8 O        1.706    -0.226    17.750     5.688
    28   6 C        3.645     0.028    20.437     6.497
    29   6 C        2.920    -0.081    30.025     8.986
    30   6 C        3.701    -0.070    22.008     6.708
    31   6 C        3.853    -0.008    20.679     6.468
    32   6 C        3.755    -0.117    22.794     6.808
    33   6 C        3.755    -0.119    22.845     6.815
    34   1 H        0.926     0.051     2.311     2.377
    35   1 H        0.924     0.053     2.278     2.360
    36   1 H        0.925     0.081     1.974     2.197
    37   1 H        0.924     0.046     2.372     2.409
    38   1 H        0.924     0.056     2.249     2.345
    39   1 H        0.925     0.081     1.972     2.196
    40   1 H        0.924     0.049     2.327     2.386
    41   1 H        0.926     0.054     2.267     2.355
    42   1 H        0.926     0.043     2.412     2.428
    43   1 H        0.924     0.058     2.217     2.329
    44   1 H        0.924     0.055     2.264     2.353
    45   1 H        0.924     0.074     2.045     2.236
    46   1 H        0.923     0.076     2.026     2.226
    47   1 H        0.922     0.003     3.004     2.711
    48   1 H        0.926     0.072     2.063     2.246
    49   1 H        0.924     0.069     2.093     2.262
    50   1 H        0.924     0.068     2.108     2.270
    51   1 H        0.924     0.055     2.260     2.351
    52   1 H        0.924     0.057     2.232     2.336
    53   1 H        0.926     0.048     2.346     2.395
    54   1 H        0.926     0.059     2.208     2.324
    55   1 H        0.924     0.054     2.270     2.356
    56   1 H        0.924     0.056     2.245     2.343
    57   1 H        0.925     0.082     1.957     2.188
    58   1 H        0.925     0.081     1.965     2.192
    59   1 H        0.924     0.046     2.366     2.406
    60   1 H        0.924     0.052     2.301     2.372
    61   1 H        0.926     0.044     2.401     2.423
    62   1 H        0.924     0.078     2.001     2.212
    63   1 H        0.924     0.078     1.995     2.209
    64   1 H        0.925     0.083     1.949     2.183
    65   1 H        0.924     0.036     2.509     2.477
    66   1 H        0.925     0.066     2.131     2.283
    67   1 H        0.925     0.035     2.514     2.480
    68   1 H        0.925     0.050     2.319     2.381
    69   1 H        0.925     0.065     2.140     2.288
    70   1 H        0.925     0.033     2.540     2.492
    71   1 H        0.925     0.053     2.280     2.361
    72   1 H        0.860     0.155     1.370     1.834

Wiberg/Mayer (AO) data.
largest (>0.10) Wiberg bond orders for each atom

     #   Z sym  total        # sym  WBO       # sym  WBO       # sym  WBO
 ---------------------------------------------------------------------------
     1   7 N    3.022 --     2 C    1.956    72 H    0.943
     2   6 C    3.939 --     1 N    1.956     3 C    0.993    47 H    0.923
     3   6 C    3.975 --     2 C    0.993     4 C    0.971    14 C    0.956
                            31 C    0.946
     4   6 C    3.945 --    13 C    1.410     5 C    1.370     3 C    0.971
     5   6 C    3.961 --     6 C    1.400     4 C    1.370    34 H    0.958
     6   6 C    3.901 --     5 C    1.400     9 C    1.223     7 O    1.096
     7   8 O    2.248 --     6 C    1.096     8 C    0.979
     8   6 C    3.933 --     7 O    0.979    36 H    0.977    35 H    0.974
                            37 H    0.973
     9   6 C    3.898 --    12 C    1.388     6 C    1.223    10 O    1.103
    10   8 O    2.251 --     9 C    1.103    11 C    0.977
    11   6 C    3.931 --    39 H    0.977    10 O    0.977    40 H    0.974
                            38 H    0.973
    12   6 C    3.961 --    13 C    1.412     9 C    1.388    41 H    0.963
    13   6 C    3.952 --    12 C    1.412     4 C    1.410    42 H    0.962
    14   6 C    3.986 --    15 C    1.003    44 H    0.971    43 H    0.969
                             3 C    0.956
    15   6 C    3.987 --    16 C    1.063    14 C    1.003    45 H    0.937
                            46 H    0.926
    16   6 C    3.561 --    17 N    1.406    15 C    1.063    48 H    0.957
    17   7 N    3.473 --    16 C    1.406    30 C    1.001    18 C    0.991
    18   6 C    3.955 --    17 N    0.991    50 H    0.969    19 C    0.968
                            49 H    0.960
    19   6 C    3.977 --    20 C    1.007    51 H    0.975    18 C    0.968
                            52 H    0.966
    20   6 C    3.945 --    21 C    1.416    29 C    1.373    19 C    1.007
    21   6 C    3.950 --    20 C    1.416    22 C    1.411    53 H    0.968
    22   6 C    3.959 --    21 C    1.411    23 C    1.387    54 H    0.963
    23   6 C    3.897 --    22 C    1.387    26 C    1.218    24 O    1.110
    24   8 O    2.255 --    23 C    1.110    25 C    0.976
    25   6 C    3.928 --    57 H    0.977    24 O    0.976    55 H    0.973
                            56 H    0.972
    26   6 C    3.900 --    29 C    1.401    23 C    1.218    27 O    1.101
    27   8 O    2.253 --    26 C    1.101    28 C    0.980
    28   6 C    3.933 --    27 O    0.980    58 H    0.977    59 H    0.974
                            60 H    0.973
    29   6 C    3.960 --    26 C    1.401    20 C    1.373    61 H    0.962
    30   6 C    3.958 --    17 N    1.001    64 H    0.978    63 H    0.965
                            62 H    0.964
    31   6 C    3.975 --    33 C    1.008    32 C    1.008    65 H    0.960
                             3 C    0.946
    32   6 C    3.980 --    31 C    1.008    68 H    0.982    67 H    0.982
                            66 H    0.976
    33   6 C    3.981 --    31 C    1.008    70 H    0.982    71 H    0.980
                            69 H    0.975
    34   1 H    0.996 --     5 C    0.958
    35   1 H    0.993 --     8 C    0.974
    36   1 H    0.993 --     8 C    0.977
    37   1 H    0.994 --     8 C    0.973
    38   1 H    0.992 --    11 C    0.973
    39   1 H    0.993 --    11 C    0.977
    40   1 H    0.993 --    11 C    0.974
    41   1 H    0.995 --    12 C    0.963
    42   1 H    0.997 --    13 C    0.962
    43   1 H    0.996 --    14 C    0.969
    44   1 H    0.996 --    14 C    0.971
    45   1 H    0.981 --    15 C    0.937
    46   1 H    0.970 --    15 C    0.926
    47   1 H    0.985 --     2 C    0.923
    48   1 H    0.994 --    16 C    0.957
    49   1 H    0.989 --    18 C    0.960
    50   1 H    0.995 --    18 C    0.969
    51   1 H    0.996 --    19 C    0.975
    52   1 H    0.995 --    19 C    0.966
    53   1 H    0.997 --    21 C    0.968
    54   1 H    0.995 --    22 C    0.963
    55   1 H    0.992 --    25 C    0.973
    56   1 H    0.991 --    25 C    0.972
    57   1 H    0.993 --    25 C    0.977
    58   1 H    0.993 --    28 C    0.977
    59   1 H    0.994 --    28 C    0.974
    60   1 H    0.993 --    28 C    0.973
    61   1 H    0.997 --    29 C    0.962
    62   1 H    0.984 --    30 C    0.964
    63   1 H    0.987 --    30 C    0.965
    64   1 H    0.993 --    30 C    0.978
    65   1 H    0.992 --    31 C    0.960
    66   1 H    0.991 --    32 C    0.976
    67   1 H    0.997 --    32 C    0.982
    68   1 H    0.995 --    32 C    0.982
    69   1 H    0.992 --    33 C    0.975
    70   1 H    0.997 --    33 C    0.982
    71   1 H    0.994 --    33 C    0.980
    72   1 H    0.970 --     1 N    0.943
 ---------------------------------------------------------------------------

molecular dipole:
                 x           y           z       tot (Debye)
 q only:        0.845      -0.330      -0.907
   full:        1.086      -0.501      -0.962       3.901

           -------------------------------------------------
          | TOTAL ENERGY              -99.403584250915 Eh   |
          | GRADIENT NORM               0.007632628625 Eh/α |
          | HOMO-LUMO GAP               1.653167161924 eV   |
           -------------------------------------------------

 * finished run on 2024/04/06 at 11:12:03.990
