   * xtb version 6.6.1 (8d0f1dd) compiled by 'conda@1efc2f54142f' on 2023-08-01
          program call               : xtb struc.xyz --opt loose --input .xc1 --gfn2

   ID    Z sym.   atoms
    1    6 C      1, 3, 5-7, 10, 11, 14
    2    7 N      2, 4, 9, 13
    3    8 O      8, 12
    4    1 H      15-25
constraining bond 3 17 to    3.7133300 Å, actual value:    3.3163079 Å

          :  Hamiltonian                  GFN2-xTB          :
 * total energy  :   -42.5414976 Eh     change       -0.2401990E-09 Eh
 * total energy  :   -44.2706875 Eh     change       -0.1729190E+01 Eh
 * total energy  :   -47.3062006 Eh     change       -0.3035513E+01 Eh
 * total energy  :   -51.6638196 Eh     change       -0.4357619E+01 Eh
 * total energy  :   -57.3154714 Eh     change       -0.5651652E+01 Eh
 * total energy  :   -35.6348656 Eh     change        0.2168061E+02 Eh
 * total energy  :   -59.0133614 Eh     change       -0.2337850E+02 Eh
 * total energy  :   -59.1814235 Eh     change       -0.1680621E+00 Eh
 * total energy  :   -59.2774505 Eh     change       -0.9602700E-01 Eh
 * total energy  :   -59.3701988 Eh     change       -0.9274833E-01 Eh
 * total energy  :   -59.7706554 Eh     change       -0.1069683E-03 Eh
 * total energy  :   -59.7707377 Eh     change       -0.8227492E-04 Eh
 * total energy  :   -59.7708289 Eh     change       -0.9115640E-04 Eh
 * total energy  :   -59.7708825 Eh     change       -0.5366663E-04 Eh
 * total energy  :   -59.7709325 Eh     change       -0.4994334E-04 Eh
 * total energy  :   -59.7709695 Eh     change       -0.3700801E-04 Eh
 * total energy  :   -59.7710018 Eh     change       -0.3233079E-04 Eh
 * total energy  :   -59.7709963 Eh     change        0.5508343E-05 Eh
 * total energy  :   -59.7710254 Eh     change       -0.2908250E-04 Eh
   *** GEOMETRY OPTIMIZATION CONVERGED AFTER 66 ITERATIONS ***

 final structure:
================
25
 xtb: 6.6.1 (8d0f1dd)
C            3.26555763053768        1.15494453498144       -0.11049312438793
N            2.21344395781939        0.25095603852775        0.08629789294554
C            3.49235623989515       -0.36122476056569       -0.22059720497329
N            1.14387533449240       -2.21736644450214       -0.05928912554822
C            0.33968923303609       -1.22609275500634       -0.01582821738183
C            0.90926162364513        0.10064086956012        0.03021643591780
C            0.07346302979842        1.29548003339688        0.06867188762419
O            0.53981833032174        2.41901595994869        0.08407388440131
N           -1.28792532656562        1.05268879046564        0.07952911903751
C           -2.19249547288968        2.18489270805431        0.12466257967703
C           -1.88098250317066       -0.19872560557039        0.04205023939076
O           -3.08248288401597       -0.31400075100934        0.05438863808023
N           -1.04316071244495       -1.30339316380430       -0.01399296359031
C           -1.67370086209495       -2.60839618520180       -0.07175488170089
H            3.60838647909814        1.70836106343541        0.75611233133559
H            3.24760915148876        1.74609044484720       -1.02135698221174
H            3.56989327818084       -0.56119542963820       -0.58672905503448
H            3.92391676904439       -0.73726069798285        0.74835491364620
H           -1.59863895009804        3.09678242319183        0.17166607497851
H           -2.82691961032498        2.19268005887713       -0.76430327930579
H           -2.84164907694814        2.10822334624129        0.99940408850623
H           -1.38802637547511       -3.20993375746815        0.79382939979645
H           -1.39120518878874       -3.12724468025078       -0.99028449874567
H           -2.75401139708705       -2.46403097010626       -0.06258637690520
H            0.79435881664607       -3.16365252882225       -0.09087015765130

          :  Hamiltonian                  GFN2-xTB          :
         :: total energy             -59.771025392030 Eh    ::
         :: gradient norm              0.002702882740 Eh/a0 ::
         :: HOMO-LUMO gap              1.795678663086 eV    ::
         :: SCC energy               -42.717325944373 Eh    ::
         :: -> dispersion             -0.021778487250 Eh    ::
         :: repulsion energy           2.261270362896 Eh    ::

    * Orbital Energies and Occupations

         #    Occupation            Energy/Eh            Energy/eV
      -------------------------------------------------------------
         1        2.0000           -0.8943933             -24.3377
       ...           ...                  ...                  ...
        25        1.9938           -0.6559583             -17.8495
        26        1.9934           -0.6545859             -17.8122
        27        1.9923           -0.6507371             -17.7075
        28        1.9877           -0.6397169             -17.4076
        29        1.9839           -0.6332317             -17.2311
        30        1.9831           -0.6320133             -17.1980
        31        1.9754           -0.6230694             -16.9546
        32        1.9740           -0.6217273             -16.9181
        33        1.9347           -0.5993435             -16.3090
        34        1.8965           -0.5879235             -15.9982
        35        1.8902           -0.5864579             -15.9583
        36        1.8405           -0.5769520             -15.6997
        37        1.8062           -0.5718789             -15.5616 (HOMO)
        38        0.7336           -0.5058889             -13.7659 (LUMO)
        39        0.0143           -0.4017208             -10.9314
        40        0.0088           -0.3901327             -10.6161
        41        0.0002           -0.3008494              -8.1865
        42        0.0001           -0.2924235              -7.9572
        43        0.0000           -0.2148400              -5.8461
        44        0.0000           -0.1693296              -4.6077
        45        0.0000           -0.1402497              -3.8164
        46                         -0.0901795              -2.4539
        47                         -0.0618674              -1.6835
        48                         -0.0498850              -1.3574
       ...                                ...                  ...
        67                         10.7555821             292.6743
      -------------------------------------------------------------
                  HL-Gap            0.0659900 Eh            1.7957 eV

     #   Z          covCN         q      C6AA      α(0)
     1   6 C        3.736    -0.014    20.917     6.527
     2   7 N        2.746     0.046    20.449     6.716
     3   6 C        3.731    -0.063    21.813     6.667
     4   7 N        1.791    -0.276    27.983     7.835
     5   6 C        2.827     0.161    24.525     8.115
     6   6 C        2.900     0.028    27.385     8.580
     7   6 C        2.772     0.262    22.589     7.784
     8   8 O        0.858    -0.332    20.361     6.050
     9   7 N        2.741    -0.060    22.406     7.030
    10   6 C        3.706    -0.061    21.822     6.678
    11   6 C        2.718     0.320    21.564     7.602
    12   8 O        0.860    -0.335    20.416     6.058
    13   7 N        2.741    -0.062    22.438     7.035
    14   6 C        3.702    -0.064    21.886     6.689
    15   1 H        0.925     0.124     1.579     1.965
    16   1 H        0.925     0.122     1.600     1.978
    17   1 H        0.936     0.190     1.152     1.678
    18   1 H        0.919     0.119     1.623     1.993
    19   1 H        0.925     0.127     1.556     1.951
    20   1 H        0.924     0.119     1.620     1.991
    21   1 H        0.924     0.120     1.614     1.986
    22   1 H        0.924     0.100     1.784     2.089
    23   1 H        0.924     0.100     1.786     2.090
    24   1 H        0.925     0.129     1.541     1.942
    25   1 H        0.860     0.201     1.099     1.643

Wiberg/Mayer (AO) data.
largest (>0.10) Wiberg bond orders for each atom

     #   Z sym  total        # sym  WBO       # sym  WBO       # sym  WBO
 ---------------------------------------------------------------------------
     1   6 C    3.870 --     2 N    0.987     3 C    0.953    15 H    0.944
                            16 H    0.939
     2   7 N    3.369 --     6 C    1.376     1 C    0.987     3 C    0.939
     3   6 C    3.821 --     1 C    0.953    17 H    0.942     2 N    0.939
                            18 H    0.926
     4   7 N    2.730 --     5 C    1.626    25 H    0.918
     5   6 C    3.914 --     4 N    1.626    13 N    1.104     6 C    1.093
     6   6 C    3.707 --     2 N    1.376     5 C    1.093     7 C    1.046
     7   6 C    3.893 --     8 O    1.642     9 N    1.113     6 C    1.046
     8   8 O    1.880 --     7 C    1.642     9 N    0.119
     9   7 N    3.474 --     7 C    1.113    11 C    1.097    10 C    0.980
                             8 O    0.119    12 O    0.102
    10   6 C    3.849 --     9 N    0.980    19 H    0.951    21 H    0.939
                            20 H    0.938
    11   6 C    3.933 --    12 O    1.658    13 N    1.098     9 N    1.097
    12   8 O    1.945 --    11 C    1.658    13 N    0.107     9 N    0.102
    13   7 N    3.452 --     5 C    1.104    11 C    1.098    14 C    0.983
                            12 O    0.107
    14   6 C    3.881 --    13 N    0.983    24 H    0.951    23 H    0.951
                            22 H    0.951
    15   1 H    0.965 --     1 C    0.944
    16   1 H    0.963 --     1 C    0.939
    17   1 H    0.958 --     3 C    0.942
    18   1 H    0.958 --     3 C    0.926
    19   1 H    0.969 --    10 C    0.951
    20   1 H    0.954 --    10 C    0.938
    21   1 H    0.955 --    10 C    0.939
    22   1 H    0.968 --    14 C    0.951
    23   1 H    0.968 --    14 C    0.951
    24   1 H    0.972 --    14 C    0.951
    25   1 H    0.946 --     4 N    0.918
 ---------------------------------------------------------------------------

molecular dipole:
                 x           y           z       tot (Debye)
 q only:        1.665      -0.729      -0.066
   full:        1.382      -0.921      -0.030       4.221

           -------------------------------------------------
          | TOTAL ENERGY              -59.771025392030 Eh   |
          | GRADIENT NORM               0.002702882740 Eh/α |
          | HOMO-LUMO GAP               1.795678663086 eV   |
           -------------------------------------------------

 * finished run on 2024/06/05 at 19:58:57.842
