   * xtb version 6.6.1 (8d0f1dd) compiled by 'conda@1efc2f54142f' on 2023-08-01
          program call               : xtb xtbopt.xyz --opt crude --input .xc2 --gfn2

   ID    Z sym.   atoms
    1    6 C      1, 3, 5-7, 10, 11, 14
    2    7 N      2, 4, 9, 13
    3    8 O      8, 12
    4    1 H      15-25
########################################################################
[WARNING] Please study the warnings concerning your input carefully
-1- readin_getIntValue: could not parse ''
########################################################################

          :  Hamiltonian                  GFN2-xTB          :
 * total energy  :   -40.4559514 Eh     change       -0.2415845E-12 Eh
 * total energy  :   -42.1616487 Eh     change       -0.1705697E+01 Eh
 * total energy  :   -42.1804512 Eh     change       -0.1880252E-01 Eh
 * total energy  :   -42.1835904 Eh     change       -0.3139187E-02 Eh
 * total energy  :   -42.1849566 Eh     change       -0.1366181E-02 Eh
 * total energy  :   -42.1854555 Eh     change       -0.4989083E-03 Eh
 * total energy  :   -42.1859381 Eh     change       -0.4825652E-03 Eh
 * total energy  :   -42.1861932 Eh     change       -0.2550771E-03 Eh
 * total energy  :   -42.1863989 Eh     change       -0.2057873E-03 Eh
 * total energy  :   -42.1865200 Eh     change       -0.1210780E-03 Eh
   *** GEOMETRY OPTIMIZATION CONVERGED AFTER 10 ITERATIONS ***

 final structure:
================
25
 xtb: 6.6.1 (8d0f1dd)
C            3.27289421679240        1.18795202553762       -0.03312859966135
N            2.20564262353212        0.27761304974229        0.07866781664212
C            3.47797272115598       -0.29138505428276       -0.10609829031718
N            1.14678618506619       -2.20340667110354       -0.05040815156578
C            0.34027308410746       -1.21421563144639       -0.00897895994500
C            0.90458654795876        0.11590345295464        0.03749779195556
C            0.06114661246387        1.30569508752541        0.07364292860154
O            0.52164904731261        2.43193563601876        0.09751502150096
N           -1.29942144966779        1.05756271309546        0.07213571383813
C           -2.20961328358352        2.18589335623541        0.10368281543522
C           -1.88676365354359       -0.19651198036507        0.03724316196183
O           -3.08759940411706       -0.31819226408336        0.04083114332717
N           -1.04238685709499       -1.29731412390708       -0.00457985333149
C           -1.66663055751009       -2.60658069090354       -0.04452215131257
H            3.56285109973940        1.71710267363465        0.86977315589674
H            3.31004988199619        1.80596040608535       -0.92455858782888
H            3.67293178531955       -0.78224829107293       -1.04879742062464
H            3.90336484977026       -0.80567521277323        0.74918026619835
H           -1.62011860160290        3.10067226857635        0.14669005860487
H           -2.83885338661423        2.18302733312764       -0.78882997246454
H           -2.86275523019203        2.11321088337595        0.97554616659586
H           -1.37570177928955       -3.19442012492721        0.82866463088676
H           -1.38392082156845       -3.13632214618106       -0.95664720683294
H           -2.74752273962490       -2.46711317083108       -0.03481126348023
H            0.80157062329463       -3.15090498243308       -0.07853859617985

          :  Hamiltonian                  GFN2-xTB          :
         :: total energy             -42.186520028806 Eh    ::
         :: gradient norm              0.004450626067 Eh/a0 ::
         :: HOMO-LUMO gap              1.822801947148 eV    ::
         :: SCC energy               -42.708644231722 Eh    ::
         :: -> dispersion             -0.021755795259 Eh    ::
         :: repulsion energy           0.522017382705 Eh    ::

    * Orbital Energies and Occupations

         #    Occupation            Energy/Eh            Energy/eV
      -------------------------------------------------------------
         1        2.0000           -0.8927778             -24.2937
       ...           ...                  ...                  ...
        25        1.9940           -0.6544970             -17.8098
        26        1.9932           -0.6517849             -17.7360
        27        1.9925           -0.6492705             -17.6675
        28        1.9883           -0.6386963             -17.3798
        29        1.9845           -0.6319406             -17.1960
        30        1.9831           -0.6298744             -17.1398
        31        1.9757           -0.6211918             -16.9035
        32        1.9749           -0.6204524             -16.8834
        33        1.9360           -0.5976921             -16.2640
        34        1.8991           -0.5864352             -15.9577
        35        1.8930           -0.5849778             -15.9181
        36        1.8448           -0.5755217             -15.6607
        37        1.8078           -0.5699653             -15.5095 (HOMO)
        38        0.7184           -0.5029785             -13.6867 (LUMO)
        39        0.0148           -0.4003003             -10.8927
        40        0.0089           -0.3882729             -10.5654
        41        0.0002           -0.2980445              -8.1102
        42        0.0001           -0.2669783              -7.2648
        43        0.0000           -0.2111968              -5.7470
        44        0.0000           -0.1628076              -4.4302
        45        0.0000           -0.1368007              -3.7225
        46                         -0.0881592              -2.3989
        47                         -0.0574607              -1.5636
        48                         -0.0484790              -1.3192
       ...                                ...                  ...
        67                          0.5401967              14.6995
      -------------------------------------------------------------
                  HL-Gap            0.0669867 Eh            1.8228 eV

     #   Z          covCN         q      C6AA      α(0)
     1   6 C        3.737    -0.012    20.877     6.520
     2   7 N        2.744     0.071    20.000     6.642
     3   6 C        3.738    -0.016    20.947     6.531
     4   7 N        1.790    -0.279    28.075     7.848
     5   6 C        2.826     0.160    24.527     8.115
     6   6 C        2.899     0.025    27.446     8.590
     7   6 C        2.772     0.262    22.590     7.784
     8   8 O        0.858    -0.334    20.403     6.056
     9   7 N        2.741    -0.061    22.422     7.033
    10   6 C        3.706    -0.061    21.819     6.677
    11   6 C        2.718     0.320    21.566     7.602
    12   8 O        0.860    -0.336    20.437     6.061
    13   7 N        2.741    -0.063    22.455     7.038
    14   6 C        3.702    -0.064    21.884     6.689
    15   1 H        0.925     0.127     1.561     1.954
    16   1 H        0.925     0.123     1.587     1.970
    17   1 H        0.926     0.121     1.606     1.982
    18   1 H        0.925     0.125     1.576     1.963
    19   1 H        0.925     0.127     1.562     1.954
    20   1 H        0.924     0.118     1.628     1.995
    21   1 H        0.924     0.119     1.621     1.991
    22   1 H        0.924     0.099     1.793     2.094
    23   1 H        0.924     0.099     1.795     2.095
    24   1 H        0.925     0.129     1.544     1.943
    25   1 H        0.860     0.201     1.099     1.642

Wiberg/Mayer (AO) data.
largest (>0.10) Wiberg bond orders for each atom

     #   Z sym  total        # sym  WBO       # sym  WBO       # sym  WBO
 ---------------------------------------------------------------------------
     1   6 C    3.867 --     2 N    0.970     3 C    0.967    16 H    0.939
                            15 H    0.938
     2   7 N    3.388 --     6 C    1.384     1 C    0.970     3 C    0.967
     3   6 C    3.866 --     2 N    0.967     1 C    0.967    17 H    0.940
                            18 H    0.939
     4   7 N    2.733 --     5 C    1.627    25 H    0.919
     5   6 C    3.914 --     4 N    1.627    13 N    1.105     6 C    1.090
     6   6 C    3.715 --     2 N    1.384     5 C    1.090     7 C    1.046
     7   6 C    3.893 --     8 O    1.641     9 N    1.114     6 C    1.046
     8   8 O    1.880 --     7 C    1.641     9 N    0.119
     9   7 N    3.476 --     7 C    1.114    11 C    1.097    10 C    0.979
                             8 O    0.119    12 O    0.102
    10   6 C    3.851 --     9 N    0.979    19 H    0.952    21 H    0.940
                            20 H    0.939
    11   6 C    3.932 --    12 O    1.658    13 N    1.097     9 N    1.097
    12   8 O    1.946 --    11 C    1.658    13 N    0.108     9 N    0.102
    13   7 N    3.454 --     5 C    1.105    11 C    1.097    14 C    0.982
                            12 O    0.108
    14   6 C    3.883 --    13 N    0.982    23 H    0.952    24 H    0.952
                            22 H    0.952
    15   1 H    0.962 --     1 C    0.938
    16   1 H    0.963 --     1 C    0.939
    17   1 H    0.964 --     3 C    0.940
    18   1 H    0.963 --     3 C    0.939
    19   1 H    0.969 --    10 C    0.952
    20   1 H    0.955 --    10 C    0.939
    21   1 H    0.956 --    10 C    0.940
    22   1 H    0.969 --    14 C    0.952
    23   1 H    0.969 --    14 C    0.952
    24   1 H    0.973 --    14 C    0.952
    25   1 H    0.947 --     4 N    0.919
 ---------------------------------------------------------------------------

molecular dipole:
                 x           y           z       tot (Debye)
 q only:        1.740      -0.709      -0.056
   full:        1.477      -0.941      -0.074       4.455

           -------------------------------------------------
          | TOTAL ENERGY              -42.186520028806 Eh   |
          | GRADIENT NORM               0.004450626067 Eh/α |
          | HOMO-LUMO GAP               1.822801947148 eV   |
           -------------------------------------------------

 * finished run on 2024/06/05 at 19:58:58.223
