   * xtb version 6.6.1 (8d0f1dd) compiled by 'conda@1efc2f54142f' on 2023-08-01
          program call               : xtb struc.xyz --opt loose --input .xc1 --gfn2

   ID    Z sym.   atoms
    1    7 N      1, 17
    2    6 C      2-6, 8, 9, 11-16, 18-23, 25, 26, 28-33
    3    8 O      7, 10, 24, 27
    4    1 H      34-72
constraining bond 6 67 to    6.7133300 Å, actual value:    3.7470618 Å

          :  Hamiltonian                  GFN2-xTB          :
 * total energy  :  -100.9751754 Eh     change       -0.4035485E-08 Eh
 * total energy  :  -101.7138769 Eh     change       -0.7387015E+00 Eh
 * total energy  :  -102.5343218 Eh     change       -0.8204449E+00 Eh
 * total energy  :  -103.4701480 Eh     change       -0.9358262E+00 Eh
 * total energy  :  -104.6034391 Eh     change       -0.1133291E+01 Eh
 * total energy  :  -104.4702299 Eh     change        0.1332092E+00 Eh
 * total energy  :  -105.0458167 Eh     change       -0.5755868E+00 Eh
 * total energy  :  -105.1283308 Eh     change       -0.8251402E-01 Eh
 * total energy  :  -105.2748370 Eh     change       -0.1465063E+00 Eh
 * total energy  :  -105.3325427 Eh     change       -0.5770563E-01 Eh
 * total energy  :  -105.6054485 Eh     change       -0.6509129E-04 Eh
 * total energy  :  -105.6055279 Eh     change       -0.7942995E-04 Eh
 * total energy  :  -105.6056234 Eh     change       -0.9549139E-04 Eh
 * total energy  :  -105.6056910 Eh     change       -0.6756158E-04 Eh
 * total energy  :  -105.6057906 Eh     change       -0.9959655E-04 Eh
 * total energy  :  -105.6058294 Eh     change       -0.3880423E-04 Eh
 * total energy  :  -105.6059124 Eh     change       -0.8299319E-04 Eh
 * total energy  :  -105.6059682 Eh     change       -0.5585439E-04 Eh
 * total energy  :  -105.6060048 Eh     change       -0.3659365E-04 Eh
   *** GEOMETRY OPTIMIZATION CONVERGED AFTER 102 ITERATIONS ***

 final structure:
================
72
 xtb: 6.6.1 (8d0f1dd)
N           -2.27710604850695        2.98498963823995        2.57832505966251
C           -1.78083133873668        2.47724937953917        1.44934804654339
C           -2.85357757567415        2.26885963251529        0.43829960400949
C           -3.36175769395514        0.82280339192365        0.46304500713950
C           -4.36086159256691        0.45689115757875       -0.39036519028343
C           -4.75082632994148       -0.97509684177016       -0.61222345147903
O           -3.82800626469415       -1.42247534923648       -1.70909948437855
C           -4.36068052479907       -2.47849114394910       -2.46804417415265
C           -4.35766090251608       -1.80659969058498        0.59640312307512
O           -5.03088674892956       -2.97815937540304        0.61971125357559
C           -4.77085972345488       -3.90444975190795        1.65062222746775
C           -3.37948281187339       -1.40090603050224        1.45835952547138
C           -2.82622687286126       -0.11680977490490        1.35779779120769
C           -2.40882850945212        2.62859807492748       -0.99591189878183
C           -1.63146096536817        1.51454491370109       -1.71889779544296
C           -0.32820375641547        1.22984063839336       -1.08888026468847
N            0.15582512246568        0.02849266960127       -0.79675886514977
C            1.51523853920784       -0.09852250930957       -0.32830407475197
C            2.49080325080017       -0.46027154766285       -1.46721845797442
C            3.90943407588732       -0.26727356373418       -1.00942652910381
C            4.53311798046893        0.95860918681028       -1.16489111624750
C            5.83187036033341        1.15742083304704       -0.72055448233314
C            6.53050894711847        0.13097245969527       -0.10472372275851
O            7.79436812534485        0.20992373062248        0.36294704281806
C            8.50983910914104        1.41086800539397        0.19433157989408
C            5.89750814335987       -1.12899740754287        0.06480774955476
O            6.65161153958779       -2.07099510021632        0.67320880123923
C            6.12598181874734       -3.36436630997073        0.84583522807908
C            4.59976525646814       -1.30506026377303       -0.38650710691053
C           -0.52805405555907       -1.19203113350910       -1.14627423728362
C           -3.97546944779736        3.20133057497797        1.00130166866281
C           -3.70666597948663        3.15895705931630        2.51448399890098
C           -3.89781943142847        4.64139076971956        0.50373687862817
H           -4.82477684712257        1.16768379913855       -1.05403740019679
H           -4.59251299626747       -3.34367066004361       -1.84104540807756
H           -3.59350541100473       -2.74985268110893       -3.19105315171249
H           -5.26631498709854       -2.17070338460384       -2.99977309103848
H           -4.96536095004746       -3.46518189352503        2.63258772755711
H           -5.45336946070274       -4.73509593013961        1.48067240947750
H           -3.73886791031360       -4.26425369849214        1.60886816715135
H           -3.03440633066714       -2.05068975386402        2.24769880540304
H           -2.02238262042456        0.15836111276275        2.02123146649584
H           -3.29768624711225        2.83781801520114       -1.58882859449011
H           -1.80120566188796        3.53356833446187       -0.96479213749768
H           -2.24960651735091        0.62171230020313       -1.79337534167748
H           -1.44922593162051        1.87255621592929       -2.74017786005339
H           -0.73888997352355        2.25717264637107        1.33500880484544
H            0.30957362357456        2.07043610343148       -0.86054209893241
H            1.55778265952892       -0.86637338335987        0.44824271678051
H            1.83280435748018        0.84966152693291        0.11112045892361
H            2.28823988763482        0.19578216890428       -2.31592483544650
H            2.32740743564812       -1.49169898153710       -1.77998103711237
H            4.01372925423337        1.77150370911008       -1.65003312671480
H            6.29323536530114        2.12045394185051       -0.86567319039597
H            8.03683270804307        2.23931383085878        0.73096686176403
H            8.61192287915070        1.67216602835064       -0.86328307855195
H            9.49547151836173        1.22509719906103        0.61639557388984
H            6.91550160014521       -3.93800658854919        1.32757628182769
H            5.24096617748328       -3.35664628810600        1.49060336251020
H            5.87602532656820       -3.82816162445170       -0.11355545536929
H            4.11303296580218       -2.26076125575173       -0.27061953006176
H           -0.44394135189223       -1.39693792465121       -2.21622145039297
H           -1.58710439895334       -1.13510615261690       -0.89538958057389
H           -0.08275251646836       -2.01806916998622       -0.59696502901411
H           -4.95872004516678        2.79347063722020        0.76965010075937
H           -4.21486332413756        2.31096292942828        2.98756493871540
H           -5.39805345141664       -1.06972676157772       -0.80956003147383
H           -4.00744149331694        4.07659160585674        3.02110943593930
H           -2.92507703590533        5.07642873524204        0.72026032037888
H           -4.07883859023414        4.70544163505621       -0.56448213340718
H           -4.65866663611522        5.23669049477312        1.00263730775370
H           -1.75304516809308        3.10096636267927        3.42989993042007

          :  Hamiltonian                  GFN2-xTB          :
         :: total energy            -105.606004826966 Eh    ::
         :: gradient norm              0.002345659284 Eh/a0 ::
         :: HOMO-LUMO gap              0.520935420478 eV    ::
         :: SCC energy              -100.753333951055 Eh    ::
         :: -> dispersion             -0.076148326152 Eh    ::
         :: repulsion energy           1.638510176606 Eh    ::

    * Orbital Energies and Occupations

         #    Occupation            Energy/Eh            Energy/eV
      -------------------------------------------------------------
         1        2.0000           -0.8067308             -21.9523
       ...           ...                  ...                  ...
        78        1.9996           -0.5300747             -14.4241
        79        1.9995           -0.5279337             -14.3658
        80        1.9993           -0.5222966             -14.2124
        81        1.9992           -0.5194161             -14.1340
        82        1.9990           -0.5165026             -14.0548
        83        1.9989           -0.5158043             -14.0357
        84        1.9988           -0.5135261             -13.9738
        85        1.9982           -0.5073808             -13.8065
        86        1.9907           -0.4811984             -13.0941
        87        1.9863           -0.4750083             -12.9256
        88        1.9826           -0.4712378             -12.8230
        89        1.9010           -0.4430422             -12.0558
        90        1.1234           -0.4001779             -10.8894 (HOMO)
        91        0.5534           -0.3810339             -10.3685 (LUMO)
        92        0.4610           -0.3771618             -10.2631
        93        0.0042           -0.2987866              -8.1304
        94        0.0039           -0.2973663              -8.0917
        95        0.0036           -0.2962714              -8.0620
        96        0.0001           -0.2313835              -6.2963
        97        0.0000           -0.1734600              -4.7201
        98                         -0.1151389              -3.1331
        99                         -0.1081313              -2.9424
       100                         -0.0806044              -2.1934
       101                         -0.0708627              -1.9283
       ...                                ...                  ...
       171                          2.0150046              54.8311
      -------------------------------------------------------------
                  HL-Gap            0.0191440 Eh            0.5209 eV

     #   Z          covCN         q      C6AA      α(0)
     1   7 N        2.712    -0.077    22.748     7.084
     2   6 C        2.903     0.005    27.900     8.661
     3   6 C        3.934     0.011    20.333     6.408
     4   6 C        2.959    -0.002    28.063     8.689
     5   6 C        2.913    -0.080    30.002     8.982
     6   6 C        3.736     0.075    19.416     6.288
     7   8 O        1.686    -0.360    20.073     6.049
     8   6 C        3.636     0.041    20.248     6.474
     9   6 C        2.853     0.118    25.396     8.260
    10   8 O        1.705    -0.244    18.038     5.734
    11   6 C        3.643     0.029    20.434     6.498
    12   6 C        2.900    -0.076    29.884     8.963
    13   6 C        2.921    -0.065    29.614     8.924
    14   6 C        3.806    -0.068    21.795     6.646
    15   6 C        3.802    -0.076    21.945     6.669
    16   6 C        2.846    -0.003    28.085     8.685
    17   7 N        2.729     0.016    20.983     6.803
    18   6 C        3.759    -0.017    20.924     6.521
    19   6 C        3.807    -0.070    21.834     6.652
    20   6 C        2.969    -0.003    28.105     8.696
    21   6 C        2.923    -0.052    29.298     8.876
    22   6 C        2.914    -0.070    29.744     8.943
    23   6 C        2.865     0.130    25.155     8.221
    24   8 O        1.706    -0.231    17.837     5.702
    25   6 C        3.646     0.028    20.433     6.496
    26   6 C        2.863     0.130    25.151     8.221
    27   8 O        1.706    -0.233    17.866     5.707
    28   6 C        3.645     0.030    20.410     6.493
    29   6 C        2.920    -0.081    30.020     8.985
    30   6 C        3.700    -0.078    22.153     6.731
    31   6 C        3.895    -0.024    20.945     6.506
    32   6 C        3.800    -0.011    20.782     6.491
    33   6 C        3.754    -0.118    22.824     6.812
    34   1 H        0.926     0.041     2.434     2.440
    35   1 H        0.924     0.042     2.424     2.435
    36   1 H        0.925     0.056     2.251     2.346
    37   1 H        0.924     0.036     2.509     2.477
    38   1 H        0.924     0.053     2.285     2.364
    39   1 H        0.925     0.076     2.022     2.224
    40   1 H        0.924     0.051     2.311     2.377
    41   1 H        0.926     0.039     2.459     2.452
    42   1 H        0.926     0.021     2.721     2.579
    43   1 H        0.925     0.065     2.144     2.290
    44   1 H        0.924     0.052     2.289     2.366
    45   1 H        0.925     0.088     1.896     2.154
    46   1 H        0.924     0.079     1.994     2.209
    47   1 H        0.926     0.054     2.268     2.355
    48   1 H        0.926     0.059     2.215     2.327
    49   1 H        0.924     0.065     2.147     2.291
    50   1 H        0.924     0.062     2.180     2.309
    51   1 H        0.924     0.053     2.288     2.365
    52   1 H        0.925     0.055     2.264     2.353
    53   1 H        0.926     0.039     2.458     2.452
    54   1 H        0.926     0.053     2.285     2.364
    55   1 H        0.924     0.049     2.333     2.389
    56   1 H        0.924     0.052     2.301     2.372
    57   1 H        0.925     0.078     2.001     2.212
    58   1 H        0.925     0.078     2.003     2.213
    59   1 H        0.924     0.045     2.386     2.415
    60   1 H        0.924     0.049     2.329     2.387
    61   1 H        0.926     0.044     2.390     2.418
    62   1 H        0.924     0.077     2.014     2.219
    63   1 H        0.925     0.103     1.761     2.075
    64   1 H        0.925     0.073     2.050     2.239
    65   1 H        0.925     0.060     2.202     2.321
    66   1 H        0.924     0.065     2.146     2.291
    67   1 H        0.931     0.110     1.693     2.035
    68   1 H        0.924     0.072     2.064     2.247
    69   1 H        0.925     0.046     2.374     2.409
    70   1 H        0.925     0.055     2.261     2.351
    71   1 H        0.925     0.055     2.256     2.349
    72   1 H        0.860     0.181     1.210     1.723

Wiberg/Mayer (AO) data.
largest (>0.10) Wiberg bond orders for each atom

     #   Z sym  total        # sym  WBO       # sym  WBO       # sym  WBO
 ---------------------------------------------------------------------------
     1   7 N    3.358 --     2 C    1.367    32 C    0.995    72 H    0.939
     2   6 C    3.453 --     1 N    1.367     3 C    1.030    47 H    0.963
     3   6 C    3.984 --     2 C    1.030    14 C    0.968    31 C    0.945
                             4 C    0.939
     4   6 C    3.940 --     5 C    1.570    13 C    1.301     3 C    0.939
     5   6 C    3.698 --     4 C    1.570     6 C    1.019    34 H    0.966
     6   6 C    3.934 --     5 C    1.019     9 C    0.985    67 H    0.969
                             7 O    0.871
     7   8 O    1.974 --     8 C    0.999     6 C    0.871
     8   6 C    3.944 --     7 O    0.999    37 H    0.978    35 H    0.975
                            36 H    0.973
     9   6 C    3.706 --    12 C    1.498    10 O    1.102     6 C    0.985
    10   8 O    2.218 --     9 C    1.102    11 C    0.974
    11   6 C    3.935 --    39 H    0.978    38 H    0.974    40 H    0.974
                            10 O    0.974
    12   6 C    3.956 --     9 C    1.498    13 C    1.329    41 H    0.961
    13   6 C    3.675 --    12 C    1.329     4 C    1.301    42 H    0.965
    14   6 C    3.964 --    15 C    0.982    44 H    0.974     3 C    0.968
                            43 H    0.967
    15   6 C    3.984 --    16 C    1.063    14 C    0.982    45 H    0.953
                            46 H    0.928
    16   6 C    3.537 --    17 N    1.400    15 C    1.063    48 H    0.958
    17   7 N    3.459 --    16 C    1.400    30 C    0.998    18 C    0.991
    18   6 C    3.959 --    17 N    0.991    50 H    0.968    19 C    0.966
                            49 H    0.965
    19   6 C    3.976 --    20 C    1.008    52 H    0.973    51 H    0.972
                            18 C    0.966
    20   6 C    3.957 --    21 C    1.418    29 C    1.376    19 C    1.008
    21   6 C    3.961 --    20 C    1.418    22 C    1.411    53 H    0.969
    22   6 C    3.967 --    21 C    1.411    23 C    1.392    54 H    0.964
    23   6 C    3.908 --    22 C    1.392    26 C    1.230    24 O    1.097
    24   8 O    2.253 --    23 C    1.097    25 C    0.979
    25   6 C    3.934 --    24 O    0.979    57 H    0.977    56 H    0.974
                            55 H    0.974
    26   6 C    3.911 --    29 C    1.402    23 C    1.230    27 O    1.093
    27   8 O    2.253 --    26 C    1.093    28 C    0.981
    28   6 C    3.936 --    27 O    0.981    58 H    0.977    59 H    0.974
                            60 H    0.974
    29   6 C    3.965 --    26 C    1.402    20 C    1.376    61 H    0.963
    30   6 C    3.952 --    17 N    0.998    64 H    0.978    62 H    0.963
                            63 H    0.956
    31   6 C    3.978 --    33 C    1.012    32 C    0.989    65 H    0.967
                             3 C    0.945
    32   6 C    3.959 --     1 N    0.995    31 C    0.989    68 H    0.966
                            66 H    0.955
    33   6 C    3.991 --    31 C    1.012    69 H    0.986    70 H    0.981
                            71 H    0.981
    34   1 H    0.997 --     5 C    0.966
    35   1 H    0.996 --     8 C    0.975
    36   1 H    0.992 --     8 C    0.973
    37   1 H    0.997 --     8 C    0.978
    38   1 H    0.992 --    11 C    0.974
    39   1 H    0.994 --    11 C    0.978
    40   1 H    0.992 --    11 C    0.974
    41   1 H    0.997 --    12 C    0.961
    42   1 H    0.999 --    13 C    0.965
    43   1 H    0.994 --    14 C    0.967
    44   1 H    0.996 --    14 C    0.974
    45   1 H    0.991 --    15 C    0.953
    46   1 H    0.967 --    15 C    0.928
    47   1 H    0.997 --     2 C    0.963
    48   1 H    0.996 --    16 C    0.958
    49   1 H    0.991 --    18 C    0.965
    50   1 H    0.995 --    18 C    0.968
    51   1 H    0.996 --    19 C    0.972
    52   1 H    0.996 --    19 C    0.973
    53   1 H    0.998 --    21 C    0.969
    54   1 H    0.996 --    22 C    0.964
    55   1 H    0.994 --    25 C    0.974
    56   1 H    0.994 --    25 C    0.974
    57   1 H    0.993 --    25 C    0.977
    58   1 H    0.993 --    28 C    0.977
    59   1 H    0.995 --    28 C    0.974
    60   1 H    0.995 --    28 C    0.974
    61   1 H    0.997 --    29 C    0.963
    62   1 H    0.981 --    30 C    0.963
    63   1 H    0.984 --    30 C    0.956
    64   1 H    0.994 --    30 C    0.978
    65   1 H    0.996 --    31 C    0.967
    66   1 H    0.982 --    32 C    0.955
    67   1 H    0.982 --     6 C    0.969
    68   1 H    0.991 --    32 C    0.966
    69   1 H    0.998 --    33 C    0.986
    70   1 H    0.996 --    33 C    0.981
    71   1 H    0.996 --    33 C    0.981
    72   1 H    0.966 --     1 N    0.939
 ---------------------------------------------------------------------------

molecular dipole:
                 x           y           z       tot (Debye)
 q only:       -1.014       1.467       0.893
   full:       -1.061       1.334       1.097       5.151

           -------------------------------------------------
          | TOTAL ENERGY             -105.606004826966 Eh   |
          | GRADIENT NORM               0.002345659284 Eh/α |
          | HOMO-LUMO GAP               0.520935420478 eV   |
           -------------------------------------------------

 * finished run on 2024/04/06 at 11:16:17.427
