   * xtb version 6.6.1 (8d0f1dd) compiled by 'conda@1efc2f54142f' on 2023-08-01
          program call               : xtb xtbopt.xyz --opt crude --input .xc2 --gfn2

   ID    Z sym.   atoms
    1    7 N      1, 17
    2    6 C      2-6, 8, 9, 11-16, 18-23, 25, 26, 28-33
    3    8 O      7, 10, 24, 27
    4    1 H      34-72
########################################################################
[WARNING] Please study the warnings concerning your input carefully
-1- readin_getIntValue: could not parse ''
########################################################################

          :  Hamiltonian                  GFN2-xTB          :
 * total energy  :   -99.1134284 Eh     change       -0.1620037E-10 Eh
 * total energy  :   -99.3788891 Eh     change       -0.2654607E+00 Eh
 * total energy  :   -99.3825920 Eh     change       -0.3702849E-02 Eh
 * total energy  :   -99.3836240 Eh     change       -0.1032021E-02 Eh
 * total energy  :   -99.3839459 Eh     change       -0.3219482E-03 Eh
 * total energy  :   -99.3841966 Eh     change       -0.2506990E-03 Eh
   *** GEOMETRY OPTIMIZATION CONVERGED AFTER 6 ITERATIONS ***

 final structure:
================
72
 xtb: 6.6.1 (8d0f1dd)
N           -2.28055455600710        2.98800678223234        2.58351170760160
C           -1.77881502787219        2.48697307598272        1.45384860216576
C           -2.84861585514098        2.27457108461359        0.44020346230901
C           -3.35135668433358        0.82661292313836        0.46387192076614
C           -4.33525291966847        0.45340964983867       -0.40412002297728
C           -4.67179961869985       -0.98252719571908       -0.61870685895288
O           -3.82949309460940       -1.41260644426241       -1.72751556105702
C           -4.34440160725704       -2.49414976195604       -2.46653759355236
C           -4.33251256124385       -1.81588687177870        0.58865384382012
O           -4.99868121514389       -2.98971485751238        0.61440696816280
C           -4.75334875908318       -3.89807523725211        1.66567852899567
C           -3.37716422358664       -1.39440497767422        1.46954974261341
C           -2.82815203646809       -0.10742125258488        1.37270863277401
C           -2.40183234046351        2.63896301256760       -0.99217188930317
C           -1.62164009701471        1.52881488343828       -1.71887193413957
C           -0.32214374976321        1.23738997109564       -1.08354855817427
N            0.15705419968933        0.03269819276722       -0.79289930741221
C            1.51627161131772       -0.10013809036334       -0.32602151398682
C            2.48985486773989       -0.45851668040301       -1.46806076542458
C            3.90901160470302       -0.26733159456602       -1.01181635261444
C            4.53380645365543        0.95815312804401       -1.16564367762523
C            5.83301283009831        1.15446351726309       -0.72178828776689
C            6.53088826764770        0.12621667247192       -0.10800357198779
O            7.79525253165159        0.20355185526254        0.35859472629472
C            8.50972898171181        1.40593659321590        0.19408032842158
C            5.89648857780330       -1.13311004848717        0.06026906663086
O            6.64857668923507       -2.07770813901938        0.66733197464286
C            6.11793865794394       -3.36904664549467        0.83999862899288
C            4.59837585869149       -1.30673288482717       -0.39075140036325
C           -0.52856817545961       -1.18457093115429       -1.14982529708091
C           -3.97577319454021        3.20126933482746        1.00196089175599
C           -3.71202968398691        3.15243147888924        2.51586323590982
C           -3.89932572488878        4.64354094779832        0.51026986188735
H           -4.79009855424723        1.15516379092693       -1.08294559797537
H           -4.54042958821145       -3.36132738051502       -1.82877562310909
H           -3.58524818264630       -2.74882441693842       -3.20451377159185
H           -5.27074106719636       -2.21214781347764       -2.98033147577568
H           -4.96138591824149       -3.44215316028998        2.63761266930801
H           -5.43293054532548       -4.73209790354762        1.50173314353934
H           -3.72075243588900       -4.25896337978598        1.64564859812447
H           -3.04541898688310       -2.03375431514013        2.27281521836734
H           -2.03888321108598        0.17493947356620        2.05134755950862
H           -3.28939327627198        2.84995588070998       -1.58613385528494
H           -1.79472066410489        3.54419039095046       -0.95686095966710
H           -2.24125058313434        0.63784386619181       -1.80382018092477
H           -1.43274537360703        1.89455006067512       -2.73644160193107
H           -0.73550260754028        2.26997301850926        1.34239068615469
H            0.31803931173584        2.07505342363013       -0.85081230086819
H            1.55780250231063       -0.87230634259289        0.44640232902874
H            1.83680842746489        0.84493630583276        0.11805250030661
H            2.28579022253752        0.20019299569377       -2.31436132955984
H            2.32584114701089       -1.48900346456383       -1.78363010584204
H            4.01490621598790        1.77239001861316       -1.64902727712923
H            6.29549698504541        2.11714234091529       -0.86558324050150
H            8.03334546040107        2.23301209140089        0.73004244209512
H            8.61524057316816        1.66841984329688       -0.86304735000342
H            9.49427557800088        1.22127047928646        0.61948144125228
H            6.90532709805661       -3.94630461282098        1.32088339258623
H            5.23343716836368       -3.35773747643302        1.48549045776787
H            5.86518149273022       -3.83148214831394       -0.11934917907052
H            4.11003873909611       -2.26172559560048       -0.27606998765211
H           -0.43228525447940       -1.39047908280661       -2.21878094244937
H           -1.58991705742730       -1.12255011551213       -0.91111944428342
H           -0.09341916121039       -2.01274540563040       -0.59503087170632
H           -4.95672781386163        2.79073933697134        0.76391488018575
H           -4.21497740536716        2.29632603633484        2.98123351032570
H           -5.71299748833094       -1.13231098932956       -0.91983416073843
H           -4.02156337357798        4.06439054430544        3.02772084889123
H           -2.92577528340508        5.07736069981633        0.72558747088529
H           -4.08357223233425        4.71146154989694       -0.55699765742359
H           -4.65862124263223        5.23731472126380        1.01350869005646
H           -1.76045802453044        3.11236476660266        3.43634638638900

          :  Hamiltonian                  GFN2-xTB          :
         :: total energy             -99.384196646586 Eh    ::
         :: gradient norm              0.006249562871 Eh/a0 ::
         :: HOMO-LUMO gap              0.512425615233 eV    ::
         :: SCC energy              -100.726264514878 Eh    ::
         :: -> dispersion             -0.076143517712 Eh    ::
         :: repulsion energy           1.340668768562 Eh    ::

    * Orbital Energies and Occupations

         #    Occupation            Energy/Eh            Energy/eV
      -------------------------------------------------------------
         1        2.0000           -0.8065641             -21.9477
       ...           ...                  ...                  ...
        78        1.9996           -0.5302632             -14.4292
        79        1.9995           -0.5278945             -14.3647
        80        1.9993           -0.5225800             -14.2201
        81        1.9992           -0.5193637             -14.1326
        82        1.9990           -0.5161351             -14.0448
        83        1.9990           -0.5157830             -14.0352
        84        1.9988           -0.5138580             -13.9828
        85        1.9982           -0.5073345             -13.8053
        86        1.9906           -0.4808320             -13.0841
        87        1.9863           -0.4749539             -12.9242
        88        1.9833           -0.4717812             -12.8378
        89        1.9016           -0.4429919             -12.0544
        90        1.1150           -0.3997550             -10.8779 (HOMO)
        91        0.5545           -0.3809237             -10.3655 (LUMO)
        92        0.4667           -0.3772637             -10.2659
        93        0.0043           -0.2987058              -8.1282
        94        0.0040           -0.2975972              -8.0980
        95        0.0036           -0.2961769              -8.0594
        96        0.0001           -0.2294321              -6.2432
        97        0.0000           -0.1733456              -4.7170
        98                         -0.1150693              -3.1312
        99                         -0.1084681              -2.9516
       100                         -0.0709262              -1.9300
       101                         -0.0681511              -1.8545
       ...                                ...                  ...
       171                          0.5907801              16.0759
      -------------------------------------------------------------
                  HL-Gap            0.0188313 Eh            0.5124 eV

     #   Z          covCN         q      C6AA      α(0)
     1   7 N        2.712    -0.078    22.755     7.085
     2   6 C        2.903     0.005    27.901     8.661
     3   6 C        3.934     0.011    20.330     6.408
     4   6 C        2.960    -0.002    28.064     8.689
     5   6 C        2.913    -0.075    29.882     8.964
     6   6 C        3.747     0.106    18.906     6.202
     7   8 O        1.696    -0.338    19.671     5.988
     8   6 C        3.637     0.039    20.290     6.480
     9   6 C        2.853     0.121    25.337     8.250
    10   8 O        1.705    -0.242    18.010     5.730
    11   6 C        3.644     0.029    20.433     6.498
    12   6 C        2.901    -0.076    29.890     8.964
    13   6 C        2.920    -0.065    29.617     8.924
    14   6 C        3.806    -0.068    21.795     6.646
    15   6 C        3.802    -0.075    21.933     6.668
    16   6 C        2.846    -0.003    28.099     8.688
    17   7 N        2.729     0.014    21.006     6.807
    18   6 C        3.759    -0.017    20.919     6.521
    19   6 C        3.807    -0.070    21.833     6.652
    20   6 C        2.969    -0.003    28.106     8.696
    21   6 C        2.923    -0.052    29.298     8.876
    22   6 C        2.914    -0.070    29.744     8.943
    23   6 C        2.865     0.130    25.155     8.221
    24   8 O        1.706    -0.232    17.839     5.703
    25   6 C        3.645     0.028    20.434     6.496
    26   6 C        2.863     0.130    25.152     8.221
    27   8 O        1.706    -0.233    17.868     5.707
    28   6 C        3.645     0.030    20.409     6.493
    29   6 C        2.920    -0.081    30.021     8.985
    30   6 C        3.700    -0.076    22.130     6.728
    31   6 C        3.895    -0.024    20.942     6.505
    32   6 C        3.800    -0.011    20.780     6.490
    33   6 C        3.754    -0.118    22.822     6.812
    34   1 H        0.926     0.044     2.400     2.423
    35   1 H        0.924     0.044     2.395     2.420
    36   1 H        0.925     0.057     2.229     2.334
    37   1 H        0.924     0.038     2.475     2.460
    38   1 H        0.924     0.053     2.277     2.360
    39   1 H        0.925     0.077     2.014     2.219
    40   1 H        0.924     0.051     2.309     2.376
    41   1 H        0.926     0.039     2.456     2.451
    42   1 H        0.926     0.021     2.721     2.580
    43   1 H        0.925     0.065     2.147     2.291
    44   1 H        0.924     0.053     2.287     2.365
    45   1 H        0.925     0.087     1.913     2.163
    46   1 H        0.924     0.078     2.000     2.211
    47   1 H        0.926     0.054     2.269     2.355
    48   1 H        0.926     0.058     2.218     2.329
    49   1 H        0.924     0.064     2.151     2.293
    50   1 H        0.924     0.062     2.180     2.309
    51   1 H        0.924     0.052     2.290     2.366
    52   1 H        0.925     0.054     2.267     2.355
    53   1 H        0.926     0.039     2.459     2.452
    54   1 H        0.926     0.053     2.286     2.364
    55   1 H        0.924     0.049     2.333     2.389
    56   1 H        0.924     0.052     2.301     2.372
    57   1 H        0.925     0.078     2.001     2.212
    58   1 H        0.925     0.078     2.004     2.214
    59   1 H        0.924     0.045     2.387     2.416
    60   1 H        0.924     0.049     2.330     2.387
    61   1 H        0.926     0.044     2.392     2.418
    62   1 H        0.924     0.076     2.021     2.223
    63   1 H        0.925     0.101     1.775     2.084
    64   1 H        0.925     0.073     2.056     2.242
    65   1 H        0.925     0.060     2.204     2.322
    66   1 H        0.924     0.065     2.146     2.291
    67   1 H        0.924     0.047     2.355     2.400
    68   1 H        0.924     0.072     2.065     2.247
    69   1 H        0.925     0.046     2.373     2.409
    70   1 H        0.925     0.055     2.261     2.351
    71   1 H        0.925     0.055     2.255     2.348
    72   1 H        0.860     0.181     1.210     1.723

Wiberg/Mayer (AO) data.
largest (>0.10) Wiberg bond orders for each atom

     #   Z sym  total        # sym  WBO       # sym  WBO       # sym  WBO
 ---------------------------------------------------------------------------
     1   7 N    3.357 --     2 C    1.367    32 C    0.995    72 H    0.939
     2   6 C    3.452 --     1 N    1.367     3 C    1.030    47 H    0.963
     3   6 C    3.984 --     2 C    1.030    14 C    0.968    31 C    0.945
                             4 C    0.940
     4   6 C    3.941 --     5 C    1.570    13 C    1.300     3 C    0.940
     5   6 C    3.695 --     4 C    1.570     6 C    1.016    34 H    0.966
     6   6 C    3.945 --     5 C    1.016     9 C    0.986    67 H    0.951
                             7 O    0.907
     7   8 O    2.009 --     8 C    0.993     6 C    0.907
     8   6 C    3.942 --     7 O    0.993    37 H    0.976    35 H    0.976
                            36 H    0.975
     9   6 C    3.706 --    12 C    1.497    10 O    1.104     6 C    0.986
    10   8 O    2.221 --     9 C    1.104    11 C    0.973
    11   6 C    3.934 --    39 H    0.978    38 H    0.974    40 H    0.974
                            10 O    0.973
    12   6 C    3.955 --     9 C    1.497    13 C    1.327    41 H    0.962
    13   6 C    3.670 --    12 C    1.327     4 C    1.300    42 H    0.966
    14   6 C    3.964 --    15 C    0.982    44 H    0.974     3 C    0.968
                            43 H    0.967
    15   6 C    3.984 --    16 C    1.063    14 C    0.982    45 H    0.954
                            46 H    0.929
    16   6 C    3.532 --    17 N    1.397    15 C    1.063    48 H    0.958
    17   7 N    3.456 --    16 C    1.397    30 C    0.999    18 C    0.991
    18   6 C    3.959 --    17 N    0.991    50 H    0.968    19 C    0.965
                            49 H    0.965
    19   6 C    3.976 --    20 C    1.008    52 H    0.973    51 H    0.972
                            18 C    0.965
    20   6 C    3.957 --    21 C    1.418    29 C    1.376    19 C    1.008
    21   6 C    3.961 --    20 C    1.418    22 C    1.411    53 H    0.969
    22   6 C    3.967 --    21 C    1.411    23 C    1.392    54 H    0.964
    23   6 C    3.908 --    22 C    1.392    26 C    1.231    24 O    1.097
    24   8 O    2.253 --    23 C    1.097    25 C    0.979
    25   6 C    3.934 --    24 O    0.979    57 H    0.977    55 H    0.974
                            56 H    0.974
    26   6 C    3.911 --    29 C    1.402    23 C    1.231    27 O    1.093
    27   8 O    2.253 --    26 C    1.093    28 C    0.981
    28   6 C    3.937 --    27 O    0.981    58 H    0.977    59 H    0.974
                            60 H    0.974
    29   6 C    3.965 --    26 C    1.402    20 C    1.376    61 H    0.963
    30   6 C    3.952 --    17 N    0.999    64 H    0.978    62 H    0.963
                            63 H    0.957
    31   6 C    3.978 --    33 C    1.012    32 C    0.989    65 H    0.967
                             3 C    0.945
    32   6 C    3.959 --     1 N    0.995    31 C    0.989    68 H    0.966
                            66 H    0.955
    33   6 C    3.991 --    31 C    1.012    69 H    0.986    70 H    0.981
                            71 H    0.981
    34   1 H    0.997 --     5 C    0.966
    35   1 H    0.996 --     8 C    0.976
    36   1 H    0.993 --     8 C    0.975
    37   1 H    0.997 --     8 C    0.976
    38   1 H    0.992 --    11 C    0.974
    39   1 H    0.994 --    11 C    0.978
    40   1 H    0.992 --    11 C    0.974
    41   1 H    0.997 --    12 C    0.962
    42   1 H    0.999 --    13 C    0.966
    43   1 H    0.994 --    14 C    0.967
    44   1 H    0.996 --    14 C    0.974
    45   1 H    0.991 --    15 C    0.954
    46   1 H    0.967 --    15 C    0.929
    47   1 H    0.997 --     2 C    0.963
    48   1 H    0.996 --    16 C    0.958
    49   1 H    0.991 --    18 C    0.965
    50   1 H    0.995 --    18 C    0.968
    51   1 H    0.996 --    19 C    0.972
    52   1 H    0.996 --    19 C    0.973
    53   1 H    0.998 --    21 C    0.969
    54   1 H    0.996 --    22 C    0.964
    55   1 H    0.994 --    25 C    0.974
    56   1 H    0.994 --    25 C    0.974
    57   1 H    0.993 --    25 C    0.977
    58   1 H    0.993 --    28 C    0.977
    59   1 H    0.995 --    28 C    0.974
    60   1 H    0.995 --    28 C    0.974
    61   1 H    0.997 --    29 C    0.963
    62   1 H    0.981 --    30 C    0.963
    63   1 H    0.985 --    30 C    0.957
    64   1 H    0.994 --    30 C    0.978
    65   1 H    0.996 --    31 C    0.967
    66   1 H    0.982 --    32 C    0.955
    67   1 H    0.983 --     6 C    0.951
    68   1 H    0.991 --    32 C    0.966
    69   1 H    0.998 --    33 C    0.986
    70   1 H    0.996 --    33 C    0.981
    71   1 H    0.996 --    33 C    0.981
    72   1 H    0.966 --     1 N    0.939
 ---------------------------------------------------------------------------

molecular dipole:
                 x           y           z       tot (Debye)
 q only:       -0.966       1.437       0.890
   full:       -1.044       1.309       1.100       5.091

           -------------------------------------------------
          | TOTAL ENERGY              -99.384196646586 Eh   |
          | GRADIENT NORM               0.006249562871 Eh/α |
          | HOMO-LUMO GAP               0.512425615233 eV   |
           -------------------------------------------------

 * finished run on 2024/04/06 at 11:16:18.734
