   * xtb version 6.6.1 (8d0f1dd) compiled by 'conda@1efc2f54142f' on 2023-08-01
          program call               : xtb struc.xyz --opt loose --input .xc1 --gfn2

   ID    Z sym.   atoms
    1    6 C      1, 3, 5-7, 10, 11, 14
    2    7 N      2, 4, 9, 13
    3    8 O      8, 12
    4    1 H      15-25
constraining bond 11 23 to    5.1400000 Å, actual value:    3.1827480 Å

          :  Hamiltonian                  GFN2-xTB          :
 * total energy  :   -35.4077788 Eh     change       -0.6650680E-10 Eh
 * total energy  :   -38.5632473 Eh     change       -0.3155468E+01 Eh
 * total energy  :   -40.6841409 Eh     change       -0.2120894E+01 Eh
 * total energy  :   -41.6884373 Eh     change       -0.1004296E+01 Eh
 * total energy  :   -41.9525591 Eh     change       -0.2641219E+00 Eh
 * total energy  :   -41.9770118 Eh     change       -0.2445266E-01 Eh
 * total energy  :   -41.9880174 Eh     change       -0.1100564E-01 Eh
 * total energy  :   -42.0127144 Eh     change       -0.2469700E-01 Eh
 * total energy  :   -42.0244585 Eh     change       -0.1174402E-01 Eh
 * total energy  :   -42.0330283 Eh     change       -0.8569895E-02 Eh
 * total energy  :   -42.1570048 Eh     change        0.2295931E-04 Eh
 * total energy  :   -42.1572067 Eh     change       -0.2019548E-03 Eh
 * total energy  :   -42.1573054 Eh     change       -0.9866819E-04 Eh
 * total energy  :   -42.1574511 Eh     change       -0.1457397E-03 Eh
 * total energy  :   -42.1576048 Eh     change       -0.1537038E-03 Eh
 * total energy  :   -42.1577256 Eh     change       -0.1207239E-03 Eh
 * total energy  :   -42.1578186 Eh     change       -0.9306542E-04 Eh
 * total energy  :   -42.1578904 Eh     change       -0.7175917E-04 Eh
 * total energy  :   -42.1579298 Eh     change       -0.3943496E-04 Eh
   *** GEOMETRY OPTIMIZATION CONVERGED AFTER 72 ITERATIONS ***

 final structure:
================
25
 xtb: 6.6.1 (8d0f1dd)
C            3.03886247606357        1.15055101274693        0.18753595763936
N            2.12210673883069        0.05432782059447        0.04725487751208
C            2.45382021043609       -1.20038029042646       -0.16379644958490
N            1.36252031921777       -1.96828533931051       -0.24797245052208
C            0.20479972464318       -1.17785522574643       -0.08258989804553
C            0.72761012095067        0.15126127476123        0.12871672009699
C            0.11081830535820        1.39165845307044        0.27941775531162
O            0.55202535608277        2.50851563408877        0.29264492957852
N           -1.43895400539813        1.30536488434094        0.46132569501525
C           -2.19920762809231        2.04474029555027       -0.54096309976359
C           -1.88494080117800        0.83225069456877        1.51909100342141
O           -2.16155261279749        0.34755213934832        2.51992057076855
N           -1.00940034366382       -1.54355461394974       -0.13979821430228
C           -1.44340202881218       -2.87637758246822       -0.42106973042412
H            2.89941227321799        1.63821647342260        1.15220810214609
H            4.05887512921918        0.78226492202562        0.10996100537381
H            2.85808605310673        1.89508556034391       -0.58821352437158
H            3.46189625750200       -1.56067861926905       -0.25342714351018
H           -1.66759932067701        2.97546413015420       -0.74817559507270
H           -2.26014979266556        1.44306807020188       -1.45003987091090
H           -3.20103521556168        2.26883271646614       -0.17772350792657
H           -1.65705159724128       -3.38945665687788        0.52129832913189
H           -0.74551062694551       -3.49293847131752       -1.00900791983798
H           -2.38321337007187       -2.79643526133250       -0.96907735495539
H            1.36161589257509       -2.96495347938540       -0.39634856886844

          :  Hamiltonian                  GFN2-xTB          :
         :: total energy             -42.157929823091 Eh    ::
         :: gradient norm              0.003381573926 Eh/a0 ::
         :: HOMO-LUMO gap              1.955929307457 eV    ::
         :: SCC energy               -42.725902020950 Eh    ::
         :: -> dispersion             -0.021865542480 Eh    ::
         :: repulsion energy           0.567735982616 Eh    ::

    * Orbital Energies and Occupations

         #    Occupation            Energy/Eh            Energy/eV
      -------------------------------------------------------------
         1        2.0000           -0.9315677             -25.3492
       ...           ...                  ...                  ...
        25        2.0000           -0.6705899             -18.2477
        26        2.0000           -0.6640097             -18.0686
        27        2.0000           -0.6486533             -17.6508
        28        1.9999           -0.6367574             -17.3271
        29        1.9999           -0.6320503             -17.1990
        30        1.9999           -0.6301348             -17.1468
        31        1.9996           -0.6072799             -16.5249
        32        1.9993           -0.6003925             -16.3375
        33        1.9990           -0.5935431             -16.1511
        34        1.9986           -0.5886328             -16.0175
        35        1.9978           -0.5817789             -15.8310
        36        1.9171           -0.5235535             -14.2466
        37        1.8214           -0.5105988             -13.8941 (HOMO)
        38        0.1964           -0.4387197             -11.9382 (LUMO)
        39        0.0653           -0.4201692             -11.4334
        40        0.0039           -0.3751716             -10.2089
        41        0.0020           -0.3640874              -9.9073
        42        0.0000           -0.2935248              -7.9872
        43        0.0000           -0.2417503              -6.5784
        44                         -0.1723279              -4.6893
        45                         -0.1271398              -3.4597
        46                         -0.0879925              -2.3944
        47                         -0.0763350              -2.0772
        48                         -0.0330225              -0.8986
       ...                                ...                  ...
        67                          1.0221812              27.8150
      -------------------------------------------------------------
                  HL-Gap            0.0718791 Eh            1.9559 eV

     #   Z          covCN         q      C6AA      α(0)
     1   6 C        3.693    -0.084    22.299     6.756
     2   7 N        2.815     0.066    20.093     6.658
     3   6 C        2.973     0.075    26.322     8.416
     4   7 N        2.782    -0.097    23.130     7.143
     5   6 C        2.939     0.143    24.888     8.182
     6   6 C        3.053    -0.043    29.019     8.835
     7   6 C        2.750     0.256    22.694     7.801
     8   8 O        0.857    -0.329    20.312     6.042
     9   7 N        2.714    -0.022    21.678     6.915
    10   6 C        3.697    -0.066    21.936     6.699
    11   6 C        1.794     0.327    23.893     7.900
    12   8 O        0.856    -0.110    16.669     5.474
    13   7 N        1.824    -0.256    27.508     7.771
    14   6 C        3.698    -0.032    21.305     6.602
    15   1 H        0.925     0.110     1.696     2.037
    16   1 H        0.925     0.096     1.826     2.113
    17   1 H        0.924     0.116     1.649     2.008
    18   1 H        0.926     0.110     1.699     2.038
    19   1 H        0.924     0.123     1.592     1.973
    20   1 H        0.924     0.107     1.726     2.055
    21   1 H        0.925     0.101     1.779     2.086
    22   1 H        0.924     0.076     2.016     2.221
    23   1 H        0.923     0.038     2.474     2.460
    24   1 H        0.924     0.082     1.957     2.188
    25   1 H        0.860     0.214     1.036     1.594

Wiberg/Mayer (AO) data.
largest (>0.10) Wiberg bond orders for each atom

     #   Z sym  total        # sym  WBO       # sym  WBO       # sym  WBO
 ---------------------------------------------------------------------------
     1   6 C    3.929 --     2 N    0.993    16 H    0.974    15 H    0.959
                            17 H    0.957
     2   7 N    3.669 --     3 C    1.418     6 C    1.089     1 C    0.993
                             4 N    0.108
     3   6 C    3.881 --     2 N    1.418     4 N    1.312    18 H    0.951
     4   7 N    3.536 --     3 C    1.312     5 C    1.045    25 H    0.924
                             2 N    0.108
     5   6 C    3.945 --    13 N    1.630     6 C    1.139     4 N    1.045
     6   6 C    3.830 --     7 C    1.277     5 C    1.139     2 N    1.089
                             8 O    0.113
     7   6 C    3.866 --     8 O    1.728     6 C    1.277     9 N    0.714
     8   8 O    2.103 --     7 C    1.728     6 C    0.113
     9   7 N    3.579 --    11 C    1.595    10 C    0.929     7 C    0.714
                            12 O    0.239
    10   6 C    3.890 --    21 H    0.976    20 H    0.966    19 H    0.962
                             9 N    0.929
    11   6 C    3.786 --    12 O    2.077     9 N    1.595
    12   8 O    2.415 --    11 C    2.077     9 N    0.239
    13   7 N    2.931 --     5 C    1.630    14 C    1.038
    14   6 C    3.951 --    13 N    1.038    23 H    0.963    24 H    0.962
                            22 H    0.947
    15   1 H    0.985 --     1 C    0.959
    16   1 H    0.990 --     1 C    0.974
    17   1 H    0.984 --     1 C    0.957
    18   1 H    0.986 --     3 C    0.951
    19   1 H    0.984 --    10 C    0.962
    20   1 H    0.988 --    10 C    0.966
    21   1 H    0.989 --    10 C    0.976
    22   1 H    0.974 --    14 C    0.947
    23   1 H    0.983 --    14 C    0.963
    24   1 H    0.980 --    14 C    0.962
    25   1 H    0.953 --     4 N    0.924
 ---------------------------------------------------------------------------

molecular dipole:
                 x           y           z       tot (Debye)
 q only:        0.891      -0.543      -0.256
   full:        1.174      -1.108      -0.310       4.178

           -------------------------------------------------
          | TOTAL ENERGY              -42.157929823091 Eh   |
          | GRADIENT NORM               0.003381573926 Eh/α |
          | HOMO-LUMO GAP               1.955929307457 eV   |
           -------------------------------------------------

 * finished run on 2024/06/05 at 19:58:03.337
