   * xtb version 6.6.1 (8d0f1dd) compiled by 'conda@1efc2f54142f' on 2023-08-01
          program call               : xtb struc.xyz --opt loose --input .xc1 --gfn2

   ID    Z sym.   atoms
    1    6 C      1, 3, 5-7, 10, 11, 14
    2    7 N      2, 4, 9, 13
    3    8 O      8, 12
    4    1 H      15-25
constraining bond 7 10 to    5.0000000 Å, actual value:    2.4325910 Å

          :  Hamiltonian                  GFN2-xTB          :
 * total energy  :   -30.4783648 Eh     change       -0.6650680E-10 Eh
 * total energy  :   -34.7728935 Eh     change       -0.4294529E+01 Eh
 * total energy  :   -38.1957880 Eh     change       -0.3422894E+01 Eh
 * total energy  :   -40.3436254 Eh     change       -0.2147837E+01 Eh
 * total energy  :   -41.3804892 Eh     change       -0.1036864E+01 Eh
 * total energy  :   -41.6283501 Eh     change       -0.2478609E+00 Eh
 * total energy  :   -41.6708690 Eh     change       -0.4251887E-01 Eh
 * total energy  :   -41.6967511 Eh     change       -0.2588218E-01 Eh
 * total energy  :   -41.7135906 Eh     change       -0.1683944E-01 Eh
 * total energy  :   -41.7458066 Eh     change       -0.3221603E-01 Eh
 * total energy  :   -42.1784189 Eh     change       -0.1383180E-02 Eh
 * total energy  :   -42.1810594 Eh     change       -0.2640536E-02 Eh
 * total energy  :   -42.1816480 Eh     change       -0.5885553E-03 Eh
 * total energy  :   -42.1820710 Eh     change       -0.4230943E-03 Eh
 * total energy  :   -42.1826837 Eh     change       -0.6126872E-03 Eh
 * total energy  :   -42.1827997 Eh     change       -0.1159284E-03 Eh
 * total energy  :   -42.1830197 Eh     change       -0.2200516E-03 Eh
 * total energy  :   -42.1830841 Eh     change       -0.6442124E-04 Eh
 * total energy  :   -42.1831303 Eh     change       -0.4617706E-04 Eh
   *** GEOMETRY OPTIMIZATION CONVERGED AFTER 60 ITERATIONS ***

 final structure:
================
25
 xtb: 6.6.1 (8d0f1dd)
C            3.92762011186990        0.54737972440146        0.02473987810635
N            2.71080065604135       -0.21891095177022        0.00178204860395
C            2.59810998399935       -1.53985687700917        0.00194384128002
N            1.28929428803482       -1.88512733147164       -0.00111005411902
C            0.54573527099346       -0.73866767583083       -0.00210410703136
C            1.44525534074986        0.31780372401148       -0.00033433368370
C            0.98737834266101        1.69385239002250       -0.02331435395049
O            1.63527998362261        2.69679737047950       -0.04963493918757
N           -0.47512574327129        1.70543503249901       -0.01318661723155
C           -3.97288694017498        1.29371740674680        0.00802942725791
C           -1.30855245866162        0.72582299524066       -0.00239856189314
O           -2.63266377835335        0.60527181138521        0.01652334872341
N           -0.79554643756399       -0.62186872669136       -0.00554583922344
C           -1.60684875585041       -1.82539575551134       -0.01058442725607
H            4.39848314344702        0.47973994341483        1.00680842702807
H            4.62364373151542        0.17477438099478       -0.72555267120591
H            3.68851351101118        1.59083712689678       -0.17757548819916
H            3.41154494972710       -2.23776067569324        0.00214737602575
H           -3.85475914483883        2.37531498755602        0.00749870952547
H           -4.46353506756755        0.94461422310922       -0.89504415399329
H           -4.46650657712146        0.94411341440625        0.90888837651857
H           -1.40091238181856       -2.42125327428943        0.88023178086134
H           -1.40371494689203       -2.41173569749659       -0.90838984115906
H           -2.65543036954409       -1.54647793673183       -0.00699049925198
H            0.93525480208435       -2.83018108706912       -0.00565570864172

          :  Hamiltonian                  GFN2-xTB          :
         :: total energy             -42.183130312529 Eh    ::
         :: gradient norm              0.002554302362 Eh/a0 ::
         :: HOMO-LUMO gap              2.680387820028 eV    ::
         :: SCC energy               -42.691875338669 Eh    ::
         :: -> dispersion             -0.021678006261 Eh    ::
         :: repulsion energy           0.507731931047 Eh    ::

    * Orbital Energies and Occupations

         #    Occupation            Energy/Eh            Energy/eV
      -------------------------------------------------------------
         1        2.0000           -0.9029986             -24.5718
       ...           ...                  ...                  ...
        25        2.0000           -0.6669222             -18.1479
        26        2.0000           -0.6572170             -17.8838
        27        2.0000           -0.6451257             -17.5548
        28        1.9999           -0.6312491             -17.1772
        29        1.9999           -0.6291756             -17.1207
        30        1.9999           -0.6244710             -16.9927
        31        1.9997           -0.6117578             -16.6468
        32        1.9997           -0.6088805             -16.5685
        33        1.9990           -0.5921654             -16.1136
        34        1.9925           -0.5600942             -15.2409
        35        1.9886           -0.5533957             -15.0587
        36        1.9805           -0.5449162             -14.8279
        37        1.9264           -0.5234102             -14.2427 (HOMO)
        38        0.0988           -0.4249077             -11.5623 (LUMO)
        39        0.0112           -0.3896623             -10.6033
        40        0.0041           -0.3735830             -10.1657
        41        0.0000           -0.2719388              -7.3998
        42        0.0000           -0.2712956              -7.3823
        43                         -0.1904973              -5.1837
        44                         -0.1732576              -4.7146
        45                         -0.1534669              -4.1760
        46                         -0.1069542              -2.9104
        47                         -0.0533829              -1.4526
        48                         -0.0372048              -1.0124
       ...                                ...                  ...
        67                          0.5954445              16.2029
      -------------------------------------------------------------
                  HL-Gap            0.0985024 Eh            2.6804 eV

     #   Z          covCN         q      C6AA      α(0)
     1   6 C        3.692    -0.092    22.449     6.780
     2   7 N        2.833     0.080    19.854     6.618
     3   6 C        3.049     0.050    26.838     8.496
     4   7 N        2.798    -0.066    22.511     7.047
     5   6 C        3.043     0.118    25.361     8.260
     6   6 C        3.116    -0.020    28.338     8.720
     7   6 C        2.752     0.296    21.980     7.677
     8   8 O        0.857    -0.312    20.000     5.996
     9   7 N        1.833    -0.285    28.234     7.874
    10   6 C        3.607     0.014    20.880     6.602
    11   6 C        2.705     0.309    21.750     7.633
    12   8 O        1.692    -0.249    18.121     5.747
    13   7 N        2.741    -0.058    22.362     7.023
    14   6 C        3.697    -0.072    22.054     6.717
    15   1 H        0.924     0.108     1.715     2.048
    16   1 H        0.925     0.104     1.753     2.071
    17   1 H        0.925     0.134     1.502     1.917
    18   1 H        0.926     0.121     1.603     1.980
    19   1 H        0.925     0.102     1.763     2.077
    20   1 H        0.925     0.109     1.703     2.041
    21   1 H        0.925     0.110     1.695     2.036
    22   1 H        0.924     0.079     1.992     2.207
    23   1 H        0.924     0.079     1.991     2.207
    24   1 H        0.925     0.115     1.656     2.012
    25   1 H        0.860     0.225     0.985     1.555

Wiberg/Mayer (AO) data.
largest (>0.10) Wiberg bond orders for each atom

     #   Z sym  total        # sym  WBO       # sym  WBO       # sym  WBO
 ---------------------------------------------------------------------------
     1   6 C    3.917 --     2 N    0.986    16 H    0.965    17 H    0.962
                            15 H    0.956
     2   7 N    3.681 --     3 C    1.395     6 C    1.158     1 C    0.986
     3   6 C    3.854 --     2 N    1.395     4 N    1.267    18 H    0.953
     4   7 N    3.579 --     3 C    1.267     5 C    1.185    25 H    0.920
     5   6 C    3.949 --     6 C    1.356    13 N    1.223     4 N    1.185
     6   6 C    3.904 --     5 C    1.356     2 N    1.158     7 C    1.062
     7   6 C    3.937 --     8 O    1.771     6 C    1.062     9 N    1.019
     8   8 O    2.095 --     7 C    1.771     9 N    0.118
     9   7 N    3.033 --    11 C    1.592     7 C    1.019    12 O    0.135
                             8 O    0.118
    10   6 C    3.852 --    19 H    0.980    20 H    0.971    21 H    0.971
                            12 O    0.881
    11   6 C    3.924 --     9 N    1.592    12 O    1.191    13 N    1.008
    12   8 O    2.324 --    11 C    1.191    10 C    0.881     9 N    0.135
    13   7 N    3.544 --     5 C    1.223    11 C    1.008    14 C    0.978
    14   6 C    3.936 --    13 N    0.978    22 H    0.971    23 H    0.971
                            24 H    0.967
    15   1 H    0.985 --     1 C    0.956
    16   1 H    0.987 --     1 C    0.965
    17   1 H    0.982 --     1 C    0.962
    18   1 H    0.984 --     3 C    0.953
    19   1 H    0.989 --    10 C    0.980
    20   1 H    0.986 --    10 C    0.971
    21   1 H    0.985 --    10 C    0.971
    22   1 H    0.991 --    14 C    0.971
    23   1 H    0.991 --    14 C    0.971
    24   1 H    0.986 --    14 C    0.967
    25   1 H    0.949 --     4 N    0.920
 ---------------------------------------------------------------------------

molecular dipole:
                 x           y           z       tot (Debye)
 q only:        0.724      -2.674       0.029
   full:        0.722      -3.332       0.036       8.666

           -------------------------------------------------
          | TOTAL ENERGY              -42.183130312529 Eh   |
          | GRADIENT NORM               0.002554302362 Eh/α |
          | HOMO-LUMO GAP               2.680387820028 eV   |
           -------------------------------------------------

 * finished run on 2024/06/05 at 20:00:12.271
