   * xtb version 6.6.1 (8d0f1dd) compiled by 'conda@1efc2f54142f' on 2023-08-01
          program call               : xtb xtbopt.xyz --opt crude --input .xc2 --gfn2

   ID    Z sym.   atoms
    1    6 C      1, 3, 5-7, 10, 11, 14
    2    7 N      2, 4, 9, 13
    3    8 O      8, 12
    4    1 H      15-25

          :  Hamiltonian                  GFN2-xTB          :
 * total energy  :   -42.1353233 Eh     change       -0.3979039E-12 Eh
   *** GEOMETRY OPTIMIZATION CONVERGED AFTER 1 ITERATIONS ***

 final structure:
================
25
 xtb: 6.6.1 (8d0f1dd)
C            3.25410605435858        1.24061196607876        0.01869742825148
N            2.31858863291928        0.15083680730644        0.04967684879773
C            2.60880150700929       -1.15381543506608        0.08179782029108
N            1.46538474476020       -1.87985496624631        0.11733004624244
C            0.40999684034986       -1.00352997090996        0.10213008082884
C            0.94841155903771        0.27918883400561        0.05982164467349
C            0.12404286317592        1.45889990166714        0.02127376892888
O            0.51889769209379        2.60769224958761       -0.01514295202593
N           -1.23955986132255        1.13039345428614        0.02450814331137
C           -2.18768761940413        2.23438752586313       -0.02471129736951
C           -1.81117517210351       -0.11532190874424        0.06273868818450
O           -2.99872544870834       -0.29795475790871        0.05111608476276
N           -0.92324148268742       -1.25971591130267        0.12200422885920
C           -1.48045140494702       -2.48070453066783        0.19453220909490
H            3.78301156005592        1.31643678603637        0.97055566977467
H            3.98511176486579        1.09094515545257       -0.77621647531235
H            2.70691686141031        2.16701102275901       -0.15365263382857
H            3.59553462971630       -1.57186709648293        0.08389565811394
H           -1.62238038244197        3.16405336357316       -0.01820148604515
H           -2.79143819032515        2.16702715316094       -0.93016809545736
H           -2.85454109510474        2.19028772195699        0.83642597529186
H           -0.87362116827420       -3.35978223588709        0.25350253468251
H           -2.64637799149507       -4.83508234286099       -1.44592181795283
H           -2.55261592255992       -2.53414217473829        0.21219195077400
H            1.42344254372089       -2.88776206931889        0.13298759502802

          :  Hamiltonian                  GFN2-xTB          :
         :: total energy             -42.135323313347 Eh    ::
         :: gradient norm              0.003147173773 Eh/a0 ::
         :: HOMO-LUMO gap              0.219937020350 eV    ::
         :: SCC energy               -42.652456036350 Eh    ::
         :: -> dispersion             -0.022626101172 Eh    ::
         :: repulsion energy           0.517047862500 Eh    ::

    * Orbital Energies and Occupations

         #    Occupation            Energy/Eh            Energy/eV
      -------------------------------------------------------------
         1        2.0000           -0.9118582             -24.8129
       ...           ...                  ...                  ...
        25        1.9993           -0.6734411             -18.3253
        26        1.9991           -0.6677479             -18.1703
        27        1.9989           -0.6639320             -18.0665
        28        1.9963           -0.6355057             -17.2930
        29        1.9960           -0.6334938             -17.2382
        30        1.9958           -0.6325551             -17.2127
        31        1.9923           -0.6178193             -16.8117
        32        1.9873           -0.6059009             -16.4874
        33        1.9741           -0.5888682             -16.0239
        34        1.9729           -0.5877318             -15.9930
        35        1.9397           -0.5683385             -15.4653
        36        1.9390           -0.5680364             -15.4571
        37        1.0500           -0.4882766             -13.2867 (HOMO)
        38        0.8805           -0.4801941             -13.0667 (LUMO)
        39        0.2055           -0.4344324             -11.8215
        40        0.0559           -0.4016206             -10.9287
        41        0.0190           -0.3755748             -10.2199
        42        0.0005           -0.2907016              -7.9104
        43        0.0000           -0.2119747              -5.7681
        44        0.0000           -0.2000004              -5.4423
        45        0.0000           -0.1493226              -4.0633
        46        0.0000           -0.1360167              -3.7012
        47                         -0.0691997              -1.8830
        48                         -0.0384322              -1.0458
       ...                                ...                  ...
        67                          0.5393586              14.6767
      -------------------------------------------------------------
                  HL-Gap            0.0080825 Eh            0.2199 eV

     #   Z          covCN         q      C6AA      α(0)
     1   6 C        3.691    -0.093    22.478     6.785
     2   7 N        2.824     0.075    19.930     6.630
     3   6 C        3.038     0.046    26.936     8.513
     4   7 N        2.782    -0.060    22.397     7.029
     5   6 C        3.032     0.091    25.946     8.355
     6   6 C        3.103    -0.013    28.216     8.704
     7   6 C        2.764     0.261    22.600     7.785
     8   8 O        0.858    -0.359    20.880     6.126
     9   7 N        2.744    -0.073    22.649     7.068
    10   6 C        3.712    -0.063    21.848     6.679
    11   6 C        2.735     0.307    21.791     7.643
    12   8 O        0.859    -0.335    20.418     6.058
    13   7 N        2.735     0.012    21.056     6.815
    14   6 C        2.798    -0.058    29.423     8.886
    15   1 H        0.924     0.110     1.698     2.038
    16   1 H        0.924     0.107     1.725     2.054
    17   1 H        0.925     0.137     1.480     1.902
    18   1 H        0.926     0.124     1.579     1.965
    19   1 H        0.925     0.123     1.593     1.974
    20   1 H        0.924     0.107     1.726     2.055
    21   1 H        0.925     0.107     1.721     2.052
    22   1 H        0.927     0.091     1.869     2.138
    23   1 H        0.000    -0.005     7.826     5.115
    24   1 H        0.926     0.134     1.503     1.917
    25   1 H        0.860     0.227     0.977     1.548

Wiberg/Mayer (AO) data.
largest (>0.10) Wiberg bond orders for each atom

     #   Z sym  total        # sym  WBO       # sym  WBO       # sym  WBO
 ---------------------------------------------------------------------------
     1   6 C    3.905 --     2 N    0.989    16 H    0.960    17 H    0.956
                            15 H    0.953
     2   7 N    3.614 --     3 C    1.343     6 C    1.156     1 C    0.989
     3   6 C    3.750 --     2 N    1.343     4 N    1.265    18 H    0.953
     4   7 N    3.523 --     3 C    1.265     5 C    1.169    25 H    0.919
     5   6 C    3.851 --     6 C    1.324     4 N    1.169    13 N    1.153
     6   6 C    3.830 --     5 C    1.324     2 N    1.156     7 C    1.090
     7   6 C    3.881 --     8 O    1.639     6 C    1.090     9 N    1.070
     8   8 O    1.917 --     7 C    1.639     9 N    0.121
     9   7 N    3.518 --    11 C    1.157     7 C    1.070    10 C    0.970
                            12 O    0.138     8 O    0.121
    10   6 C    3.883 --     9 N    0.970    19 H    0.959    21 H    0.955
                            20 H    0.954
    11   6 C    3.898 --    12 O    1.699     9 N    1.157    13 N    0.951
    12   8 O    1.999 --    11 C    1.699     9 N    0.138
    13   7 N    3.602 --    14 C    1.288     5 C    1.153    11 C    0.951
    14   6 C    3.319 --    13 N    1.288    22 H    0.968    24 H    0.956
    15   1 H    0.978 --     1 C    0.953
    16   1 H    0.981 --     1 C    0.960
    17   1 H    0.978 --     1 C    0.956
    18   1 H    0.983 --     3 C    0.953
    19   1 H    0.977 --    10 C    0.959
    20   1 H    0.972 --    10 C    0.954
    21   1 H    0.973 --    10 C    0.955
    22   1 H    0.989 --    14 C    0.968
    23   1 H    0.008
    24   1 H    0.979 --    14 C    0.956
    25   1 H    0.948 --     4 N    0.919
 ---------------------------------------------------------------------------

molecular dipole:
                 x           y           z       tot (Debye)
 q only:        2.449      -1.488       0.189
   full:        2.696      -2.039       0.209       8.607

           -------------------------------------------------
          | TOTAL ENERGY              -42.135323313347 Eh   |
          | GRADIENT NORM               0.003147173773 Eh/α |
          | HOMO-LUMO GAP               0.219937020350 eV   |
           -------------------------------------------------

 * finished run on 2024/06/05 at 19:58:47.234
