   * xtb version 6.6.1 (8d0f1dd) compiled by 'conda@1efc2f54142f' on 2023-08-01
          program call               : xtb struc.xyz --opt loose --input .xc1 --gfn2

   ID    Z sym.   atoms
    1    6 C      1, 3, 5-7, 10, 11, 14
    2    7 N      2, 4, 9, 13
    3    8 O      8, 12
    4    1 H      15-25
constraining bond 8 16 to    5.6333300 Å, actual value:    3.8788743 Å

          :  Hamiltonian                  GFN2-xTB          :
 * total energy  :   -47.7413562 Eh     change       -0.6633627E-10 Eh
 * total energy  :   -53.3098549 Eh     change       -0.5568499E+01 Eh
 * total energy  :   -60.6978275 Eh     change       -0.7387973E+01 Eh
 * total energy  :   -70.1433251 Eh     change       -0.9445498E+01 Eh
 * total energy  :   -81.5936119 Eh     change       -0.1145029E+02 Eh
 * total energy  :   -80.2592932 Eh     change        0.1334319E+01 Eh
 * total energy  :   -86.6337769 Eh     change       -0.6374484E+01 Eh
 * total energy  :   -87.3990646 Eh     change       -0.7652877E+00 Eh
 * total energy  :   -88.8308694 Eh     change       -0.1431805E+01 Eh
 * total energy  :   -88.6955506 Eh     change        0.1353187E+00 Eh
 * total energy  :   -89.1593455 Eh     change       -0.8771786E-04 Eh
 * total energy  :   -89.1595081 Eh     change       -0.1626730E-03 Eh
 * total energy  :   -89.1596439 Eh     change       -0.1357739E-03 Eh
 * total energy  :   -89.1597874 Eh     change       -0.1435022E-03 Eh
 * total energy  :   -89.1562600 Eh     change        0.3527434E-02 Eh
 * total energy  :   -89.1592370 Eh     change       -0.2977010E-02 Eh
 * total energy  :   -89.1591482 Eh     change        0.8874163E-04 Eh
 * total energy  :   -89.1599181 Eh     change       -0.7698827E-03 Eh
 * total energy  :   -89.1599508 Eh     change       -0.3267278E-04 Eh
   *** GEOMETRY OPTIMIZATION CONVERGED AFTER 116 ITERATIONS ***

 final structure:
================
25
 xtb: 6.6.1 (8d0f1dd)
C            3.22739140351873        0.95329043105616       -0.08105447704441
N            2.31870362495212       -0.01323076918429       -0.02321687969105
C            2.54811530099847       -1.35821462582359        0.04479841406047
N            1.34810048430234       -2.02446907457400        0.09260466525702
C            0.35272178704766       -1.14145578612095        0.05435349775921
C            0.92249305303737        0.15624795515133       -0.01464263706584
C            0.09776741312793        1.24649588462443       -0.04499593221201
O            2.85979009062212        2.25053950584510       -0.20054252032254
N           -1.24627489049298        1.03670436624493       -0.00126796110185
C           -2.13533615967621        2.18348008671594       -0.03520536978632
C           -1.85273855725482       -0.22169764852422        0.03659532841725
O           -3.04419783301375       -0.35723804535473        0.04569456258383
N           -0.99333268340667       -1.32455805533449        0.06927465625187
C           -1.56054081860921       -2.65759656540939        0.10344027751653
H            4.27078557119229        0.67593906204427       -0.07146832081279
H            3.07539334083109        2.55417497249571       -0.26912969286596
H            0.43900774797034        2.26557870405933       -0.09409686708329
H            3.50678033505336       -1.82138221744780        0.07067223032455
H           -1.75700794528437        2.96580391085908        0.61955346845990
H           -2.22146140232338        2.56959354618373       -1.05185241671865
H           -3.12158573757007        1.86862415041665        0.30131167366490
H           -1.26962979359980       -3.17129943626676        1.02005951013547
H           -1.23367462460369       -3.23019728898760       -0.76484232159259
H           -2.64413666579228       -2.55821997367663        0.07912064546003
H            1.27329847307378       -3.02867454739127        0.14600808430574

          :  Hamiltonian                  GFN2-xTB          :
         :: total energy             -89.159950806360 Eh    ::
         :: gradient norm              0.003248902320 Eh/a0 ::
         :: HOMO-LUMO gap              1.073150233916 eV    ::
         :: SCC energy               -42.741285003535 Eh    ::
         :: -> dispersion             -0.022595669529 Eh    ::
         :: repulsion energy           2.882550663528 Eh    ::

    * Orbital Energies and Occupations

         #    Occupation            Energy/Eh            Energy/eV
      -------------------------------------------------------------
         1        2.0000           -0.9006676             -24.5084
       ...           ...                  ...                  ...
        25        2.0000           -0.6613640             -17.9966
        26        2.0000           -0.6602114             -17.9653
        27        2.0000           -0.6424321             -17.4815
        28        2.0000           -0.6409629             -17.4415
        29        2.0000           -0.6374207             -17.3451
        30        2.0000           -0.6173952             -16.8002
        31        2.0000           -0.6150532             -16.7365
        32        2.0000           -0.6115574             -16.6413
        33        2.0000           -0.6058943             -16.4872
        34        2.0000           -0.5863293             -15.9548
        35        2.0000           -0.5655690             -15.3899
        36        2.0000           -0.5487106             -14.9312
        37        1.8469           -0.4722227             -12.8498 (HOMO)
        38        0.1530           -0.4327852             -11.7767 (LUMO)
        39        0.0002           -0.3776058             -10.2752
        40        0.0000           -0.3500421              -9.5251
        41                         -0.2856876              -7.7740
        42                         -0.1972355              -5.3671
        43                         -0.1667155              -4.5366
        44                         -0.1279339              -3.4813
        45                         -0.1147753              -3.1232
        46                         -0.0751314              -2.0444
        47                         -0.0629923              -1.7141
        48                         -0.0281126              -0.7650
       ...                                ...                  ...
        67                          6.1101151             166.2647
      -------------------------------------------------------------
                  HL-Gap            0.0394375 Eh            1.0732 eV

     #   Z          covCN         q      C6AA      α(0)
     1   6 C        2.784     0.090    25.980     8.349
     2   7 N        2.793     0.071    20.006     6.643
     3   6 C        3.012    -0.032    28.787     8.801
     4   7 N        2.767    -0.050    22.212     7.000
     5   6 C        3.015     0.099    25.793     8.331
     6   6 C        3.074     0.016    27.574     8.610
     7   6 C        2.854     0.009    27.816     8.644
     8   8 O        1.664    -0.375    20.377     6.094
     9   7 N        2.746    -0.024    21.713     6.921
    10   6 C        3.706    -0.076    22.097     6.720
    11   6 C        2.722     0.315    21.653     7.618
    12   8 O        0.859    -0.373    21.139     6.164
    13   7 N        2.737    -0.056    22.317     7.016
    14   6 C        3.698    -0.071    22.032     6.713
    15   1 H        0.926     0.082     1.958     2.188
    16   1 H        0.881     0.367     0.542     1.153
    17   1 H        0.926     0.113     1.674     2.023
    18   1 H        0.927     0.096     1.820     2.110
    19   1 H        0.925     0.089     1.892     2.151
    20   1 H        0.924     0.092     1.859     2.132
    21   1 H        0.925     0.118     1.632     1.998
    22   1 H        0.924     0.081     1.971     2.196
    23   1 H        0.924     0.080     1.979     2.200
    24   1 H        0.925     0.123     1.593     1.974
    25   1 H        0.860     0.218     1.020     1.582

Wiberg/Mayer (AO) data.
largest (>0.10) Wiberg bond orders for each atom

     #   Z sym  total        # sym  WBO       # sym  WBO       # sym  WBO
 ---------------------------------------------------------------------------
     1   6 C    3.747 --     2 N    1.312     8 O    1.114    15 H    0.949
                             3 C    0.175
     2   7 N    3.712 --     1 C    1.312     3 C    1.188     6 C    1.050
     3   6 C    3.731 --     2 N    1.188     4 N    1.172    18 H    0.963
                             1 C    0.175     5 C    0.134
     4   7 N    3.594 --     5 C    1.299     3 C    1.172    25 H    0.923
     5   6 C    3.909 --     4 N    1.299     6 C    1.188    13 N    1.166
                             3 C    0.134
     6   6 C    3.930 --     7 C    1.456     5 C    1.188     2 N    1.050
     7   6 C    3.853 --     6 C    1.456     9 N    1.227    17 H    0.951
     8   8 O    2.156 --     1 C    1.114    16 H    0.859
     9   7 N    3.582 --     7 C    1.227    11 C    1.082    10 C    0.979
                            12 O    0.124
    10   6 C    3.927 --     9 N    0.979    19 H    0.973    21 H    0.967
                            20 H    0.965
    11   6 C    3.958 --    12 O    1.704     9 N    1.082    13 N    1.076
    12   8 O    2.066 --    11 C    1.704    13 N    0.138     9 N    0.124
    13   7 N    3.536 --     5 C    1.166    11 C    1.076    14 C    0.978
                            12 O    0.138
    14   6 C    3.931 --    13 N    0.978    23 H    0.971    22 H    0.970
                            24 H    0.966
    15   1 H    0.992 --     1 C    0.949
    16   1 H    0.865 --     8 O    0.859
    17   1 H    0.986 --     7 C    0.951
    18   1 H    0.990 --     3 C    0.963
    19   1 H    0.989 --    10 C    0.973
    20   1 H    0.985 --    10 C    0.965
    21   1 H    0.985 --    10 C    0.967
    22   1 H    0.990 --    14 C    0.970
    23   1 H    0.991 --    14 C    0.971
    24   1 H    0.985 --    14 C    0.966
    25   1 H    0.952 --     4 N    0.923
 ---------------------------------------------------------------------------

molecular dipole:
                 x           y           z       tot (Debye)
 q only:        2.043      -0.514      -0.002
   full:        2.559      -0.494      -0.043       6.626

           -------------------------------------------------
          | TOTAL ENERGY              -89.159950806360 Eh   |
          | GRADIENT NORM               0.003248902320 Eh/α |
          | HOMO-LUMO GAP               1.073150233916 eV   |
           -------------------------------------------------

 * finished run on 2024/06/05 at 19:58:16.520
