   * xtb version 6.6.1 (8d0f1dd) compiled by 'conda@1efc2f54142f' on 2023-08-01
          program call               : xtb xtbopt.xyz --opt crude --input .xc2 --gfn2

   ID    Z sym.   atoms
    1    6 C      1, 3, 5-7, 10, 11, 14
    2    7 N      2, 4, 9, 13
    3    8 O      8, 12
    4    1 H      15-25
########################################################################
[WARNING] Please study the warnings concerning your input carefully
-1- readin_getIntValue: could not parse ''
########################################################################

          :  Hamiltonian                  GFN2-xTB          :
 * total energy  :   -39.8586325 Eh     change       -0.1719513E-11 Eh
 * total energy  :   -42.1442848 Eh     change       -0.2285652E+01 Eh
 * total energy  :   -42.1746876 Eh     change       -0.3040281E-01 Eh
 * total energy  :   -42.1771403 Eh     change       -0.2452698E-02 Eh
 * total energy  :   -42.1781797 Eh     change       -0.1039452E-02 Eh
 * total energy  :   -42.1786397 Eh     change       -0.4599579E-03 Eh
 * total energy  :   -42.1795280 Eh     change       -0.8883064E-03 Eh
 * total energy  :   -42.1804263 Eh     change       -0.8982480E-03 Eh
 * total energy  :   -42.1813310 Eh     change       -0.9047618E-03 Eh
 * total energy  :   -42.1818381 Eh     change       -0.5070508E-03 Eh
 * total energy  :   -42.1821065 Eh     change       -0.2684099E-03 Eh
 * total energy  :   -42.1822457 Eh     change       -0.1391957E-03 Eh
 * total energy  :   -42.1823531 Eh     change       -0.1074616E-03 Eh
 * total energy  :   -42.1824953 Eh     change       -0.1421704E-03 Eh
 * total energy  :   -42.1826457 Eh     change       -0.1503616E-03 Eh
 * total energy  :   -42.1827606 Eh     change       -0.1149107E-03 Eh
   *** GEOMETRY OPTIMIZATION CONVERGED AFTER 16 ITERATIONS ***

 final structure:
================
25
 xtb: 6.6.1 (8d0f1dd)
C            3.19828438132432        0.94488443263690       -0.07689355781709
N            2.29993545139880       -0.02347974306010       -0.03369062791969
C            2.53322916957326       -1.37034717690292        0.02419150419973
N            1.33234727356587       -2.03733904671374        0.07154398038257
C            0.33609913101327       -1.15453573693180        0.04119930563493
C            0.90468342683322        0.14268056572429       -0.02435195183317
C            0.08119207800488        1.23311515711345       -0.05492924438572
O            2.77492873151763        2.22620940590267       -0.14331133375204
N           -1.26291941493302        1.02146786625625       -0.01421608988964
C           -2.14568462874465        2.17368520972456       -0.04968954282241
C           -1.86969355747029       -0.23707256129585        0.04196533182991
O           -3.06092552665097       -0.37367034232461        0.06672148791798
N           -1.00969317396669       -1.33912902881086        0.07197730568437
C           -1.57200380055770       -2.67250886708560        0.13842043342289
H            4.24619645887729        0.69747420063822       -0.05488969076126
H            3.50132422092170        2.83500187826052       -0.30195891955785
H            0.42690052313656        2.25112404778413       -0.10680510112810
H            3.49335970352929       -1.83011302375093        0.03072346683598
H           -1.85331118306773        2.89103240117137        0.71590087866967
H           -2.10597658121245        2.65162299940385       -1.02974624460919
H           -3.16332375293022        1.83549849947792        0.13774127851889
H           -1.23934949784527       -3.17891108133991        1.04505320341834
H           -1.28287264805606       -3.25110326254458       -0.73985655014512
H           -2.65610183323878       -2.57564710177910        0.16056833710978
H            1.25380656307803       -3.04170114995315        0.11550395889568

          :  Hamiltonian                  GFN2-xTB          :
         :: total energy             -42.182760582415 Eh    ::
         :: gradient norm              0.008121604000 Eh/a0 ::
         :: HOMO-LUMO gap              1.093535795056 eV    ::
         :: SCC energy               -42.708923716611 Eh    ::
         :: -> dispersion             -0.022583912997 Eh    ::
         :: repulsion energy           0.526068058078 Eh    ::

    * Orbital Energies and Occupations

         #    Occupation            Energy/Eh            Energy/eV
      -------------------------------------------------------------
         1        2.0000           -0.8783445             -23.9010
       ...           ...                  ...                  ...
        25        2.0000           -0.6607081             -17.9788
        26        2.0000           -0.6585986             -17.9214
        27        2.0000           -0.6401043             -17.4181
        28        2.0000           -0.6393542             -17.3977
        29        2.0000           -0.6354689             -17.2920
        30        2.0000           -0.6232117             -16.9585
        31        2.0000           -0.6118191             -16.6484
        32        2.0000           -0.6111466             -16.6301
        33        2.0000           -0.6024826             -16.3944
        34        2.0000           -0.5835208             -15.8784
        35        2.0000           -0.5628120             -15.3149
        36        2.0000           -0.5456820             -14.8488
        37        1.8534           -0.4692049             -12.7677 (HOMO)
        38        0.1464           -0.4290182             -11.6742 (LUMO)
        39        0.0002           -0.3746963             -10.1960
        40        0.0000           -0.3465063              -9.4289
        41                         -0.2821134              -7.6767
        42                         -0.1940613              -5.2807
        43                         -0.1654357              -4.5017
        44                         -0.1252321              -3.4077
        45                         -0.1130122              -3.0752
        46                         -0.0965647              -2.6277
        47                         -0.0597440              -1.6257
        48                         -0.0265392              -0.7222
       ...                                ...                  ...
        67                          0.5491651              14.9435
      -------------------------------------------------------------
                  HL-Gap            0.0401867 Eh            1.0935 eV

     #   Z          covCN         q      C6AA      α(0)
     1   6 C        2.715     0.099    25.789     8.313
     2   7 N        2.794     0.074    19.956     6.635
     3   6 C        3.009    -0.035    28.850     8.811
     4   7 N        2.768    -0.052    22.245     7.005
     5   6 C        3.014     0.098    25.812     8.334
     6   6 C        3.075     0.019    27.499     8.598
     7   6 C        2.855     0.011    27.762     8.636
     8   8 O        1.660    -0.347    19.848     6.014
     9   7 N        2.746    -0.026    21.740     6.925
    10   6 C        3.706    -0.076    22.107     6.721
    11   6 C        2.721     0.315    21.646     7.616
    12   8 O        0.859    -0.374    21.174     6.169
    13   7 N        2.737    -0.057    22.335     7.019
    14   6 C        3.698    -0.070    22.014     6.711
    15   1 H        0.926     0.073     2.053     2.241
    16   1 H        0.805     0.343     0.606     1.222
    17   1 H        0.926     0.118     1.631     1.997
    18   1 H        0.927     0.093     1.850     2.127
    19   1 H        0.925     0.089     1.890     2.150
    20   1 H        0.924     0.090     1.880     2.144
    21   1 H        0.925     0.118     1.627     1.995
    22   1 H        0.924     0.079     1.985     2.203
    23   1 H        0.924     0.080     1.983     2.202
    24   1 H        0.925     0.122     1.599     1.977
    25   1 H        0.860     0.216     1.027     1.587

Wiberg/Mayer (AO) data.
largest (>0.10) Wiberg bond orders for each atom

     #   Z sym  total        # sym  WBO       # sym  WBO       # sym  WBO
 ---------------------------------------------------------------------------
     1   6 C    3.764 --     2 N    1.324     8 O    1.112    15 H    0.956
                             3 C    0.176
     2   7 N    3.714 --     1 C    1.324     3 C    1.182     6 C    1.049
     3   6 C    3.728 --     2 N    1.182     4 N    1.170    18 H    0.964
                             1 C    0.176     5 C    0.137
     4   7 N    3.593 --     5 C    1.300     3 C    1.170    25 H    0.924
     5   6 C    3.910 --     4 N    1.300     6 C    1.188    13 N    1.164
                             3 C    0.137
     6   6 C    3.931 --     7 C    1.458     5 C    1.188     2 N    1.049
     7   6 C    3.855 --     6 C    1.458     9 N    1.226    17 H    0.949
     8   8 O    2.149 --     1 C    1.112    16 H    0.867
     9   7 N    3.583 --     7 C    1.226    11 C    1.083    10 C    0.978
                            12 O    0.124
    10   6 C    3.927 --     9 N    0.978    19 H    0.971    21 H    0.967
                            20 H    0.967
    11   6 C    3.959 --    12 O    1.702     9 N    1.083    13 N    1.077
    12   8 O    2.065 --    11 C    1.702    13 N    0.138     9 N    0.124
    13   7 N    3.536 --     5 C    1.164    11 C    1.077    14 C    0.978
                            12 O    0.138
    14   6 C    3.932 --    13 N    0.978    22 H    0.971    23 H    0.971
                            24 H    0.966
    15   1 H    0.994 --     1 C    0.956
    16   1 H    0.882 --     8 O    0.867
    17   1 H    0.985 --     7 C    0.949
    18   1 H    0.991 --     3 C    0.964
    19   1 H    0.988 --    10 C    0.971
    20   1 H    0.986 --    10 C    0.967
    21   1 H    0.985 --    10 C    0.967
    22   1 H    0.991 --    14 C    0.971
    23   1 H    0.991 --    14 C    0.971
    24   1 H    0.985 --    14 C    0.966
    25   1 H    0.952 --     4 N    0.924
 ---------------------------------------------------------------------------

molecular dipole:
                 x           y           z       tot (Debye)
 q only:        2.342      -0.265      -0.084
   full:        2.928      -0.361      -0.115       7.504

           -------------------------------------------------
          | TOTAL ENERGY              -42.182760582415 Eh   |
          | GRADIENT NORM               0.008121604000 Eh/α |
          | HOMO-LUMO GAP               1.093535795056 eV   |
           -------------------------------------------------

 * finished run on 2024/06/05 at 19:58:17.113
