   * xtb version 6.6.1 (8d0f1dd) compiled by 'conda@1efc2f54142f' on 2023-08-01
          program call               : xtb struc.xyz --opt loose --input .xc1 --gfn2

   ID    Z sym.   atoms
    1    6 C      1, 3, 5-7, 10, 11, 14
    2    7 N      2, 4, 9, 13
    3    8 O      8, 12
    4    1 H      15-25
constraining bond 11 24 to    3.7133300 Å, actual value:    2.4695195 Å

          :  Hamiltonian                  GFN2-xTB          :
 * total energy  :   -45.0101919 Eh     change       -0.6650680E-10 Eh
 * total energy  :   -49.1293448 Eh     change       -0.4119153E+01 Eh
 * total energy  :   -55.0537798 Eh     change       -0.5924435E+01 Eh
 * total energy  :   -57.9677825 Eh     change       -0.2914003E+01 Eh
 * total energy  :   -58.2437451 Eh     change       -0.2759626E+00 Eh
 * total energy  :   -58.9846606 Eh     change       -0.7409155E+00 Eh
 * total energy  :   -58.3400914 Eh     change        0.6445692E+00 Eh
 * total energy  :   -59.4114882 Eh     change       -0.1071397E+01 Eh
 * total energy  :   -59.4924641 Eh     change       -0.8097591E-01 Eh
 * total energy  :   -59.5245724 Eh     change       -0.3210826E-01 Eh
 * total energy  :   -59.7461419 Eh     change       -0.5722993E-04 Eh
 * total energy  :   -59.7461886 Eh     change       -0.4672330E-04 Eh
 * total energy  :   -59.7462505 Eh     change       -0.6196838E-04 Eh
 * total energy  :   -59.7462729 Eh     change       -0.2230798E-04 Eh
 * total energy  :   -59.7463262 Eh     change       -0.5330452E-04 Eh
 * total energy  :   -59.7463562 Eh     change       -0.3007995E-04 Eh
 * total energy  :   -59.7463915 Eh     change       -0.3529059E-04 Eh
 * total energy  :   -59.7464208 Eh     change       -0.2931704E-04 Eh
 * total energy  :   -59.7464373 Eh     change       -0.1642872E-04 Eh
   *** GEOMETRY OPTIMIZATION CONVERGED AFTER 139 ITERATIONS ***

 final structure:
================
25
 xtb: 6.6.1 (8d0f1dd)
C            2.81612658957444        1.18669389667503       -0.54147501219016
N            2.09617027813618       -0.00442150908473       -0.18132811274578
C            2.59940089905373       -1.22646754213247       -0.12442994813323
N            1.63201221417322       -2.08859684877966        0.21406344349816
C            0.45695418909062       -1.39439714233847        0.39194648248006
C            0.76004235665954       -0.05991749605712        0.12624289815699
C           -0.06775081323493        1.15080731782357        0.30718817846839
O            0.40731484530566        2.16021786628496        0.77705258251621
N           -1.40359593557195        1.04679014477540       -0.03303517966907
C           -2.29971218094846        2.08446770641017        0.45438106974849
C           -1.97422703350323        0.17120218457267       -1.02032713587712
O           -1.19955954075417       -0.62258677319555       -1.57292211038952
N           -0.68599419447985       -1.89686383778095        0.87958492529173
C           -1.26276284444174       -2.98458343265008        0.59846495237909
H            2.64098796231227        1.96147360343698        0.20607112587918
H            3.87846076165616        0.96714750495581       -0.60891916545091
H            2.46255314044029        1.55916573400283       -1.50390826971154
H            3.62291169122705       -1.48806325161949       -0.31202284661026
H           -1.81913664023366        2.60322962869835        1.28106718224943
H           -2.51915926395392        2.81043712740792       -0.32979773279221
H           -3.22747087411118        1.62942292536928        0.79634606380169
H           -2.13921759736483       -3.24361882327805        1.17421860562469
H           -0.96894510108107       -3.64824713857436       -0.21112165050219
H           -2.39003998060884        0.22937033111926       -1.08242700077554
H            1.74506858676207       -3.08442363444030        0.34625827265393

          :  Hamiltonian                  GFN2-xTB          :
         :: total energy             -59.746437272842 Eh    ::
         :: gradient norm              0.002445742766 Eh/a0 ::
         :: HOMO-LUMO gap              2.609637188810 eV    ::
         :: SCC energy               -42.710979303524 Eh    ::
         :: -> dispersion             -0.023011318177 Eh    ::
         :: repulsion energy           2.278186628625 Eh    ::

    * Orbital Energies and Occupations

         #    Occupation            Energy/Eh            Energy/eV
      -------------------------------------------------------------
         1        2.0000           -0.9013278             -24.5264
       ...           ...                  ...                  ...
        25        2.0000           -0.6692667             -18.2117
        26        2.0000           -0.6602405             -17.9661
        27        1.9999           -0.6513501             -17.7241
        28        1.9999           -0.6415246             -17.4568
        29        1.9998           -0.6336027             -17.2412
        30        1.9997           -0.6315360             -17.1850
        31        1.9990           -0.6103885             -16.6095
        32        1.9988           -0.6082990             -16.5527
        33        1.9973           -0.5949544             -16.1895
        34        1.9865           -0.5694949             -15.4967
        35        1.9734           -0.5587135             -15.2034
        36        1.9645           -0.5540673             -15.0769
        37        1.9221           -0.5412614             -14.7285 (HOMO)
        38        0.1093           -0.4453590             -12.1188 (LUMO)
        39        0.0386           -0.4282983             -11.6546
        40        0.0104           -0.4072325             -11.0814
        41        0.0009           -0.3684425             -10.0258
        42        0.0000           -0.3181559              -8.6575
        43                         -0.1786827              -4.8622
        44                         -0.1674330              -4.5561
        45                         -0.1271162              -3.4590
        46                         -0.0643966              -1.7523
        47                         -0.0448780              -1.2212
        48                         -0.0335810              -0.9138
       ...                                ...                  ...
        67                         10.3789377             282.4253
      -------------------------------------------------------------
                  HL-Gap            0.0959024 Eh            2.6096 eV

     #   Z          covCN         q      C6AA      α(0)
     1   6 C        3.693    -0.092    22.447     6.779
     2   7 N        2.847     0.091    19.662     6.586
     3   6 C        3.035     0.060    26.620     8.463
     4   7 N        2.809    -0.055    22.297     7.013
     5   6 C        3.021     0.141    24.904     8.186
     6   6 C        3.100     0.006    27.769     8.636
     7   6 C        2.760     0.286    22.156     7.708
     8   8 O        0.859    -0.352    20.745     6.107
     9   7 N        2.744    -0.092    23.045     7.130
    10   6 C        3.703    -0.069    21.987     6.704
    11   6 C        2.706     0.204    23.667     7.963
    12   8 O        0.865    -0.385    21.383     6.200
    13   7 N        1.825    -0.128    24.556     7.343
    14   6 C        2.791     0.040    27.090     8.526
    15   1 H        0.924     0.135     1.497     1.914
    16   1 H        0.925     0.101     1.772     2.082
    17   1 H        0.924     0.111     1.684     2.030
    18   1 H        0.926     0.125     1.576     1.963
    19   1 H        0.925     0.109     1.705     2.042
    20   1 H        0.924     0.090     1.881     2.145
    21   1 H        0.925     0.086     1.917     2.165
    22   1 H        0.926     0.116     1.649     2.008
    23   1 H        0.925     0.081     1.973     2.197
    24   1 H        0.951     0.165     1.290     1.775
    25   1 H        0.860     0.227     0.977     1.549

Wiberg/Mayer (AO) data.
largest (>0.10) Wiberg bond orders for each atom

     #   Z sym  total        # sym  WBO       # sym  WBO       # sym  WBO
 ---------------------------------------------------------------------------
     1   6 C    3.918 --     2 N    0.987    16 H    0.974    17 H    0.956
                            15 H    0.951
     2   7 N    3.716 --     3 C    1.393     6 C    1.187     1 C    0.987
     3   6 C    3.906 --     2 N    1.393     4 N    1.313    18 H    0.950
     4   7 N    3.606 --     3 C    1.313     5 C    1.160    25 H    0.920
     5   6 C    3.929 --     6 C    1.367    13 N    1.222     4 N    1.160
     6   6 C    3.894 --     5 C    1.367     2 N    1.187     7 C    1.011
     7   6 C    3.935 --     8 O    1.710     9 N    1.127     6 C    1.011
     8   8 O    2.030 --     7 C    1.710     9 N    0.127
     9   7 N    3.548 --     7 C    1.127    11 C    1.111    10 C    0.979
                            12 O    0.168     8 O    0.127
    10   6 C    3.927 --     9 N    0.979    21 H    0.971    19 H    0.970
                            20 H    0.966
    11   6 C    3.887 --    12 O    1.758     9 N    1.111    24 H    0.956
    12   8 O    2.004 --    11 C    1.758     9 N    0.168
    13   7 N    3.202 --    14 C    1.825     5 C    1.222
    14   6 C    3.841 --    13 N    1.825    22 H    0.956    23 H    0.946
    15   1 H    0.980 --     1 C    0.951
    16   1 H    0.989 --     1 C    0.974
    17   1 H    0.986 --     1 C    0.956
    18   1 H    0.984 --     3 C    0.950
    19   1 H    0.986 --    10 C    0.970
    20   1 H    0.985 --    10 C    0.966
    21   1 H    0.988 --    10 C    0.971
    22   1 H    0.981 --    14 C    0.956
    23   1 H    0.981 --    14 C    0.946
    24   1 H    0.970 --    11 C    0.956
    25   1 H    0.948 --     4 N    0.920
 ---------------------------------------------------------------------------

molecular dipole:
                 x           y           z       tot (Debye)
 q only:        1.400      -1.594       0.230
   full:        1.485      -2.086       0.031       6.509

           -------------------------------------------------
          | TOTAL ENERGY              -59.746437272842 Eh   |
          | GRADIENT NORM               0.002445742766 Eh/α |
          | HOMO-LUMO GAP               2.609637188810 eV   |
           -------------------------------------------------

 * finished run on 2024/06/05 at 19:58:09.050
