   * xtb version 6.6.1 (8d0f1dd) compiled by 'conda@1efc2f54142f' on 2023-08-01
          program call               : xtb xtbopt.xyz --opt crude --input .xc2 --gfn2

   ID    Z sym.   atoms
    1    6 C      1, 3, 5-7, 10, 11, 14
    2    7 N      2, 4, 9, 13
    3    8 O      8, 12
    4    1 H      15-25

          :  Hamiltonian                  GFN2-xTB          :
 * total energy  :   -42.1459135 Eh     change       -0.2700062E-12 Eh
   *** GEOMETRY OPTIMIZATION CONVERGED AFTER 1 ITERATIONS ***

 final structure:
================
25
 xtb: 6.6.1 (8d0f1dd)
C            3.78206726290027        0.85597590542891        0.10800116884315
N            2.81758492578334       -0.20550927481076        0.05590551571497
C            3.05313864874879       -1.49942056011414       -0.04151586876023
N            1.91255513206591       -2.19510447834790       -0.07561702862082
C            0.79868758694036       -1.32187826658364       -0.00915903705802
C            1.42623482313662        0.00183036976037        0.09000799888871
C            0.80529107591654        1.16614528347642        0.21500678030338
O            0.20913390589319        2.15232836463663        0.31456583889103
N           -3.07816451259982        1.66430861347504        0.01530702284170
C           -3.62182008601821        2.91485450245981       -0.33170510532564
C           -3.20769127558414        0.58084298540517        0.48281954989806
O           -3.12683629721966       -0.49863425848815        0.89607643366552
N           -0.43075019967410       -1.55935135323131       -0.03359800954807
C           -1.07523465338027       -2.82345597991614       -0.10184379707194
H            3.68378392476034        1.41114756533308        1.04329133757068
H            4.78626178349595        0.44208417211499        0.04320496670412
H            3.62500112554538        1.54733575723551       -0.72253923326990
H            4.03509146413108       -1.93333566339683       -0.09182089896949
H           -2.79336559985486        3.60923697505311       -0.47568319126605
H           -4.18540947890840        2.83499211303146       -1.26418795695151
H           -4.27837297399622        3.29302886101446        0.45486478088789
H           -0.49802872229749       -3.64621212140467        0.33116966020500
H           -1.30202386574476       -3.05340403276350       -1.14560215416844
H           -2.02277511510407       -2.72113354948979        0.42729578494449
H            1.84607263516561       -3.19843338827301       -0.15307294045010

          :  Hamiltonian                  GFN2-xTB          :
         :: total energy             -42.145913539726 Eh    ::
         :: gradient norm              0.001664020610 Eh/a0 ::
         :: HOMO-LUMO gap              2.301903728030 eV    ::
         :: SCC energy               -42.767247558049 Eh    ::
         :: -> dispersion             -0.018508438515 Eh    ::
         :: repulsion energy           0.621297891273 Eh    ::

    * Orbital Energies and Occupations

         #    Occupation            Energy/Eh            Energy/eV
      -------------------------------------------------------------
         1        2.0000           -0.9074669             -24.6934
       ...           ...                  ...                  ...
        25        2.0000           -0.6485652             -17.6484
        26        2.0000           -0.6413896             -17.4531
        27        2.0000           -0.6396727             -17.4064
        28        1.9999           -0.6384433             -17.3729
        29        1.9998           -0.6136308             -16.6977
        30        1.9997           -0.6109266             -16.6242
        31        1.9997           -0.6098816             -16.5957
        32        1.9995           -0.6034420             -16.4205
        33        1.9990           -0.5919889             -16.1088
        34        1.9414           -0.5267478             -14.3335
        35        1.9290           -0.5235930             -14.2477
        36        1.9199           -0.5216215             -14.1940
        37        1.8952           -0.5171538             -14.0725 (HOMO)
        38        0.1592           -0.4325604             -11.7706 (LUMO)
        39        0.1549           -0.4320888             -11.7577
        40        0.0030           -0.3681491             -10.0178
        41        0.0000           -0.2920139              -7.9461
        42        0.0000           -0.2855858              -7.7712
        43        0.0000           -0.2712860              -7.3821
        44                         -0.1783466              -4.8531
        45                         -0.1462790              -3.9805
        46                         -0.0854139              -2.3242
        47                         -0.0585197              -1.5924
        48                         -0.0462188              -1.2577
       ...                                ...                  ...
        67                          1.2336376              33.5690
      -------------------------------------------------------------
                  HL-Gap            0.0845934 Eh            2.3019 eV

     #   Z          covCN         q      C6AA      α(0)
     1   6 C        3.691    -0.084    22.291     6.756
     2   7 N        2.800     0.059    20.217     6.678
     3   6 C        2.956     0.079    26.234     8.401
     4   7 N        2.770    -0.092    23.026     7.127
     5   6 C        2.921     0.154    24.664     8.144
     6   6 C        3.039    -0.021    28.497     8.756
     7   6 C        1.844     0.251    25.351     8.134
     8   8 O        0.856    -0.122    16.838     5.502
     9   7 N        1.820    -0.147    24.957     7.402
    10   6 C        3.685    -0.032    21.342     6.614
    11   6 C        1.770     0.310    24.261     7.963
    12   8 O        0.856    -0.258    19.046     5.851
    13   7 N        1.824    -0.202    26.200     7.585
    14   6 C        3.697    -0.040    21.459     6.626
    15   1 H        0.924     0.101     1.774     2.083
    16   1 H        0.925     0.102     1.764     2.077
    17   1 H        0.924     0.101     1.778     2.085
    18   1 H        0.926     0.113     1.668     2.019
    19   1 H        0.924     0.095     1.835     2.118
    20   1 H        0.924     0.088     1.896     2.153
    21   1 H        0.924     0.085     1.927     2.171
    22   1 H        0.924     0.046     2.367     2.406
    23   1 H        0.924     0.084     1.938     2.177
    24   1 H        0.925     0.110     1.698     2.038
    25   1 H        0.860     0.218     1.019     1.581

Wiberg/Mayer (AO) data.
largest (>0.10) Wiberg bond orders for each atom

     #   Z sym  total        # sym  WBO       # sym  WBO       # sym  WBO
 ---------------------------------------------------------------------------
     1   6 C    3.935 --     2 N    0.994    16 H    0.974    17 H    0.963
                            15 H    0.963
     2   7 N    3.618 --     3 C    1.401     6 C    1.042     1 C    0.994
                             4 N    0.113
     3   6 C    3.841 --     2 N    1.401     4 N    1.320    18 H    0.949
     4   7 N    3.534 --     3 C    1.320     5 C    1.026    25 H    0.923
                             2 N    0.113
     5   6 C    3.928 --    13 N    1.717     6 C    1.035     4 N    1.026
     6   6 C    3.870 --     7 C    1.483     2 N    1.042     5 C    1.035
                             8 O    0.152
     7   6 C    3.703 --     8 O    2.078     6 C    1.483
     8   8 O    2.353 --     7 C    2.078     6 C    0.152
     9   7 N    3.358 --    11 C    1.984    10 C    1.022    12 O    0.351
    10   6 C    3.924 --     9 N    1.022    19 H    0.960    21 H    0.953
                            20 H    0.951
    11   6 C    3.936 --     9 N    1.984    12 O    1.884
    12   8 O    2.277 --    11 C    1.884     9 N    0.351
    13   7 N    3.031 --     5 C    1.717    14 C    1.037
    14   6 C    3.942 --    13 N    1.037    22 H    0.962    24 H    0.951
                            23 H    0.943
    15   1 H    0.987 --     1 C    0.963
    16   1 H    0.989 --     1 C    0.974
    17   1 H    0.987 --     1 C    0.963
    18   1 H    0.984 --     3 C    0.949
    19   1 H    0.980 --    10 C    0.960
    20   1 H    0.976 --    10 C    0.951
    21   1 H    0.977 --    10 C    0.953
    22   1 H    0.980 --    14 C    0.962
    23   1 H    0.979 --    14 C    0.943
    24   1 H    0.973 --    14 C    0.951
    25   1 H    0.950 --     4 N    0.923
 ---------------------------------------------------------------------------

molecular dipole:
                 x           y           z       tot (Debye)
 q only:        2.702      -0.377      -0.399
   full:        2.981      -0.783      -0.420       7.905

           -------------------------------------------------
          | TOTAL ENERGY              -42.145913539726 Eh   |
          | GRADIENT NORM               0.001664020610 Eh/α |
          | HOMO-LUMO GAP               2.301903728030 eV   |
           -------------------------------------------------

 * finished run on 2024/06/05 at 19:58:02.023
