   * xtb version 6.6.1 (8d0f1dd) compiled by 'conda@1efc2f54142f' on 2023-08-01
          program call               : xtb xtbopt.xyz --opt crude --input .xc2 --gfn2

   ID    Z sym.   atoms
    1    6 C      1, 3, 5-7, 10, 11, 14
    2    7 N      2, 4, 9, 13
    3    8 O      8, 12
    4    1 H      15-25
########################################################################
[WARNING] Please study the warnings concerning your input carefully
-1- readin_getIntValue: could not parse ''
########################################################################

          :  Hamiltonian                  GFN2-xTB          :
 * total energy  :   -42.1096853 Eh     change       -0.2415845E-12 Eh
   *** GEOMETRY OPTIMIZATION CONVERGED AFTER 1 ITERATIONS ***

 final structure:
================
25
 xtb: 6.6.1 (8d0f1dd)
C            2.65765474602136        1.32557413486543       -0.01327991400079
N            1.90787592696482        0.09997238302527        0.00749183137061
C            2.38965579419257       -1.13427946535914       -0.13088041733779
N            1.37652300293799       -2.01092075946095       -0.01745739317326
C            0.21741181428636       -1.29030164826814        0.19412662070083
C            0.55673875115356        0.03879355332020        0.19980669313662
C           -0.26742935992518        1.30621837864971        0.45632700850489
O           -0.29483585966210        1.72020726282911        1.61298957598382
N           -0.78528910349410        1.76574015602819       -0.64502480328968
C           -1.52801400668943        2.97508563053311       -0.70271835121894
C           -1.73561514716170       -1.54135560129269        1.43130869977391
O           -2.34546280094895       -1.15076155798732        2.33276743220231
N           -1.02343158215678       -1.91710687259125        0.44165939881509
C           -1.45962707995561       -2.99601000106536       -0.46097945523459
H            2.45185370794321        1.89101053439515        0.89760097719374
H            3.72095819412414        1.10891131513202       -0.07783247379925
H            2.35264514606745        1.93405528931830       -0.86605654596284
H            3.41538586331510       -1.39141843892245       -0.30450388711673
H           -0.97105208782376        3.81127014651781       -0.26640389735837
H           -1.73862855306892        3.18511149282449       -1.75141984294466
H           -2.47520034994227        2.88461254874780       -0.15980481669395
H           -1.00403568368384       -3.94466570812963       -0.17416492510853
H           -1.17879241464206       -2.73836027093404       -1.48066275239985
H           -2.54095184105992       -3.09886789007685       -0.40651860220382
H            1.46209443730796       -3.01427607049810       -0.08519854193926

          :  Hamiltonian                  GFN2-xTB          :
         :: total energy             -42.109685267882 Eh    ::
         :: gradient norm              0.002728264415 Eh/a0 ::
         :: HOMO-LUMO gap              1.296528100173 eV    ::
         :: SCC energy               -42.654558336983 Eh    ::
         :: -> dispersion             -0.021496163593 Eh    ::
         :: repulsion energy           0.544654581896 Eh    ::

    * Orbital Energies and Occupations

         #    Occupation            Energy/Eh            Energy/eV
      -------------------------------------------------------------
         1        2.0000           -0.9299887             -25.3063
       ...           ...                  ...                  ...
        25        2.0000           -0.6573924             -17.8886
        26        2.0000           -0.6475801             -17.6216
        27        2.0000           -0.6412878             -17.4503
        28        2.0000           -0.6356676             -17.2974
        29        1.9999           -0.6305947             -17.1594
        30        1.9999           -0.6233175             -16.9613
        31        1.9998           -0.6096034             -16.5882
        32        1.9992           -0.5899990             -16.0547
        33        1.9991           -0.5870598             -15.9747
        34        1.9985           -0.5788114             -15.7503
        35        1.9531           -0.5243812             -14.2691
        36        1.7553           -0.4965240             -13.5111
        37        1.7070           -0.4932350             -13.4216 (HOMO)
        38        0.4466           -0.4455885             -12.1251 (LUMO)
        39        0.1085           -0.4200613             -11.4304
        40        0.0298           -0.3989560             -10.8561
        41        0.0033           -0.3638884              -9.9019
        42        0.0002           -0.3193411              -8.6897
        43        0.0000           -0.2313617              -6.2957
        44                         -0.1885410              -5.1305
        45                         -0.1373059              -3.7363
        46                         -0.0781714              -2.1272
        47                         -0.0507130              -1.3800
        48                         -0.0453341              -1.2336
       ...                                ...                  ...
        67                          0.9183343              24.9891
      -------------------------------------------------------------
                  HL-Gap            0.0476465 Eh            1.2965 eV

     #   Z          covCN         q      C6AA      α(0)
     1   6 C        3.693    -0.086    22.322     6.760
     2   7 N        2.862     0.083    19.807     6.610
     3   6 C        3.032     0.048    26.901     8.507
     4   7 N        2.799    -0.059    22.381     7.026
     5   6 C        3.064     0.081    26.125     8.382
     6   6 C        3.090     0.010    27.692     8.626
     7   6 C        2.760     0.275    22.354     7.743
     8   8 O        0.858    -0.420    22.081     6.300
     9   7 N        1.834    -0.267    27.779     7.810
    10   6 C        3.699    -0.021    21.109     6.571
    11   6 C        1.823     0.284    24.699     8.030
    12   8 O        0.856    -0.101    16.526     5.450
    13   7 N        2.727     0.020    20.901     6.790
    14   6 C        3.701    -0.081    22.210     6.739
    15   1 H        0.924     0.122     1.596     1.976
    16   1 H        0.925     0.101     1.776     2.084
    17   1 H        0.924     0.114     1.660     2.015
    18   1 H        0.926     0.123     1.590     1.972
    19   1 H        0.924     0.077     2.013     2.219
    20   1 H        0.925     0.079     1.994     2.208
    21   1 H        0.924     0.077     2.008     2.216
    22   1 H        0.924     0.097     1.814     2.106
    23   1 H        0.925     0.108     1.716     2.048
    24   1 H        0.925     0.111     1.690     2.033
    25   1 H        0.860     0.225     0.987     1.556

Wiberg/Mayer (AO) data.
largest (>0.10) Wiberg bond orders for each atom

     #   Z sym  total        # sym  WBO       # sym  WBO       # sym  WBO
 ---------------------------------------------------------------------------
     1   6 C    3.924 --     2 N    0.988    16 H    0.975    17 H    0.957
                            15 H    0.957
     2   7 N    3.689 --     3 C    1.353     6 C    1.207     1 C    0.988
     3   6 C    3.824 --     2 N    1.353     4 N    1.299    18 H    0.952
     4   7 N    3.555 --     3 C    1.299     5 C    1.156    25 H    0.921
     5   6 C    3.853 --     6 C    1.495     4 N    1.156    13 N    0.990
     6   6 C    3.887 --     5 C    1.495     2 N    1.207     7 C    0.888
     7   6 C    3.930 --     8 O    1.547     9 N    1.435     6 C    0.888
     8   8 O    1.832 --     7 C    1.547     9 N    0.177
     9   7 N    2.711 --     7 C    1.435    10 C    1.053     8 O    0.177
    10   6 C    3.910 --     9 N    1.053    20 H    0.957    19 H    0.936
                            21 H    0.933
    11   6 C    3.548 --    12 O    2.048    13 N    1.421
    12   8 O    2.292 --    11 C    2.048    13 N    0.184
    13   7 N    3.574 --    11 C    1.421     5 C    0.990    14 C    0.922
                            12 O    0.184
    14   6 C    3.884 --    24 H    0.973    23 H    0.972    22 H    0.971
                            13 N    0.922
    15   1 H    0.983 --     1 C    0.957
    16   1 H    0.989 --     1 C    0.975
    17   1 H    0.985 --     1 C    0.957
    18   1 H    0.984 --     3 C    0.952
    19   1 H    0.949 --    10 C    0.936
    20   1 H    0.967 --    10 C    0.957
    21   1 H    0.949 --    10 C    0.933
    22   1 H    0.990 --    14 C    0.971
    23   1 H    0.987 --    14 C    0.972
    24   1 H    0.987 --    14 C    0.973
    25   1 H    0.948 --     4 N    0.921
 ---------------------------------------------------------------------------

molecular dipole:
                 x           y           z       tot (Debye)
 q only:        1.706      -3.211      -1.093
   full:        1.827      -3.488      -1.056      10.361

           -------------------------------------------------
          | TOTAL ENERGY              -42.109685267882 Eh   |
          | GRADIENT NORM               0.002728264415 Eh/α |
          | HOMO-LUMO GAP               1.296528100173 eV   |
           -------------------------------------------------

 * finished run on 2024/06/05 at 19:59:18.846
