   * xtb version 6.6.1 (8d0f1dd) compiled by 'conda@1efc2f54142f' on 2023-08-01
          program call               : xtb struc.xyz --opt loose --input .xc1 --gfn2

   ID    Z sym.   atoms
    1    6 C      1, 3, 5-7, 10, 11, 14
    2    7 N      2, 4, 9, 13
    3    8 O      8, 12
    4    1 H      15-25
constraining bond 7 21 to    3.7133300 Å, actual value:    3.1541658 Å

          :  Hamiltonian                  GFN2-xTB          :
 * total energy  :   -42.8035561 Eh     change       -0.6633627E-10 Eh
 * total energy  :   -45.0627707 Eh     change       -0.2259215E+01 Eh
 * total energy  :   -48.9637016 Eh     change       -0.3900931E+01 Eh
 * total energy  :   -54.7135213 Eh     change       -0.5749820E+01 Eh
 * total energy  :   -57.4006046 Eh     change       -0.2687083E+01 Eh
 * total energy  :   -57.9689494 Eh     change       -0.5683448E+00 Eh
 * total energy  :   -58.7734906 Eh     change       -0.8045412E+00 Eh
 * total energy  :   -58.0825226 Eh     change        0.6909680E+00 Eh
 * total energy  :   -59.2480493 Eh     change       -0.1165527E+01 Eh
 * total energy  :   -59.3425467 Eh     change       -0.9449749E-01 Eh
 * total energy  :   -59.7265777 Eh     change       -0.1568422E-03 Eh
 * total energy  :   -59.7267596 Eh     change       -0.1819486E-03 Eh
 * total energy  :   -59.7269060 Eh     change       -0.1463411E-03 Eh
 * total energy  :   -59.7270718 Eh     change       -0.1658483E-03 Eh
 * total energy  :   -59.7271609 Eh     change       -0.8910439E-04 Eh
 * total energy  :   -59.7272118 Eh     change       -0.5083715E-04 Eh
 * total energy  :   -59.7272431 Eh     change       -0.3138619E-04 Eh
 * total energy  :   -59.7272666 Eh     change       -0.2347271E-04 Eh
 * total energy  :   -59.7272843 Eh     change       -0.1773584E-04 Eh
   *** GEOMETRY OPTIMIZATION CONVERGED AFTER 43 ITERATIONS ***

 final structure:
================
25
 xtb: 6.6.1 (8d0f1dd)
C            3.13372091302852        1.17353310391689        0.25720639717745
N            2.14136679162353        0.14121094679155        0.11124981837996
C            2.36310363334263       -1.11212061805135       -0.25006526788581
N            1.19410108208932       -1.77142204458314       -0.28229341651979
C            0.19692963444826       -0.90112887581112        0.07384889142822
C            0.80286849298559        0.30653965653571        0.34013517628065
C            0.10223649118856        1.64527709733779        0.81086368034793
O            0.47277038865066        2.64065467817892        0.16089922799369
N           -1.61389760834035        1.03084283883118       -0.11937045914118
C           -2.21144477093378        1.95005448368432       -0.73908329646252
C           -2.13237973316474       -0.28820214531144       -0.02841240629672
O           -3.29698801912328       -0.55422964665109       -0.04677462880317
N           -1.13339177402235       -1.23643031374571        0.09524911250671
C           -1.51538608630823       -2.63798736620713        0.14049953452435
H            3.48766582027292        1.21432510604173        1.28894503044849
H            3.97650723785255        0.97393023487238       -0.40161227958404
H            2.68574436252224        2.13466798611148        0.00224817512582
H            3.31794579272333       -1.53928869008612       -0.48260843432016
H           -1.73496318022827        2.92528119264238       -0.74269352034240
H           -3.14726536495831        1.80340838124799       -1.27015635619470
H           -0.11140072253620        1.62089430106569        1.17668120622747
H           -0.98338243195765       -3.14519248568950        0.94494053559599
H           -1.32415169531440       -3.13273169331437       -0.81376603264178
H           -2.58501376657891       -2.68157456006677        0.34039056088851
H            1.07513602683996       -2.74207302614012       -0.53514963083331

          :  Hamiltonian                  GFN2-xTB          :
         :: total energy             -59.727284348569 Eh    ::
         :: gradient norm              0.003317512775 Eh/a0 ::
         :: HOMO-LUMO gap              2.311247175223 eV    ::
         :: SCC energy               -42.686988816844 Eh    ::
         :: -> dispersion             -0.023114214047 Eh    ::
         :: repulsion energy           2.274532967703 Eh    ::

    * Orbital Energies and Occupations

         #    Occupation            Energy/Eh            Energy/eV
      -------------------------------------------------------------
         1        2.0000           -0.9083828             -24.7184
       ...           ...                  ...                  ...
        25        2.0000           -0.6725655             -18.3014
        26        2.0000           -0.6652804             -18.1032
        27        2.0000           -0.6573735             -17.8880
        28        2.0000           -0.6388218             -17.3832
        29        2.0000           -0.6343810             -17.2624
        30        2.0000           -0.6315661             -17.1858
        31        2.0000           -0.6240009             -16.9799
        32        2.0000           -0.6153798             -16.7453
        33        2.0000           -0.6108871             -16.6231
        34        2.0000           -0.5903931             -16.0654
        35        1.9997           -0.5615527             -15.2806
        36        1.9977           -0.5445126             -14.8169
        37        1.9918           -0.5345926             -14.5470 (HOMO)
        38        0.0106           -0.4496558             -12.2358 (LUMO)
        39        0.0002           -0.4178664             -11.3707
        40        0.0000           -0.4045102             -11.0073
        41                         -0.3539843              -9.6324
        42                         -0.3282319              -8.9316
        43                         -0.1923734              -5.2347
        44                         -0.1861013              -5.0641
        45                         -0.1565925              -4.2611
        46                         -0.1033165              -2.8114
        47                         -0.0685104              -1.8643
        48                         -0.0524536              -1.4273
       ...                                ...                  ...
        67                         10.5194934             286.2500
      -------------------------------------------------------------
                  HL-Gap            0.0849368 Eh            2.3112 eV

     #   Z          covCN         q      C6AA      α(0)
     1   6 C        3.693    -0.094    22.484     6.784
     2   7 N        2.859     0.092    19.654     6.584
     3   6 C        3.049     0.050    26.831     8.495
     4   7 N        2.814    -0.056    22.328     7.018
     5   6 C        3.037     0.106    25.631     8.304
     6   6 C        3.095    -0.027    28.555     8.758
     7   6 C        3.021     0.156    24.597     8.135
     8   8 O        0.863    -0.391    21.506     6.218
     9   7 N        2.095    -0.160    25.100     7.433
    10   6 C        2.792     0.069    26.432     8.422
    11   6 C        2.730     0.335    21.315     7.558
    12   8 O        0.858    -0.338    20.477     6.067
    13   7 N        2.739    -0.062    22.442     7.036
    14   6 C        3.701    -0.072    22.042     6.714
    15   1 H        0.924     0.108     1.713     2.047
    16   1 H        0.925     0.102     1.768     2.079
    17   1 H        0.924     0.137     1.484     1.905
    18   1 H        0.926     0.123     1.590     1.972
    19   1 H        0.925     0.140     1.463     1.891
    20   1 H        0.925     0.115     1.651     2.010
    21   1 H        0.939     0.162     1.311     1.790
    22   1 H        0.925     0.079     1.985     2.203
    23   1 H        0.924     0.076     2.020     2.223
    24   1 H        0.925     0.121     1.605     1.981
    25   1 H        0.860     0.229     0.968     1.541

Wiberg/Mayer (AO) data.
largest (>0.10) Wiberg bond orders for each atom

     #   Z sym  total        # sym  WBO       # sym  WBO       # sym  WBO
 ---------------------------------------------------------------------------
     1   6 C    3.919 --     2 N    0.985    16 H    0.971    17 H    0.957
                            15 H    0.955
     2   7 N    3.733 --     3 C    1.398     6 C    1.205     1 C    0.985
     3   6 C    3.931 --     2 N    1.398     4 N    1.307    18 H    0.952
     4   7 N    3.620 --     3 C    1.307     5 C    1.184    25 H    0.916
     5   6 C    3.948 --     6 C    1.450     4 N    1.184    13 N    1.123
     6   6 C    3.918 --     5 C    1.450     2 N    1.205     7 C    0.907
     7   6 C    3.929 --     8 O    1.742    21 H    0.958     6 C    0.907
                             9 N    0.250
     8   8 O    2.034 --     7 C    1.742     9 N    0.120
     9   7 N    3.383 --    10 C    1.886    11 C    0.991     7 C    0.250
                             8 O    0.120
    10   6 C    3.871 --     9 N    1.886    20 H    0.944    19 H    0.944
    11   6 C    3.956 --    12 O    1.753    13 N    1.118     9 N    0.991
    12   8 O    2.109 --    11 C    1.753    13 N    0.156
    13   7 N    3.542 --     5 C    1.123    11 C    1.118    14 C    0.974
                            12 O    0.156
    14   6 C    3.933 --    22 H    0.975    13 N    0.974    23 H    0.971
                            24 H    0.966
    15   1 H    0.988 --     1 C    0.955
    16   1 H    0.989 --     1 C    0.971
    17   1 H    0.981 --     1 C    0.957
    18   1 H    0.984 --     3 C    0.952
    19   1 H    0.979 --    10 C    0.944
    20   1 H    0.985 --    10 C    0.944
    21   1 H    0.973 --     7 C    0.958
    22   1 H    0.992 --    14 C    0.975
    23   1 H    0.994 --    14 C    0.971
    24   1 H    0.985 --    14 C    0.966
    25   1 H    0.947 --     4 N    0.916
 ---------------------------------------------------------------------------

molecular dipole:
                 x           y           z       tot (Debye)
 q only:        2.185      -1.576      -0.148
   full:        2.194      -1.967      -0.298       7.528

           -------------------------------------------------
          | TOTAL ENERGY              -59.727284348569 Eh   |
          | GRADIENT NORM               0.003317512775 Eh/α |
          | HOMO-LUMO GAP               2.311247175223 eV   |
           -------------------------------------------------

 * finished run on 2024/06/05 at 19:58:14.657
