   * xtb version 6.6.1 (8d0f1dd) compiled by 'conda@1efc2f54142f' on 2023-08-01
          program call               : xtb xtbopt.xyz --opt crude --input .xc2 --gfn2

   ID    Z sym.   atoms
    1    6 C      1, 3, 5-7, 10, 11, 14
    2    7 N      2, 4, 9, 13
    3    8 O      8, 12
    4    1 H      15-25
########################################################################
[WARNING] Please study the warnings concerning your input carefully
-1- readin_getIntValue: could not parse ''
########################################################################

          :  Hamiltonian                  GFN2-xTB          :
 * total energy  :   -40.4122802 Eh     change       -0.1421085E-13 Eh
 * total energy  :   -42.1104152 Eh     change       -0.1698135E+01 Eh
 * total energy  :   -42.1367024 Eh     change       -0.2628717E-01 Eh
 * total energy  :   -42.1427081 Eh     change       -0.6005694E-02 Eh
 * total energy  :   -42.1450711 Eh     change       -0.2363025E-02 Eh
 * total energy  :   -42.1454519 Eh     change       -0.3808221E-03 Eh
 * total energy  :   -42.1460714 Eh     change       -0.6195219E-03 Eh
 * total energy  :   -42.1469772 Eh     change       -0.9057421E-03 Eh
 * total energy  :   -42.1473316 Eh     change       -0.3544241E-03 Eh
 * total energy  :   -42.1474990 Eh     change       -0.1673783E-03 Eh
   *** GEOMETRY OPTIMIZATION CONVERGED AFTER 10 ITERATIONS ***

 final structure:
================
25
 xtb: 6.6.1 (8d0f1dd)
C            3.13967063404445        1.17992115288564        0.20227653710459
N            2.15149694746558        0.13956809490843        0.09067366245888
C            2.38408946994432       -1.12762931457865       -0.21743583674787
N            1.21753397652906       -1.79220749634131       -0.24830560092684
C            0.21087969237317       -0.91421854853086        0.05665670934868
C            0.80992256826370        0.30591247632469        0.28667892169312
C            0.14987142971864        1.60706366288024        0.65796061612355
O            0.44164418616898        2.65465371050071        0.12663961749115
N           -1.56742348526877        1.03321991679984       -0.18877989616993
C           -2.20738268200333        1.97650560849404       -0.72839396822925
C           -2.10641898581752       -0.27469049398401       -0.07772605629661
O           -3.27379178278237       -0.53128449909921       -0.09904185347506
N           -1.12091950812022       -1.23642157206510        0.06076835386102
C           -1.51982536630831       -2.63288925296798        0.12393073921014
H            3.47953314321873        1.27300210121156        1.23524590164004
H            3.99130712038935        0.94990522043341       -0.43399536652952
H            2.69368613800694        2.12740250575844       -0.10111147011301
H            3.34619671683398       -1.56111423381704       -0.40959760774012
H           -1.71548103889292        2.94288095090491       -0.76536183757806
H           -3.19698798244309        1.85557726596768       -1.15893526187155
H           -0.33676759474982        1.55720758034265        1.64851085057791
H           -1.00841483587998       -3.13309494905435        0.94562824878123
H           -1.31645230416484       -3.14458648708648       -0.81868241288539
H           -2.59364466574284       -2.66211039189709        0.30344694705358
H            1.10810972331873       -2.77433446638992       -0.45987831888094

          :  Hamiltonian                  GFN2-xTB          :
         :: total energy             -42.147498966459 Eh    ::
         :: gradient norm              0.003809433262 Eh/a0 ::
         :: HOMO-LUMO gap              2.178285081362 eV    ::
         :: SCC energy               -42.682807712327 Eh    ::
         :: -> dispersion             -0.023182128048 Eh    ::
         :: repulsion energy           0.535133147558 Eh    ::

    * Orbital Energies and Occupations

         #    Occupation            Energy/Eh            Energy/eV
      -------------------------------------------------------------
         1        2.0000           -0.9110355             -24.7905
       ...           ...                  ...                  ...
        25        2.0000           -0.6721142             -18.2892
        26        2.0000           -0.6654372             -18.1075
        27        2.0000           -0.6536633             -17.7871
        28        2.0000           -0.6374122             -17.3449
        29        2.0000           -0.6361850             -17.3115
        30        2.0000           -0.6254175             -17.0185
        31        2.0000           -0.6239777             -16.9793
        32        2.0000           -0.6168633             -16.7857
        33        2.0000           -0.6122733             -16.6608
        34        2.0000           -0.5886730             -16.0186
        35        1.9997           -0.5593307             -15.2202
        36        1.9982           -0.5444752             -14.8159
        37        1.9882           -0.5293940             -14.4055 (HOMO)
        38        0.0136           -0.4493435             -12.2273 (LUMO)
        39        0.0003           -0.4190036             -11.4017
        40        0.0000           -0.3966751             -10.7941
        41                         -0.3383785              -9.2077
        42                         -0.3267554              -8.8915
        43                         -0.1904079              -5.1813
        44                         -0.1857537              -5.0546
        45                         -0.1408192              -3.8319
        46                         -0.0814033              -2.2151
        47                         -0.0679453              -1.8489
        48                         -0.0467970              -1.2734
       ...                                ...                  ...
        67                          0.5530903              15.0504
      -------------------------------------------------------------
                  HL-Gap            0.0800505 Eh            2.1783 eV

     #   Z          covCN         q      C6AA      α(0)
     1   6 C        3.693    -0.093    22.469     6.782
     2   7 N        2.856     0.091    19.668     6.587
     3   6 C        3.050     0.049    26.851     8.498
     4   7 N        2.813    -0.054    22.284     7.011
     5   6 C        3.036     0.106    25.615     8.301
     6   6 C        3.105    -0.006    28.035     8.676
     7   6 C        3.109     0.210    23.445     7.933
     8   8 O        0.856    -0.374    21.165     6.168
     9   7 N        2.181    -0.156    24.860     7.399
    10   6 C        2.793     0.068    26.457     8.426
    11   6 C        2.731     0.335    21.311     7.558
    12   8 O        0.858    -0.337    20.470     6.066
    13   7 N        2.739    -0.060    22.397     7.029
    14   6 C        3.700    -0.072    22.054     6.716
    15   1 H        0.924     0.109     1.702     2.040
    16   1 H        0.925     0.103     1.755     2.072
    17   1 H        0.924     0.136     1.491     1.910
    18   1 H        0.926     0.125     1.575     1.963
    19   1 H        0.925     0.141     1.452     1.885
    20   1 H        0.925     0.118     1.632     1.997
    21   1 H        0.922     0.051     2.309     2.377
    22   1 H        0.925     0.080     1.981     2.201
    23   1 H        0.924     0.078     2.004     2.214
    24   1 H        0.925     0.122     1.596     1.975
    25   1 H        0.860     0.231     0.961     1.536

Wiberg/Mayer (AO) data.
largest (>0.10) Wiberg bond orders for each atom

     #   Z sym  total        # sym  WBO       # sym  WBO       # sym  WBO
 ---------------------------------------------------------------------------
     1   6 C    3.918 --     2 N    0.984    16 H    0.971    17 H    0.958
                            15 H    0.955
     2   7 N    3.732 --     3 C    1.394     6 C    1.204     1 C    0.984
     3   6 C    3.928 --     2 N    1.394     4 N    1.306    18 H    0.952
     4   7 N    3.620 --     3 C    1.306     5 C    1.188    25 H    0.916
     5   6 C    3.950 --     6 C    1.437     4 N    1.188    13 N    1.130
     6   6 C    3.935 --     5 C    1.437     2 N    1.204     7 C    0.960
     7   6 C    3.948 --     8 O    1.742     6 C    0.960    21 H    0.912
                             9 N    0.268
     8   8 O    2.048 --     7 C    1.742     9 N    0.124
     9   7 N    3.395 --    10 C    1.871    11 C    0.993     7 C    0.268
                             8 O    0.124
    10   6 C    3.866 --     9 N    1.871    20 H    0.944    19 H    0.943
    11   6 C    3.955 --    12 O    1.753    13 N    1.115     9 N    0.993
    12   8 O    2.106 --    11 C    1.753    13 N    0.156
    13   7 N    3.547 --     5 C    1.130    11 C    1.115    14 C    0.973
                            12 O    0.156
    14   6 C    3.932 --    22 H    0.975    13 N    0.973    23 H    0.971
                            24 H    0.966
    15   1 H    0.988 --     1 C    0.955
    16   1 H    0.989 --     1 C    0.971
    17   1 H    0.981 --     1 C    0.958
    18   1 H    0.984 --     3 C    0.952
    19   1 H    0.979 --    10 C    0.943
    20   1 H    0.984 --    10 C    0.944
    21   1 H    0.994 --     7 C    0.912
    22   1 H    0.992 --    14 C    0.975
    23   1 H    0.994 --    14 C    0.971
    24   1 H    0.985 --    14 C    0.966
    25   1 H    0.946 --     4 N    0.916
 ---------------------------------------------------------------------------

molecular dipole:
                 x           y           z       tot (Debye)
 q only:        2.278      -1.700      -0.247
   full:        2.258      -2.110      -0.278       7.886

           -------------------------------------------------
          | TOTAL ENERGY              -42.147498966459 Eh   |
          | GRADIENT NORM               0.003809433262 Eh/α |
          | HOMO-LUMO GAP               2.178285081362 eV   |
           -------------------------------------------------

 * finished run on 2024/06/05 at 19:58:15.116
