   * xtb version 6.6.1 (8d0f1dd) compiled by 'conda@1efc2f54142f' on 2023-08-01
          program call               : xtb xtbopt.xyz --opt crude --input .xc2 --gfn2

   ID    Z sym.   atoms
    1    7 N      1, 17
    2    6 C      2-6, 8, 9, 11-16, 18-23, 25, 26, 28-33
    3    8 O      7, 10, 24, 27
    4    1 H      34-72

          :  Hamiltonian                  GFN2-xTB          :
 * total energy  :   -99.3636415 Eh     change       -0.1747935E-11 Eh
   *** GEOMETRY OPTIMIZATION CONVERGED AFTER 1 ITERATIONS ***

 final structure:
================
72
 xtb: 6.6.1 (8d0f1dd)
N           -1.63323997478539        2.59609186143516        2.29077318094655
C           -2.26333336260061        2.27451512091798        1.39222975746534
C           -3.11931757579607        1.94875381444362        0.27787863038954
C           -3.54127784113663        0.48872612556958        0.33531077667146
C           -4.47391511662820        0.00596012362668       -0.58500476830113
C           -4.90975525691260       -1.30749209311932       -0.54454787180191
O           -5.81814457844908       -1.85193606576288       -1.37869750296961
C           -6.48063425193091       -1.02688798206516       -2.30829111775075
C           -4.38584509710036       -2.18828002696559        0.44192986369518
O           -4.87606003261198       -3.44252454201611        0.41220802811959
C           -4.48587908934840       -4.35766630421576        1.40974787361078
C           -3.44051590815710       -1.70593692998386        1.33323032719735
C           -3.02335740539075       -0.38109423151672        1.28128241393941
C           -2.40796378927490        2.27275616160409       -1.06295823917569
C           -1.50222690851173        1.15562558772622       -1.60770040670527
C           -0.16936666460420        1.10839396418136       -0.97349721147920
N            0.47835636323172        0.01402592413220       -0.62060770840434
C            1.86747936995845        0.07301056048960       -0.22838665032730
C            2.81145924812586       -0.36526072612147       -1.36587264492495
C            4.23713438782664       -0.16148524144294       -0.93297413251155
C            4.86865331754705        1.05482899410472       -1.14137931861353
C            6.16861948669142        1.26436001289969       -0.70924407727956
C            6.86410128822575        0.25961591391839       -0.05100247958689
O            8.12278239500425        0.34825263847245        0.41263967158461
C            8.84951083452618        1.53959527743690        0.21560971380115
C            6.22272863396496       -0.99165027267728        0.17173978933571
O            6.96953541083367       -1.90711674716090        0.81721595752843
C            6.43156545777060       -3.18166810176525        1.07738587766069
C            4.92206784880790       -1.17742539500255       -0.27094499220554
C           -0.11526976092109       -1.29749930859366       -0.72230384437922
C           -4.38336803008298        2.86150029663108        0.44003510139859
C           -5.11075528867550        2.54414764425893        1.74544933784280
C           -4.03280818562456        4.34710794363271        0.38732863865718
H           -4.87147045767372        0.67097813928283       -1.33388230886596
H           -7.00663268400125       -0.20615177357097       -1.81131162270513
H           -7.20469568175552       -1.66941834790906       -2.80495660006693
H           -5.78808110839687       -0.62208594319021       -3.05350298567091
H           -4.72685224972260       -3.98687814828291        2.41034667340634
H           -5.05643950636616       -5.26321620610747        1.21319104548630
H           -3.41649041111921       -4.58402033203063        1.35122062715054
H           -3.02848188295594       -2.35149131830039        2.09173494309975
H           -2.30142181066238       -0.03189147408509        2.00386984274228
H           -3.18092023722912        2.46796021003746       -1.80679457325764
H           -1.82133174375096        3.18418470957674       -0.94319000743851
H           -2.01693379945447        0.19766487702385       -1.55113552656701
H           -1.33975888099244        1.37788588960934       -2.67130384077900
H            0.86021274417562        2.04096013176355        1.50109908493239
H            0.35151755941958        2.04531730926977       -0.84945330594085
H            2.02225761954733       -0.57039702167509        0.64145641020784
H            2.12189967705534        1.09636580952493        0.05436266558670
H            2.60239899841036        0.23874738969242       -2.25054356425615
H            2.63718621818580       -1.41326331105738       -1.61200045118663
H            4.35142759449268        1.85075745541766       -1.65530442009286
H            6.63470992492579        2.21874588332461       -0.89086111645965
H            8.37870379354845        2.38504263118404        0.72633584900797
H            8.95999116644732        1.76967622869409       -0.84815797792130
H            9.83085360803182        1.35749688674953        0.64947624984720
H            7.22098018163606       -3.73354951379156        1.58402948621096
H            5.55613978541707       -3.12084610070730        1.73187245882037
H            6.16355666112069       -3.70116063183400        0.15224391569168
H            4.43090177383353       -2.12501145354200       -0.11406360617847
H           -0.23592781572208       -1.59895611498192       -1.76544511931164
H           -1.09337748471958       -1.31089188084970       -0.23706622215117
H            0.52568607577469       -2.02066024615878       -0.22432233821661
H           -5.05660017601242        2.63679683003473       -0.39310616022814
H           -4.48915123405592        2.79534622629629        2.60180901411217
H           -5.37190871940234        1.48965243307011        1.80577962351154
H           -6.02635407629545        3.12646457392027        1.80693939534882
H           -3.29186325236783        4.59770373401821        1.14387057690204
H           -3.65142459815242        4.63983007139704       -0.58805229714347
H           -4.92662607209110        4.93405732189914        0.58455521601226
H            0.51987617390393        2.43905060171723        2.08294383553371

          :  Hamiltonian                  GFN2-xTB          :
         :: total energy             -99.363641544647 Eh    ::
         :: gradient norm              0.006942485416 Eh/a0 ::
         :: HOMO-LUMO gap              1.618235086376 eV    ::
         :: SCC energy              -100.803368421368 Eh    ::
         :: -> dispersion             -0.074181987350 Eh    ::
         :: repulsion energy           1.438421938879 Eh    ::

    * Orbital Energies and Occupations

         #    Occupation            Energy/Eh            Energy/eV
      -------------------------------------------------------------
         1        2.0000           -0.8131318             -22.1264
       ...           ...                  ...                  ...
        78        1.9985           -0.5358908             -14.5823
        79        1.9983           -0.5340776             -14.5330
        80        1.9980           -0.5312793             -14.4568
        81        1.9978           -0.5295381             -14.4095
        82        1.9971           -0.5253861             -14.2965
        83        1.9965           -0.5223361             -14.2135
        84        1.9965           -0.5223161             -14.2129
        85        1.9954           -0.5180307             -14.0963
        86        1.9895           -0.5047588             -13.7352
        87        1.9810           -0.4953721             -13.4798
        88        1.9752           -0.4911052             -13.3637
        89        1.8702           -0.4640304             -12.6269
        90        1.8200           -0.4584188             -12.4742 (HOMO)
        91        0.3824           -0.3989497             -10.8560 (LUMO)
        92        0.0036           -0.3218649              -8.7584
        93        0.0029           -0.3183266              -8.6621
        94        0.0024           -0.3150761              -8.5737
        95        0.0021           -0.3128522              -8.5131
        96        0.0007           -0.2968752              -8.0784
        97        0.0007           -0.2961397              -8.0584
        98        0.0000           -0.1956010              -5.3226
        99        0.0000           -0.1904343              -5.1820
       100                         -0.1372630              -3.7351
       101                         -0.0775491              -2.1102
       ...                                ...                  ...
       171                          1.0562223              28.7413
      -------------------------------------------------------------
                  HL-Gap            0.0594690 Eh            1.6182 eV

     #   Z          covCN         q      C6AA      α(0)
     1   7 N        0.911    -0.235    26.152     7.396
     2   6 C        1.924     0.119    28.171     8.572
     3   6 C        3.906     0.016    20.244     6.395
     4   6 C        2.977     0.002    27.967     8.675
     5   6 C        2.919    -0.081    30.022     8.985
     6   6 C        2.863     0.130    25.159     8.222
     7   8 O        1.706    -0.229    17.800     5.696
     8   6 C        3.645     0.028    20.440     6.498
     9   6 C        2.863     0.129    25.168     8.223
    10   8 O        1.706    -0.227    17.770     5.692
    11   6 C        3.645     0.026    20.465     6.502
    12   6 C        2.914    -0.075    29.859     8.960
    13   6 C        2.920    -0.054    29.343     8.883
    14   6 C        3.809    -0.059    21.625     6.619
    15   6 C        3.802    -0.068    21.810     6.649
    16   6 C        2.845     0.010    27.788     8.639
    17   7 N        2.729     0.030    20.716     6.760
    18   6 C        3.758    -0.019    20.965     6.528
    19   6 C        3.807    -0.071    21.843     6.653
    20   6 C        2.970     0.001    27.991     8.678
    21   6 C        2.922    -0.047    29.175     8.858
    22   6 C        2.913    -0.066    29.650     8.929
    23   6 C        2.864     0.135    25.049     8.204
    24   8 O        1.706    -0.218    17.617     5.667
    25   6 C        3.645     0.024    20.511     6.509
    26   6 C        2.863     0.134    25.058     8.205
    27   8 O        1.706    -0.221    17.666     5.675
    28   6 C        3.645     0.026    20.474     6.504
    29   6 C        2.919    -0.079    29.966     8.977
    30   6 C        3.701    -0.074    22.078     6.719
    31   6 C        3.866    -0.005    20.631     6.459
    32   6 C        3.755    -0.110    22.658     6.787
    33   6 C        3.754    -0.113    22.724     6.797
    34   1 H        0.926     0.051     2.311     2.377
    35   1 H        0.924     0.054     2.275     2.359
    36   1 H        0.925     0.082     1.960     2.189
    37   1 H        0.924     0.048     2.345     2.395
    38   1 H        0.924     0.056     2.245     2.343
    39   1 H        0.925     0.082     1.957     2.188
    40   1 H        0.924     0.049     2.333     2.388
    41   1 H        0.926     0.053     2.278     2.360
    42   1 H        0.926     0.047     2.357     2.401
    43   1 H        0.924     0.059     2.215     2.328
    44   1 H        0.924     0.057     2.231     2.336
    45   1 H        0.925     0.068     2.111     2.272
    46   1 H        0.923     0.083     1.947     2.182
    47   1 H        0.794    -0.051     4.193     3.219
    48   1 H        0.926     0.079     1.991     2.207
    49   1 H        0.924     0.072     2.059     2.244
    50   1 H        0.924     0.079     1.989     2.206
    51   1 H        0.924     0.056     2.251     2.346
    52   1 H        0.924     0.056     2.243     2.342
    53   1 H        0.926     0.048     2.350     2.397
    54   1 H        0.926     0.061     2.190     2.314
    55   1 H        0.924     0.057     2.238     2.339
    56   1 H        0.924     0.057     2.231     2.336
    57   1 H        0.925     0.084     1.939     2.177
    58   1 H        0.925     0.083     1.944     2.181
    59   1 H        0.924     0.051     2.310     2.377
    60   1 H        0.924     0.054     2.275     2.359
    61   1 H        0.926     0.049     2.334     2.389
    62   1 H        0.924     0.079     1.989     2.205
    63   1 H        0.924     0.082     1.954     2.186
    64   1 H        0.925     0.084     1.943     2.180
    65   1 H        0.924     0.039     2.469     2.457
    66   1 H        0.925     0.051     2.313     2.378
    67   1 H        0.925     0.038     2.479     2.462
    68   1 H        0.925     0.052     2.291     2.367
    69   1 H        0.925     0.049     2.336     2.390
    70   1 H        0.925     0.038     2.469     2.457
    71   1 H        0.925     0.056     2.247     2.344
    72   1 H        0.794     0.049     2.379     2.424

Wiberg/Mayer (AO) data.
largest (>0.10) Wiberg bond orders for each atom

     #   Z sym  total        # sym  WBO       # sym  WBO       # sym  WBO
 ---------------------------------------------------------------------------
     1   7 N    3.008 --     2 C    2.829
     2   6 C    3.936 --     1 N    2.829     3 C    1.029
     3   6 C    3.984 --     2 C    1.029     4 C    0.966    14 C    0.948
                            31 C    0.917
     4   6 C    3.950 --    13 C    1.418     5 C    1.367     3 C    0.966
     5   6 C    3.962 --     6 C    1.401     4 C    1.367    34 H    0.958
     6   6 C    3.905 --     5 C    1.401     9 C    1.219     7 O    1.101
     7   8 O    2.255 --     6 C    1.101     8 C    0.977
     8   6 C    3.931 --     7 O    0.977    36 H    0.977    35 H    0.974
                            37 H    0.973
     9   6 C    3.902 --    12 C    1.393     6 C    1.219    10 O    1.104
    10   8 O    2.255 --     9 C    1.104    11 C    0.977
    11   6 C    3.930 --    39 H    0.977    10 O    0.977    40 H    0.973
                            38 H    0.973
    12   6 C    3.962 --    13 C    1.402     9 C    1.393    41 H    0.964
    13   6 C    3.955 --     4 C    1.418    12 C    1.402    42 H    0.963
    14   6 C    3.974 --    15 C    0.984    44 H    0.973    43 H    0.970
                             3 C    0.948
    15   6 C    3.987 --    16 C    1.063    14 C    0.984    45 H    0.958
                            46 H    0.923
    16   6 C    3.592 --    17 N    1.447    15 C    1.063    48 H    0.954
    17   7 N    3.503 --    16 C    1.447    30 C    0.997    18 C    0.986
    18   6 C    3.950 --    17 N    0.986    19 C    0.965    49 H    0.963
                            50 H    0.958
    19   6 C    3.977 --    20 C    1.008    51 H    0.972    52 H    0.972
                            18 C    0.965
    20   6 C    3.939 --    21 C    1.405    29 C    1.382    19 C    1.008
    21   6 C    3.945 --    22 C    1.419    20 C    1.405    53 H    0.968
    22   6 C    3.956 --    21 C    1.419    23 C    1.380    54 H    0.963
    23   6 C    3.890 --    22 C    1.380    26 C    1.215    24 O    1.115
    24   8 O    2.256 --    23 C    1.115    25 C    0.975
    25   6 C    3.926 --    57 H    0.976    24 O    0.975    56 H    0.972
                            55 H    0.972
    26   6 C    3.893 --    29 C    1.392    23 C    1.215    27 O    1.108
    27   8 O    2.255 --    26 C    1.108    28 C    0.978
    28   6 C    3.930 --    27 O    0.978    58 H    0.976    59 H    0.973
                            60 H    0.973
    29   6 C    3.956 --    26 C    1.392    20 C    1.382    61 H    0.962
    30   6 C    3.956 --    17 N    0.997    64 H    0.977    62 H    0.965
                            63 H    0.961
    31   6 C    3.981 --    33 C    1.010    32 C    1.010    65 H    0.960
                             3 C    0.917
    32   6 C    3.988 --    31 C    1.010    66 H    0.982    67 H    0.982
                            68 H    0.982
    33   6 C    3.988 --    31 C    1.010    70 H    0.984    69 H    0.982
                            71 H    0.980
    34   1 H    0.996 --     5 C    0.958
    35   1 H    0.993 --     8 C    0.974
    36   1 H    0.993 --     8 C    0.977
    37   1 H    0.993 --     8 C    0.973
    38   1 H    0.993 --    11 C    0.973
    39   1 H    0.993 --    11 C    0.977
    40   1 H    0.993 --    11 C    0.973
    41   1 H    0.995 --    12 C    0.964
    42   1 H    0.997 --    13 C    0.963
    43   1 H    0.995 --    14 C    0.970
    44   1 H    0.996 --    14 C    0.973
    45   1 H    0.994 --    15 C    0.958
    46   1 H    0.969 --    15 C    0.923
    47   1 H    0.995 --    72 H    0.969
    48   1 H    0.994 --    16 C    0.954
    49   1 H    0.990 --    18 C    0.963
    50   1 H    0.993 --    18 C    0.958
    51   1 H    0.996 --    19 C    0.972
    52   1 H    0.995 --    19 C    0.972
    53   1 H    0.997 --    21 C    0.968
    54   1 H    0.995 --    22 C    0.963
    55   1 H    0.990 --    25 C    0.972
    56   1 H    0.991 --    25 C    0.972
    57   1 H    0.992 --    25 C    0.976
    58   1 H    0.992 --    28 C    0.976
    59   1 H    0.992 --    28 C    0.973
    60   1 H    0.992 --    28 C    0.973
    61   1 H    0.996 --    29 C    0.962
    62   1 H    0.984 --    30 C    0.965
    63   1 H    0.987 --    30 C    0.961
    64   1 H    0.993 --    30 C    0.977
    65   1 H    0.996 --    31 C    0.960
    66   1 H    0.996 --    32 C    0.982
    67   1 H    0.997 --    32 C    0.982
    68   1 H    0.996 --    32 C    0.982
    69   1 H    0.996 --    33 C    0.982
    70   1 H    0.997 --    33 C    0.984
    71   1 H    0.995 --    33 C    0.980
    72   1 H    0.995 --    47 H    0.969
 ---------------------------------------------------------------------------

molecular dipole:
                 x           y           z       tot (Debye)
 q only:        0.768      -0.487      -1.456
   full:        0.428      -0.458      -1.811       4.871

           -------------------------------------------------
          | TOTAL ENERGY              -99.363641544647 Eh   |
          | GRADIENT NORM               0.006942485416 Eh/α |
          | HOMO-LUMO GAP               1.618235086376 eV   |
           -------------------------------------------------

 * finished run on 2024/04/06 at 11:12:03.455
