   * xtb version 6.6.1 (8d0f1dd) compiled by 'conda@1efc2f54142f' on 2023-08-01
          program call               : xtb struc.xyz --opt loose --input .xc1 --gfn2

   ID    Z sym.   atoms
    1    6 C      1, 3, 5-7, 10, 11, 14
    2    7 N      2, 4, 9, 13
    3    8 O      8, 12
    4    1 H      15-25
constraining bond 9 14 to    5.9200000 Å, actual value:    3.7157301 Å

          :  Hamiltonian                  GFN2-xTB          :
 * total energy  :   -33.5844966 Eh     change       -0.2401990E-09 Eh
 * total energy  :   -37.2709963 Eh     change       -0.3686500E+01 Eh
 * total energy  :   -39.8469322 Eh     change       -0.2575936E+01 Eh
 * total energy  :   -41.2658594 Eh     change       -0.1418927E+01 Eh
 * total energy  :   -41.7488440 Eh     change       -0.4829845E+00 Eh
 * total energy  :   -41.8251358 Eh     change       -0.7629183E-01 Eh
 * total energy  :   -41.8720523 Eh     change       -0.4691648E-01 Eh
 * total energy  :   -41.9485907 Eh     change       -0.7653844E-01 Eh
 * total energy  :   -41.9991744 Eh     change       -0.5058369E-01 Eh
 * total energy  :   -42.0256006 Eh     change       -0.2642615E-01 Eh
 * total energy  :   -42.1711793 Eh     change       -0.1960281E-04 Eh
 * total energy  :   -42.1713220 Eh     change       -0.1426647E-03 Eh
 * total energy  :   -42.1713767 Eh     change       -0.5475550E-04 Eh
 * total energy  :   -42.1714812 Eh     change       -0.1045276E-03 Eh
 * total energy  :   -42.1715569 Eh     change       -0.7563884E-04 Eh
 * total energy  :   -42.1716093 Eh     change       -0.5242275E-04 Eh
 * total energy  :   -42.1716782 Eh     change       -0.6887725E-04 Eh
 * total energy  :   -42.1717226 Eh     change       -0.4442253E-04 Eh
 * total energy  :   -42.1717566 Eh     change       -0.3402906E-04 Eh
   *** GEOMETRY OPTIMIZATION CONVERGED AFTER 82 ITERATIONS ***

 final structure:
================
25
 xtb: 6.6.1 (8d0f1dd)
C            3.44584561596140        2.05823228817367        0.01542300086595
N            2.78607697826554        0.78055604744095        0.02008417319091
C            3.36481143170547       -0.42125774704909        0.02988064369320
N            2.42659839127519       -1.38958158543294        0.02630261614693
C            1.19358658298953       -0.79425897732220        0.01334715255500
C            1.42972655113654        0.58971240805804        0.00935210415267
C            0.32028194533386        1.50902083384951        0.00191116062545
O            0.40744075855252        2.72505518705987        0.00411188249855
N           -0.89595692523143        0.84113093736940       -0.00715908517125
C           -2.10555988719274        1.63495237284166       -0.01696108904775
C           -1.08032626727768       -0.56835137950665       -0.00516679036190
O           -2.20960126276598       -1.01022483184044       -0.01334027413220
N            0.01430219178580       -1.36452122522360        0.00649532731156
C           -4.13568345084571       -4.11356587248117       -0.02655187063049
H            4.09931275699930        2.15278018807917        0.88356963485158
H            4.04546127773719        2.17381724708550       -0.88878605614548
H            2.68758701527630        2.84139858079900        0.04536958807432
H            4.42353509907517       -0.59319652398819        0.03952732211947
H           -1.82583269484247        2.68799045025194       -0.01642012086096
H           -2.69731780793606        1.40036381001840       -0.90415221312372
H           -2.71016121803966        1.40298277525792        0.86221034684932
H           -4.45431819949050       -4.55618743380157        0.89890650043861
H           -4.40359504316018       -4.57753156489376       -0.95575432509392
H           -3.55762720878119       -3.20483791078333       -0.02303879093639
H            2.59184488357116       -2.38623953234256        0.03201078008075

          :  Hamiltonian                  GFN2-xTB          :
         :: total energy             -42.171756631845 Eh    ::
         :: gradient norm              0.002851271604 Eh/a0 ::
         :: HOMO-LUMO gap              1.560124485516 eV    ::
         :: SCC energy               -42.694481622125 Eh    ::
         :: -> dispersion             -0.020190794221 Eh    ::
         :: repulsion energy           0.522726446479 Eh    ::

    * Orbital Energies and Occupations

         #    Occupation            Energy/Eh            Energy/eV
      -------------------------------------------------------------
         1        2.0000           -0.8973105             -24.4171
       ...           ...                  ...                  ...
        25        1.9979           -0.6562760             -17.8582
        26        1.9951           -0.6360363             -17.3074
        27        1.9941           -0.6318914             -17.1946
        28        1.9884           -0.6156424             -16.7525
        29        1.9850           -0.6095619             -16.5870
        30        1.9821           -0.6052799             -16.4705
        31        1.9811           -0.6040663             -16.4375
        32        1.9801           -0.6028149             -16.4034
        33        1.9338           -0.5736655             -15.6102
        34        1.8766           -0.5581641             -15.1884
        35        1.8708           -0.5570074             -15.1569
        36        1.8168           -0.5480162             -14.9123
        37        1.7335           -0.5379973             -14.6397 (HOMO)
        38        0.7357           -0.4806638             -13.0795 (LUMO)
        39        0.1068           -0.4252494             -11.5716
        40        0.0225           -0.3872449             -10.5375
        41        0.0058           -0.3550162              -9.6605
        42        0.0002           -0.2681200              -7.2959
        43        0.0000           -0.1827082              -4.9717
        44        0.0000           -0.1649608              -4.4888
        45        0.0000           -0.1227107              -3.3391
        46                         -0.0693563              -1.8873
        47                         -0.0264725              -0.7204
        48                         -0.0221266              -0.6021
       ...                                ...                  ...
        67                          0.5338194              14.5260
      -------------------------------------------------------------
                  HL-Gap            0.0573335 Eh            1.5601 eV

     #   Z          covCN         q      C6AA      α(0)
     1   6 C        3.691    -0.090    22.415     6.775
     2   7 N        2.821     0.079    19.869     6.620
     3   6 C        3.052     0.057    26.664     8.469
     4   7 N        2.789    -0.054    22.288     7.012
     5   6 C        3.059     0.148    24.732     8.156
     6   6 C        3.121    -0.019    28.293     8.711
     7   6 C        2.766     0.272    22.396     7.750
     8   8 O        0.858    -0.361    20.913     6.131
     9   7 N        2.746    -0.081    22.820     7.095
    10   6 C        3.703    -0.054    21.704     6.661
    11   6 C        2.753     0.337    21.268     7.552
    12   8 O        0.860    -0.344    20.597     6.085
    13   7 N        1.833    -0.242    27.177     7.725
    14   6 C        2.778    -0.086    30.141     8.992
    15   1 H        0.924     0.108     1.714     2.047
    16   1 H        0.924     0.109     1.707     2.043
    17   1 H        0.924     0.136     1.493     1.911
    18   1 H        0.926     0.124     1.585     1.969
    19   1 H        0.925     0.119     1.623     1.992
    20   1 H        0.924     0.109     1.703     2.041
    21   1 H        0.924     0.109     1.703     2.041
    22   1 H        0.926     0.124     1.578     1.964
    23   1 H        0.926     0.124     1.579     1.965
    24   1 H        0.926     0.139     1.469     1.895
    25   1 H        0.860     0.237     0.936     1.516

Wiberg/Mayer (AO) data.
largest (>0.10) Wiberg bond orders for each atom

     #   Z sym  total        # sym  WBO       # sym  WBO       # sym  WBO
 ---------------------------------------------------------------------------
     1   6 C    3.901 --     2 N    0.987    17 H    0.957    15 H    0.956
                            16 H    0.954
     2   7 N    3.654 --     3 C    1.359     6 C    1.170     1 C    0.987
     3   6 C    3.796 --     2 N    1.359     4 N    1.295    18 H    0.952
     4   7 N    3.567 --     3 C    1.295     5 C    1.160    25 H    0.916
     5   6 C    3.924 --    13 N    1.364     6 C    1.249     4 N    1.160
     6   6 C    3.781 --     5 C    1.249     2 N    1.170     7 C    1.091
     7   6 C    3.925 --     8 O    1.615     9 N    1.127     6 C    1.091
     8   8 O    1.893 --     7 C    1.615     9 N    0.126
     9   7 N    3.437 --     7 C    1.127    11 C    1.030    10 C    0.991
                             8 O    0.126
    10   6 C    3.866 --     9 N    0.991    19 H    0.952    21 H    0.942
                            20 H    0.942
    11   6 C    3.931 --    12 O    1.631    13 N    1.187     9 N    1.030
    12   8 O    1.883 --    11 C    1.631
    13   7 N    2.816 --     5 C    1.364    11 C    1.187
    14   6 C    2.910 --    23 H    0.972    22 H    0.972    24 H    0.965
    15   1 H    0.980 --     1 C    0.956
    16   1 H    0.979 --     1 C    0.954
    17   1 H    0.977 --     1 C    0.957
    18   1 H    0.983 --     3 C    0.952
    19   1 H    0.970 --    10 C    0.952
    20   1 H    0.959 --    10 C    0.942
    21   1 H    0.959 --    10 C    0.942
    22   1 H    0.973 --    14 C    0.972
    23   1 H    0.974 --    14 C    0.972
    24   1 H    0.968 --    14 C    0.965
    25   1 H    0.942 --     4 N    0.916
 ---------------------------------------------------------------------------

molecular dipole:
                 x           y           z       tot (Debye)
 q only:        1.893      -1.564       0.013
   full:        2.297      -1.652       0.015       7.192

           -------------------------------------------------
          | TOTAL ENERGY              -42.171756631845 Eh   |
          | GRADIENT NORM               0.002851271604 Eh/α |
          | HOMO-LUMO GAP               1.560124485516 eV   |
           -------------------------------------------------

 * finished run on 2024/06/05 at 19:58:53.090
