   * xtb version 6.6.1 (8d0f1dd) compiled by 'conda@1efc2f54142f' on 2023-08-01
          program call               : xtb struc.xyz --opt loose --input .xc1 --gfn2

   ID    Z sym.   atoms
    1    6 C      1, 3, 5-7, 10, 11, 14
    2    7 N      2, 4, 9, 13
    3    8 O      8, 12
    4    1 H      15-25
constraining bond 12 22 to    4.6333300 Å, actual value:    3.4782509 Å

          :  Hamiltonian                  GFN2-xTB          :
 * total energy  :   -44.6423210 Eh     change       -0.2401990E-09 Eh
 * total energy  :   -48.5972071 Eh     change       -0.3954886E+01 Eh
 * total energy  :   -54.3947454 Eh     change       -0.5797538E+01 Eh
 * total energy  :   -62.1506974 Eh     change       -0.7755952E+01 Eh
 * total energy  :   -71.1190126 Eh     change       -0.8968315E+01 Eh
 * total energy  :   -43.7277809 Eh     change        0.2739123E+02 Eh
 * total energy  :   -67.5574827 Eh     change       -0.2382970E+02 Eh
 * total energy  :   -67.8779757 Eh     change       -0.3204930E+00 Eh
 * total energy  :   -68.8931519 Eh     change       -0.1015176E+01 Eh
 * total energy  :   -71.3005676 Eh     change       -0.2407416E+01 Eh
 * total energy  :   -72.1331252 Eh     change       -0.8434922E-04 Eh
 * total energy  :   -72.1331190 Eh     change        0.6193454E-05 Eh
 * total energy  :   -72.1331945 Eh     change       -0.7547475E-04 Eh
 * total energy  :   -72.1332302 Eh     change       -0.3567826E-04 Eh
 * total energy  :   -72.1332946 Eh     change       -0.6445095E-04 Eh
 * total energy  :   -72.1333206 Eh     change       -0.2600706E-04 Eh
 * total energy  :   -72.1319447 Eh     change        0.1375923E-02 Eh
 * total energy  :   -72.1333370 Eh     change       -0.1392348E-02 Eh
 * total energy  :   -72.1333445 Eh     change       -0.7427999E-05 Eh
   *** GEOMETRY OPTIMIZATION CONVERGED AFTER 70 ITERATIONS ***

 final structure:
================
25
 xtb: 6.6.1 (8d0f1dd)
C            3.22778603583338        1.10673648386531        0.39593707641001
N            2.23966185111392        0.09351068341368        0.14486872554136
C            2.44316127743879       -1.23190122554371        0.08054482873569
N            1.27136283014910       -1.86162482705848       -0.16983034426104
C            0.30099131668938       -0.91137519972916       -0.27137133412684
C            0.89907852577886        0.32414225116980       -0.07280066878371
C            0.13966208105552        1.54434994506002       -0.11420665549194
O            0.54489692761521        2.68021609533074        0.03995999359781
N           -1.23564818397486        1.26832982568947       -0.36284767245665
C           -2.08190256824053        2.44613409980460       -0.42023552686447
C           -1.80645548716099        0.08939224014273       -0.53156323851955
O           -1.73893512994462       -3.07765468685820        1.16345953287660
N           -1.04450136408581       -1.06194245919560       -0.51330750233786
C           -1.54714060913229       -2.29139145606064       -0.73170982289429
H            3.73870116913663        0.91368403495648        1.33970852283088
H            3.96722557590844        1.12553678396155       -0.40607501183933
H            2.72939022696849        2.07450500431176        0.44388176918608
H            3.38821262862579       -1.71741158653492        0.20975158909456
H           -1.73022848089707        3.10904101200222       -1.21163645320082
H           -3.10528293574817        2.13805792099350       -0.61330056761519
H           -2.01946664085806        2.98824684192078        0.52419848457822
H           -1.88874798009005       -2.81866237460831        1.43854048419885
H           -2.60648367117766       -2.28810282364445       -0.97120700710789
H           -2.05039613238306       -3.96920659424374        0.92664400752749
H            1.12549025153189       -2.85437144750411       -0.28623159121095

          :  Hamiltonian                  GFN2-xTB          :
         :: total energy             -72.133344470626 Eh    ::
         :: gradient norm              0.003334885584 Eh/a0 ::
         :: HOMO-LUMO gap              1.723418670724 eV    ::
         :: SCC energy               -42.626290278322 Eh    ::
         :: -> dispersion             -0.022424296995 Eh    ::
         :: repulsion energy           2.394254620889 Eh    ::

    * Orbital Energies and Occupations

         #    Occupation            Energy/Eh            Energy/eV
      -------------------------------------------------------------
         1        2.0000           -0.8912516             -24.2522
       ...           ...                  ...                  ...
        25        1.9992           -0.6518498             -17.7377
        26        1.9989           -0.6442645             -17.5313
        27        1.9987           -0.6394785             -17.4011
        28        1.9984           -0.6355938             -17.2954
        29        1.9972           -0.6221190             -16.9287
        30        1.9956           -0.6110185             -16.6267
        31        1.9938           -0.6031671             -16.4130
        32        1.9926           -0.5987754             -16.2935
        33        1.9812           -0.5766038             -15.6902
        34        1.9686           -0.5642135             -15.3530
        35        1.9624           -0.5598251             -15.2336
        36        1.7150           -0.5085481             -13.8383
        37        1.6330           -0.5013716             -13.6430 (HOMO)
        38        0.4723           -0.4380371             -11.9196 (LUMO)
        39        0.1858           -0.4117925             -11.2054
        40        0.0926           -0.3940766             -10.7234
        41        0.0160           -0.3514254              -9.5628
        42        0.0005           -0.2703908              -7.3577
        43        0.0000           -0.1815591              -4.9405
        44        0.0000           -0.1654793              -4.5029
        45        0.0000           -0.1198867              -3.2623
        46        0.0000           -0.0900571              -2.4506
        47                         -0.0388930              -1.0583
        48                         -0.0157244              -0.4279
       ...                                ...                  ...
        67                          5.4926967             149.4639
      -------------------------------------------------------------
                  HL-Gap            0.0633345 Eh            1.7234 eV

     #   Z          covCN         q      C6AA      α(0)
     1   6 C        3.690    -0.086    22.341     6.764
     2   7 N        2.828     0.058    20.235     6.681
     3   6 C        3.044     0.043    27.000     8.522
     4   7 N        2.783    -0.054    22.290     7.012
     5   6 C        3.077     0.096    25.797     8.327
     6   6 C        3.098    -0.008    28.105     8.688
     7   6 C        2.770     0.248    22.839     7.827
     8   8 O        0.857    -0.369    21.080     6.156
     9   7 N        2.745     0.004    21.187     6.836
    10   6 C        3.717    -0.064    21.859     6.679
    11   6 C        1.897    -0.076    33.193     9.305
    12   8 O        1.700    -0.518    23.264     6.512
    13   7 N        2.740     0.066    20.099     6.658
    14   6 C        1.968    -0.118    34.350     9.465
    15   1 H        0.924     0.099     1.790     2.092
    16   1 H        0.924     0.101     1.772     2.082
    17   1 H        0.925     0.129     1.543     1.943
    18   1 H        0.927     0.115     1.655     2.012
    19   1 H        0.924     0.102     1.770     2.081
    20   1 H        0.925     0.101     1.778     2.085
    21   1 H        0.924     0.100     1.781     2.087
    22   1 H        0.810     0.357     0.571     1.186
    23   1 H        0.925     0.094     1.844     2.123
    24   1 H        0.804     0.347     0.596     1.213
    25   1 H        0.860     0.235     0.943     1.521

Wiberg/Mayer (AO) data.
largest (>0.10) Wiberg bond orders for each atom

     #   Z sym  total        # sym  WBO       # sym  WBO       # sym  WBO
 ---------------------------------------------------------------------------
     1   6 C    3.917 --     2 N    0.991    17 H    0.962    15 H    0.961
                            16 H    0.958
     2   7 N    3.595 --     3 C    1.327     6 C    1.148     1 C    0.991
     3   6 C    3.742 --     2 N    1.327     4 N    1.270    18 H    0.956
     4   7 N    3.546 --     3 C    1.270     5 C    1.192    25 H    0.916
     5   6 C    3.834 --     6 C    1.352     4 N    1.192    13 N    1.108
     6   6 C    3.868 --     5 C    1.352     2 N    1.148     7 C    1.101
     7   6 C    3.838 --     8 O    1.645     6 C    1.101     9 N    1.012
     8   8 O    1.897 --     7 C    1.645     9 N    0.102
     9   7 N    3.594 --    11 C    1.421     7 C    1.012    10 C    0.981
                             8 O    0.102
    10   6 C    3.910 --     9 N    0.981    20 H    0.972    21 H    0.957
                            19 H    0.957
    11   6 C    2.719 --     9 N    1.421    13 N    1.133
    12   8 O    2.021 --    24 H    0.878    22 H    0.871    14 C    0.240
    13   7 N    3.646 --    14 C    1.261    11 C    1.133     5 C    1.108
    14   6 C    2.519 --    13 N    1.261    23 H    0.939    12 O    0.240
    15   1 H    0.982 --     1 C    0.961
    16   1 H    0.981 --     1 C    0.958
    17   1 H    0.981 --     1 C    0.962
    18   1 H    0.986 --     3 C    0.956
    19   1 H    0.979 --    10 C    0.957
    20   1 H    0.985 --    10 C    0.972
    21   1 H    0.979 --    10 C    0.957
    22   1 H    0.871 --    12 O    0.871
    23   1 H    0.956 --    14 C    0.939
    24   1 H    0.879 --    12 O    0.878
    25   1 H    0.944 --     4 N    0.916
 ---------------------------------------------------------------------------

molecular dipole:
                 x           y           z       tot (Debye)
 q only:        0.907      -2.391       0.288
   full:        1.019      -2.512       0.524       7.018

           -------------------------------------------------
          | TOTAL ENERGY              -72.133344470626 Eh   |
          | GRADIENT NORM               0.003334885584 Eh/α |
          | HOMO-LUMO GAP               1.723418670724 eV   |
           -------------------------------------------------

 * finished run on 2024/06/05 at 19:58:43.823
