   * xtb version 6.6.1 (8d0f1dd) compiled by 'conda@1efc2f54142f' on 2023-08-01
          program call               : xtb xtbopt.xyz --opt crude --input .xc2 --gfn2

   ID    Z sym.   atoms
    1    6 C      1, 3, 5-7, 10, 11, 14
    2    7 N      2, 4, 9, 13
    3    8 O      8, 12
    4    1 H      15-25

          :  Hamiltonian                  GFN2-xTB          :
 * total energy  :   -40.2319028 Eh     change       -0.7247536E-12 Eh
 * total energy  :   -42.0574602 Eh     change       -0.1825557E+01 Eh
 * total energy  :   -42.0758235 Eh     change       -0.1836337E-01 Eh
 * total energy  :   -42.0833422 Eh     change       -0.7518670E-02 Eh
 * total energy  :   -42.0857840 Eh     change       -0.2441777E-02 Eh
 * total energy  :   -42.0863162 Eh     change       -0.5322075E-03 Eh
 * total energy  :   -42.0875679 Eh     change       -0.1251727E-02 Eh
 * total energy  :   -42.0880667 Eh     change       -0.4988397E-03 Eh
 * total energy  :   -42.0885342 Eh     change       -0.4674277E-03 Eh
 * total energy  :   -42.0888947 Eh     change       -0.3604951E-03 Eh
   *** GEOMETRY OPTIMIZATION CONVERGED AFTER 10 ITERATIONS ***

 final structure:
================
25
 xtb: 6.6.1 (8d0f1dd)
C            3.24175711076512        1.12885861590208        0.38608468387138
N            2.27030118625279        0.10024307800269        0.13350963700151
C            2.49635856147576       -1.22193394834537        0.05691507662339
N            1.33288999029992       -1.86927536430102       -0.19286049365649
C            0.34759847013399       -0.93455871268936       -0.27875621389830
C            0.92493335129065        0.31028968533349       -0.07710226377534
C            0.14051429205936        1.51536599728038       -0.10397127159098
O            0.52604162370106        2.65835252457078        0.05262679449050
N           -1.23160016263615        1.21589339264069       -0.33648551904526
C           -2.10152626524460        2.37667139532320       -0.38348694449192
C           -1.78743297971413        0.02495372923147       -0.49552539507518
O           -1.70463828207660       -3.09692711196569        1.00848258234085
N           -0.99730463296476       -1.10342632668315       -0.49599284409185
C           -1.48765129094767       -2.35169198146056       -0.72285087857950
H            3.74589365553449        0.95042470540946        1.33656569435096
H            3.98881334534994        1.15262081344841       -0.40841957391671
H            2.72803532791136        2.08902279762743        0.42291919694531
H            3.45057180124203       -1.69166113047581        0.17456055308726
H           -1.77306089073037        3.04683423689513       -1.17858374489378
H           -3.11986056628708        2.04632722498876       -0.56718731600720
H           -2.04174873245917        2.92011209425151        0.56014280790462
H           -2.09707771819168       -2.46819119221153        1.64210466723568
H           -2.53638526507417       -2.32641587848197       -1.01455805080849
H           -2.34809041687881       -3.79120322699606        0.82570476967472
H            1.19310000134058       -2.86244687565376       -0.31266433582807

          :  Hamiltonian                  GFN2-xTB          :
         :: total energy             -42.088894670020 Eh    ::
         :: gradient norm              0.009427569977 Eh/a0 ::
         :: HOMO-LUMO gap              2.008070172410 eV    ::
         :: SCC energy               -42.587698632751 Eh    ::
         :: -> dispersion             -0.022485812329 Eh    ::
         :: repulsion energy           0.498666513139 Eh    ::

    * Orbital Energies and Occupations

         #    Occupation            Energy/Eh            Energy/eV
      -------------------------------------------------------------
         1        2.0000           -0.8849616             -24.0810
       ...           ...                  ...                  ...
        25        1.9995           -0.6563375             -17.8599
        26        1.9993           -0.6479238             -17.6309
        27        1.9989           -0.6368356             -17.3292
        28        1.9986           -0.6308017             -17.1650
        29        1.9977           -0.6191968             -16.8492
        30        1.9967           -0.6111299             -16.6297
        31        1.9943           -0.5980810             -16.2746
        32        1.9937           -0.5953517             -16.2003
        33        1.9828           -0.5715645             -15.5531
        34        1.9703           -0.5584065             -15.1950
        35        1.9621           -0.5525315             -15.0351
        36        1.7451           -0.5044669             -13.7272
        37        1.6918           -0.4992193             -13.5844 (HOMO)
        38        0.3943           -0.4254240             -11.5764 (LUMO)
        39        0.1628           -0.4012131             -10.9176
        40        0.0992           -0.3886376             -10.5754
        41        0.0135           -0.3402575              -9.2589
        42        0.0006           -0.2642556              -7.1908
        43        0.0000           -0.1766634              -4.8073
        44        0.0000           -0.1599886              -4.3535
        45        0.0000           -0.1143570              -3.1118
        46        0.0000           -0.0966521              -2.6300
        47        0.0000           -0.0843521              -2.2953
        48                         -0.0315656              -0.8589
       ...                                ...                  ...
        67                          0.5360426              14.5865
      -------------------------------------------------------------
                  HL-Gap            0.0737952 Eh            2.0081 eV

     #   Z          covCN         q      C6AA      α(0)
     1   6 C        3.690    -0.085    22.318     6.761
     2   7 N        2.828     0.055    20.288     6.690
     3   6 C        3.043     0.041    27.039     8.529
     4   7 N        2.782    -0.057    22.333     7.019
     5   6 C        3.075     0.097    25.781     8.325
     6   6 C        3.095    -0.010    28.159     8.697
     7   6 C        2.770     0.248    22.848     7.828
     8   8 O        0.857    -0.376    21.210     6.175
     9   7 N        2.746    -0.002    21.299     6.854
    10   6 C        3.717    -0.063    21.832     6.675
    11   6 C        1.895    -0.088    33.531     9.352
    12   8 O        1.925    -0.425    21.293     6.232
    13   7 N        2.741     0.047    20.425     6.712
    14   6 C        2.194    -0.104    33.332     9.341
    15   1 H        0.924     0.097     1.810     2.104
    16   1 H        0.924     0.099     1.791     2.093
    17   1 H        0.925     0.128     1.553     1.949
    18   1 H        0.927     0.112     1.677     2.025
    19   1 H        0.924     0.099     1.795     2.095
    20   1 H        0.925     0.097     1.813     2.105
    21   1 H        0.924     0.096     1.818     2.108
    22   1 H        0.804     0.331     0.634     1.251
    23   1 H        0.925     0.080     1.982     2.202
    24   1 H        0.805     0.349     0.590     1.207
    25   1 H        0.860     0.234     0.947     1.524

Wiberg/Mayer (AO) data.
largest (>0.10) Wiberg bond orders for each atom

     #   Z sym  total        # sym  WBO       # sym  WBO       # sym  WBO
 ---------------------------------------------------------------------------
     1   6 C    3.920 --     2 N    0.991    17 H    0.962    15 H    0.962
                            16 H    0.960
     2   7 N    3.588 --     3 C    1.322     6 C    1.146     1 C    0.991
     3   6 C    3.731 --     2 N    1.322     4 N    1.265    18 H    0.956
     4   7 N    3.545 --     3 C    1.265     5 C    1.194    25 H    0.916
     5   6 C    3.841 --     6 C    1.350     4 N    1.194    13 N    1.115
     6   6 C    3.868 --     5 C    1.350     2 N    1.146     7 C    1.102
     7   6 C    3.841 --     8 O    1.642     6 C    1.102     9 N    1.016
     8   8 O    1.898 --     7 C    1.642     9 N    0.104
     9   7 N    3.592 --    11 C    1.409     7 C    1.016    10 C    0.983
                             8 O    0.104
    10   6 C    3.917 --     9 N    0.983    20 H    0.973    21 H    0.960
                            19 H    0.958
    11   6 C    2.731 --     9 N    1.409    13 N    1.149
    12   8 O    2.157 --    22 H    0.878    24 H    0.873    14 C    0.366
    13   7 N    3.624 --    14 C    1.203    11 C    1.149     5 C    1.115
    14   6 C    2.598 --    13 N    1.203    23 H    0.949    12 O    0.366
    15   1 H    0.983 --     1 C    0.962
    16   1 H    0.982 --     1 C    0.960
    17   1 H    0.982 --     1 C    0.962
    18   1 H    0.986 --     3 C    0.956
    19   1 H    0.980 --    10 C    0.958
    20   1 H    0.986 --    10 C    0.973
    21   1 H    0.981 --    10 C    0.960
    22   1 H    0.885 --    12 O    0.878
    23   1 H    0.966 --    14 C    0.949
    24   1 H    0.877 --    12 O    0.873
    25   1 H    0.944 --     4 N    0.916
 ---------------------------------------------------------------------------

molecular dipole:
                 x           y           z       tot (Debye)
 q only:        0.464      -2.510       0.626
   full:        0.503      -2.625       0.872       7.146

           -------------------------------------------------
          | TOTAL ENERGY              -42.088894670020 Eh   |
          | GRADIENT NORM               0.009427569977 Eh/α |
          | HOMO-LUMO GAP               2.008070172410 eV   |
           -------------------------------------------------

 * finished run on 2024/06/05 at 19:58:44.260
