   * xtb version 6.6.1 (8d0f1dd) compiled by 'conda@1efc2f54142f' on 2023-08-01
          program call               : xtb xtbopt.xyz --opt crude --input .xc2 --gfn2

   ID    Z sym.   atoms
    1    6 C      1, 3, 5-7, 10, 11, 14
    2    7 N      2, 4, 9, 13
    3    8 O      8, 12
    4    1 H      15-25

          :  Hamiltonian                  GFN2-xTB          :
 * total energy  :   -42.0901223 Eh     change       -0.8881784E-12 Eh
   *** GEOMETRY OPTIMIZATION CONVERGED AFTER 1 ITERATIONS ***

 final structure:
================
25
 xtb: 6.6.1 (8d0f1dd)
C            3.16448068823948        1.25384855603263        0.01633581382018
N            2.23282494268126        0.16229079163480       -0.00039028577498
C            2.55089427035306       -1.14039678313029       -0.00771446093161
N            1.39659059837510       -1.84594658313275       -0.00706936433119
C            0.33482139875763       -0.99119550962621        0.00063047266742
C            0.86616197843630        0.29236432151684        0.00593172113224
C            0.01487298897073        1.46191457554131       -0.00121147072529
O            0.38883236630513        2.61142723151126       -0.01218654289280
N           -1.33623267065778        1.11158467358329        0.00188704153565
C           -2.30545737751191        2.19403281853454       -0.00053525906904
C           -1.88217271391428       -0.16160104898481        0.00312563833483
O           -3.06878259989145       -0.34698941082883        0.00488072253595
N           -0.98547461684376       -1.24597509295388        0.00081204394548
C           -1.51396655687052       -2.59340021381023       -0.00370760410935
H            3.66968306063990        1.30457805745599        0.98324481872791
H            3.92038999732223        1.11142148043695       -0.75578045230374
H            2.62891316907812        2.18765720128399       -0.15328736871746
H            4.35621502887927       -3.29615034839174       -0.01179217624069
H           -1.76432878930033        3.13830658937447        0.00789385343171
H           -2.93715737148952        2.12939224031082       -0.88852306148412
H           -2.95070357597120        2.11998310628419        0.87680794239854
H           -1.18442361547852       -3.13533718497005        0.88393474898281
H           -1.19554184753950       -3.12515497615634       -0.90160136976672
H           -2.60169323262576       -2.52388699281072        0.00320550901635
H            1.36168599415634       -2.85452895710521       -0.01371929228209

          :  Hamiltonian                  GFN2-xTB          :
         :: total energy             -42.090122317901 Eh    ::
         :: gradient norm              0.007839981175 Eh/a0 ::
         :: HOMO-LUMO gap              0.942623320340 eV    ::
         :: SCC energy               -42.594822255025 Eh    ::
         :: -> dispersion             -0.022565624298 Eh    ::
         :: repulsion energy           0.504602298294 Eh    ::

    * Orbital Energies and Occupations

         #    Occupation            Energy/Eh            Energy/eV
      -------------------------------------------------------------
         1        2.0000           -0.8990660             -24.4648
       ...           ...                  ...                  ...
        25        1.9997           -0.6682115             -18.1830
        26        1.9997           -0.6676341             -18.1672
        27        1.9987           -0.6438364             -17.5197
        28        1.9978           -0.6354129             -17.2905
        29        1.9959           -0.6255906             -17.0232
        30        1.9938           -0.6188101             -16.8387
        31        1.9911           -0.6131646             -16.6851
        32        1.9866           -0.6065661             -16.5055
        33        1.9717           -0.5946541             -16.1814
        34        1.9278           -0.5794632             -15.7680
        35        1.9092           -0.5756769             -15.6650
        36        1.7303           -0.5568763             -15.1534
        37        1.7059           -0.5552848             -15.1101 (HOMO)
        38        0.7884           -0.5206440             -14.1674 (LUMO)
        39        0.0031           -0.4250881             -11.5672
        40        0.0005           -0.3955501             -10.7635
        41        0.0001           -0.3766207             -10.2484
        42        0.0000           -0.2968292              -8.0771
        43                         -0.2119751              -5.7681
        44                         -0.1687944              -4.5931
        45                         -0.1442193              -3.9244
        46                         -0.1338526              -3.6423
        47                         -0.0691829              -1.8826
        48                         -0.0410943              -1.1182
       ...                                ...                  ...
        67                          0.5387436              14.6600
      -------------------------------------------------------------
                  HL-Gap            0.0346408 Eh            0.9426 eV

     #   Z          covCN         q      C6AA      α(0)
     1   6 C        3.692    -0.084    22.304     6.758
     2   7 N        2.846     0.080    19.856     6.618
     3   6 C        2.073    -0.050    32.282     9.178
     4   7 N        2.811    -0.060    22.402     7.030
     5   6 C        3.020     0.116    25.421     8.270
     6   6 C        3.095    -0.010    28.156     8.697
     7   6 C        2.765     0.274    22.370     7.746
     8   8 O        0.858    -0.334    20.409     6.057
     9   7 N        2.745    -0.073    22.647     7.068
    10   6 C        3.709    -0.062    21.838     6.679
    11   6 C        2.729     0.319    21.586     7.606
    12   8 O        0.860    -0.338    20.480     6.068
    13   7 N        2.738    -0.043    22.078     6.979
    14   6 C        3.697    -0.071    22.037     6.715
    15   1 H        0.924     0.111     1.686     2.031
    16   1 H        0.925     0.112     1.683     2.029
    17   1 H        0.925     0.122     1.597     1.976
    18   1 H        0.000     0.116     4.109     3.707
    19   1 H        0.925     0.121     1.604     1.980
    20   1 H        0.924     0.111     1.689     2.032
    21   1 H        0.924     0.111     1.686     2.031
    22   1 H        0.924     0.093     1.846     2.125
    23   1 H        0.924     0.094     1.845     2.124
    24   1 H        0.925     0.129     1.543     1.943
    25   1 H        0.860     0.218     1.018     1.580

Wiberg/Mayer (AO) data.
largest (>0.10) Wiberg bond orders for each atom

     #   Z sym  total        # sym  WBO       # sym  WBO       # sym  WBO
 ---------------------------------------------------------------------------
     1   6 C    3.901 --     2 N    0.998    17 H    0.959    16 H    0.955
                            15 H    0.947
     2   7 N    3.647 --     3 C    1.359     6 C    1.173     1 C    0.998
     3   6 C    2.894 --     2 N    1.359     4 N    1.291
     4   7 N    3.584 --     3 C    1.291     5 C    1.195    25 H    0.923
     5   6 C    3.906 --     6 C    1.319    13 N    1.211     4 N    1.195
     6   6 C    3.826 --     5 C    1.319     2 N    1.173     7 C    1.070
     7   6 C    3.949 --     8 O    1.683     9 N    1.097     6 C    1.070
     8   8 O    1.987 --     7 C    1.683     9 N    0.130
     9   7 N    3.513 --    11 C    1.118     7 C    1.097    10 C    0.976
                             8 O    0.130    12 O    0.123
    10   6 C    3.877 --     9 N    0.976    19 H    0.961    21 H    0.949
                            20 H    0.948
    11   6 C    3.954 --    12 O    1.694     9 N    1.118    13 N    1.049
    12   8 O    2.004 --    11 C    1.694     9 N    0.123    13 N    0.109
    13   7 N    3.497 --     5 C    1.211    11 C    1.049    14 C    0.978
                            12 O    0.109
    14   6 C    3.908 --    13 N    0.978    24 H    0.962    22 H    0.962
                            23 H    0.961
    15   1 H    0.973 --     1 C    0.947
    16   1 H    0.976 --     1 C    0.955
    17   1 H    0.979 --     1 C    0.959
    18   1 H    0.081
    19   1 H    0.979 --    10 C    0.961
    20   1 H    0.966 --    10 C    0.948
    21   1 H    0.967 --    10 C    0.949
    22   1 H    0.978 --    14 C    0.962
    23   1 H    0.978 --    14 C    0.961
    24   1 H    0.982 --    14 C    0.962
    25   1 H    0.951 --     4 N    0.923
 ---------------------------------------------------------------------------

molecular dipole:
                 x           y           z       tot (Debye)
 q only:        1.838      -1.803       0.006
   full:        1.642      -2.070       0.013       6.716

           -------------------------------------------------
          | TOTAL ENERGY              -42.090122317901 Eh   |
          | GRADIENT NORM               0.007839981175 Eh/α |
          | HOMO-LUMO GAP               0.942623320340 eV   |
           -------------------------------------------------

 * finished run on 2024/06/05 at 19:57:51.700
