   * xtb version 6.6.1 (8d0f1dd) compiled by 'conda@1efc2f54142f' on 2023-08-01
          program call               : xtb struc.xyz --opt loose --input .xc1 --gfn2

   ID    Z sym.   atoms
    1    6 C      1, 3, 5-7, 10, 11, 14
    2    7 N      2, 4, 9, 13
    3    8 O      8, 12
    4    1 H      15-25
constraining bond 5 12 to    5.7600000 Å, actual value:    3.4583605 Å

          :  Hamiltonian                  GFN2-xTB          :
 * total energy  :   -32.8011147 Eh     change       -0.2401990E-09 Eh
 * total energy  :   -36.5496920 Eh     change       -0.3748577E+01 Eh
 * total energy  :   -39.1876570 Eh     change       -0.2637965E+01 Eh
 * total energy  :   -40.7617833 Eh     change       -0.1574126E+01 Eh
 * total energy  :   -41.4506078 Eh     change       -0.6888245E+00 Eh
 * total energy  :   -41.6159779 Eh     change       -0.1653701E+00 Eh
 * total energy  :   -41.6617437 Eh     change       -0.4576586E-01 Eh
 * total energy  :   -41.7136465 Eh     change       -0.5190274E-01 Eh
 * total energy  :   -41.7534326 Eh     change       -0.3978606E-01 Eh
 * total energy  :   -41.8032671 Eh     change       -0.4983459E-01 Eh
 * total energy  :   -42.1349880 Eh     change       -0.2262363E-02 Eh
 * total energy  :   -42.1338789 Eh     change        0.1109121E-02 Eh
 * total energy  :   -42.1365446 Eh     change       -0.2665787E-02 Eh
 * total energy  :   -42.1371131 Eh     change       -0.5684411E-03 Eh
 * total energy  :   -42.1384858 Eh     change       -0.1372747E-02 Eh
 * total energy  :   -42.1388924 Eh     change       -0.4065949E-03 Eh
 * total energy  :   -42.1390575 Eh     change       -0.1651132E-03 Eh
 * total energy  :   -42.1391049 Eh     change       -0.4733487E-04 Eh
 * total energy  :   -42.1391307 Eh     change       -0.2581521E-04 Eh
   *** GEOMETRY OPTIMIZATION CONVERGED AFTER 102 ITERATIONS ***

 final structure:
================
25
 xtb: 6.6.1 (8d0f1dd)
C            3.06309041605068        1.26958806201096       -0.26253927181306
N            2.26717617513568        0.08103732715272       -0.11404686909067
C            2.75187597912965       -1.15751412621801        0.06983540206199
N            1.73064889085880       -2.05360942117023        0.18358394529765
C            0.58019956170315       -1.36056570437811        0.06476265507705
C            0.88985177314070        0.00686618986559       -0.12442203403734
C           -0.07540368997960        1.11570523719857       -0.25427241200118
O            0.23069176588339        2.28552573173735       -0.38921283208016
N           -1.44120298322519        0.71427131860849       -0.17556069763500
C           -2.61274112331168        1.82753877486143        0.18582172095269
C           -1.71805618157764       -0.58573989580167       -0.00053632277864
O           -3.34227095724368        2.76001339670592       -0.60708203261735
N           -0.79615420140318       -1.58283621516639        0.09940835779433
C           -1.29324083252987       -2.93685424966646        0.26437229795616
H            3.66649001131562        1.43485886503410        0.63111249532622
H            3.72788284661223        1.17609080119092       -1.12192848965281
H            2.39850846330269        2.12008006356050       -0.41001211819708
H            3.78991985539546       -1.41259541635957        0.11704705360599
H           -2.07253060370781        2.36943897957011        0.96839538529252
H           -2.77040844746413        3.47218052985988       -0.92548177722835
H           -3.36966521919097        1.15909726493644        0.59482904909629
H           -0.92567588914986       -3.36584782085221        1.19817637884334
H           -0.97578098100540       -3.56333690675763       -0.57110310084444
H           -2.37978172907004       -2.90737992115934        0.29088064015047
H            1.83700861438870       -3.04777432318831        0.31914419436661

          :  Hamiltonian                  GFN2-xTB          :
         :: total energy             -42.139130689190 Eh    ::
         :: gradient norm              0.002502430765 Eh/a0 ::
         :: HOMO-LUMO gap              2.214108664070 eV    ::
         :: SCC energy               -42.611953584318 Eh    ::
         :: -> dispersion             -0.021689316301 Eh    ::
         :: repulsion energy           0.470987867861 Eh    ::

    * Orbital Energies and Occupations

         #    Occupation            Energy/Eh            Energy/eV
      -------------------------------------------------------------
         1        2.0000           -0.8946078             -24.3435
       ...           ...                  ...                  ...
        25        1.9996           -0.6681011             -18.1800
        26        1.9993           -0.6560431             -17.8518
        27        1.9989           -0.6466559             -17.5964
        28        1.9973           -0.6254848             -17.0203
        29        1.9966           -0.6199887             -16.8708
        30        1.9963           -0.6178021             -16.8113
        31        1.9943           -0.6075937             -16.5335
        32        1.9921           -0.5997473             -16.3200
        33        1.9912           -0.5971118             -16.2482
        34        1.9705           -0.5682847             -15.4638
        35        1.9619           -0.5620865             -15.2952
        36        1.9386           -0.5504564             -14.9787
        37        1.6794           -0.5077902             -13.8177 (HOMO)
        38        0.2912           -0.4264232             -11.6036 (LUMO)
        39        0.1351           -0.4061172             -11.0510
        40        0.0542           -0.3834255             -10.4335
        41        0.0040           -0.3209773              -8.7342
        42        0.0011           -0.2897701              -7.8850
        43        0.0000           -0.2013046              -5.4778
        44        0.0000           -0.1740828              -4.7370
        45        0.0000           -0.1354974              -3.6871
        46        0.0000           -0.0920136              -2.5038
        47        0.0000           -0.0723093              -1.9676
        48                         -0.0553795              -1.5070
       ...                                ...                  ...
        67                          0.4898694              13.3300
      -------------------------------------------------------------
                  HL-Gap            0.0813670 Eh            2.2141 eV

     #   Z          covCN         q      C6AA      α(0)
     1   6 C        3.691    -0.089    22.387     6.771
     2   7 N        2.819     0.062    20.163     6.669
     3   6 C        3.054     0.037    27.126     8.542
     4   7 N        2.759    -0.054    22.287     7.012
     5   6 C        3.043     0.093    25.891     8.346
     6   6 C        3.075    -0.013    28.252     8.715
     7   6 C        2.766     0.260    22.629     7.790
     8   8 O        0.857    -0.379    21.268     6.183
     9   7 N        2.684    -0.068    22.569     7.056
    10   6 C        3.557     0.120    19.467     6.439
    11   6 C        1.870    -0.049    32.442     9.200
    12   8 O        1.653    -0.352    19.949     6.029
    13   7 N        2.746     0.020    20.897     6.789
    14   6 C        3.704    -0.077    22.126     6.725
    15   1 H        0.924     0.100     1.782     2.087
    16   1 H        0.924     0.101     1.779     2.086
    17   1 H        0.925     0.133     1.515     1.925
    18   1 H        0.927     0.114     1.665     2.018
    19   1 H        0.924     0.089     1.884     2.147
    20   1 H        0.805     0.328     0.641     1.258
    21   1 H        0.925     0.121     1.605     1.981
    22   1 H        0.924     0.082     1.961     2.190
    23   1 H        0.924     0.084     1.940     2.178
    24   1 H        0.925     0.114     1.660     2.015
    25   1 H        0.860     0.223     0.996     1.564

Wiberg/Mayer (AO) data.
largest (>0.10) Wiberg bond orders for each atom

     #   Z sym  total        # sym  WBO       # sym  WBO       # sym  WBO
 ---------------------------------------------------------------------------
     1   6 C    3.914 --     2 N    0.990    16 H    0.960    15 H    0.959
                            17 H    0.957
     2   7 N    3.596 --     3 C    1.329     6 C    1.161     1 C    0.990
     3   6 C    3.715 --     2 N    1.329     4 N    1.232    18 H    0.956
     4   7 N    3.538 --     3 C    1.232     5 C    1.212    25 H    0.922
     5   6 C    3.851 --     6 C    1.323     4 N    1.212    13 N    1.127
     6   6 C    3.848 --     5 C    1.323     2 N    1.161     7 C    1.079
     7   6 C    3.852 --     8 O    1.652     6 C    1.079     9 N    1.046
     8   8 O    1.928 --     7 C    1.652     9 N    0.111
     9   7 N    3.509 --    11 C    1.373     7 C    1.046    10 C    0.829
                             8 O    0.111
    10   6 C    3.889 --    12 O    1.097    21 H    0.959    19 H    0.955
                             9 N    0.829
    11   6 C    2.824 --     9 N    1.373    13 N    1.285
    12   8 O    2.066 --    10 C    1.097    20 H    0.878
    13   7 N    3.567 --    11 C    1.285     5 C    1.127    14 C    0.984
    14   6 C    3.928 --    13 N    0.984    24 H    0.971    22 H    0.968
                            23 H    0.968
    15   1 H    0.981 --     1 C    0.959
    16   1 H    0.982 --     1 C    0.960
    17   1 H    0.980 --     1 C    0.957
    18   1 H    0.986 --     3 C    0.956
    19   1 H    0.979 --    10 C    0.955
    20   1 H    0.891 --    12 O    0.878
    21   1 H    0.980 --    10 C    0.959
    22   1 H    0.986 --    14 C    0.968
    23   1 H    0.986 --    14 C    0.968
    24   1 H    0.984 --    14 C    0.971
    25   1 H    0.950 --     4 N    0.922
 ---------------------------------------------------------------------------

molecular dipole:
                 x           y           z       tot (Debye)
 q only:        1.720      -1.950       0.465
   full:        2.468      -2.250       0.446       8.563

           -------------------------------------------------
          | TOTAL ENERGY              -42.139130689190 Eh   |
          | GRADIENT NORM               0.002502430765 Eh/α |
          | HOMO-LUMO GAP               2.214108664070 eV   |
           -------------------------------------------------

 * finished run on 2024/06/05 at 19:58:48.614
