   * xtb version 6.6.1 (8d0f1dd) compiled by 'conda@1efc2f54142f' on 2023-08-01
          program call               : xtb xtbopt.xyz --opt crude --input .xc2 --gfn2

   ID    Z sym.   atoms
    1    6 C      1, 3, 5-7, 10, 11, 14
    2    7 N      2, 4, 9, 13
    3    8 O      8, 12
    4    1 H      15-25
########################################################################
[WARNING] Please study the warnings concerning your input carefully
-1- readin_getIntValue: could not parse ''
########################################################################

          :  Hamiltonian                  GFN2-xTB          :
 * total energy  :   -42.1408963 Eh     change       -0.4263256E-13 Eh
 * total energy  :   -42.1645323 Eh     change       -0.2363594E-01 Eh
 * total energy  :   -42.1791576 Eh     change       -0.1462533E-01 Eh
 * total energy  :   -42.1836892 Eh     change       -0.4531561E-02 Eh
 * total energy  :   -42.1853039 Eh     change       -0.1614731E-02 Eh
 * total energy  :   -42.1867977 Eh     change       -0.1493805E-02 Eh
 * total energy  :   -42.1877890 Eh     change       -0.9913114E-03 Eh
 * total energy  :   -42.1882009 Eh     change       -0.4118356E-03 Eh
 * total energy  :   -42.1885049 Eh     change       -0.3040507E-03 Eh
 * total energy  :   -42.1886883 Eh     change       -0.1834445E-03 Eh
   *** GEOMETRY OPTIMIZATION CONVERGED AFTER 10 ITERATIONS ***

 final structure:
================
25
 xtb: 6.6.1 (8d0f1dd)
C            3.00666108442407        1.33114423079296       -0.27602455988826
N            2.19704376950081        0.15200650178413       -0.13567279462741
C            2.63489234112841       -1.11270847083763       -0.05150926002534
N            1.57439577416615       -1.95362375219778        0.08133425999566
C            0.43227613121709       -1.19911432607893        0.08085961357055
C            0.82155109168184        0.13138852395563       -0.05269816234690
C           -0.14189400040404        1.19482286853615       -0.06510093399030
O            0.05680835410084        2.38367735729013       -0.24111993214951
N           -1.44607042521602        0.68818210510107        0.16591322377432
C           -2.50513157659231        1.71837404314317        0.25566166171989
C           -1.80351918153482       -0.58844574604521        0.26785039083682
O           -2.69643561109786        2.36160198820709       -0.93740936554176
N           -0.87473423801473       -1.55583553393247        0.20521575193745
C           -1.26699917454116       -2.94633291526572        0.27041602905582
H            3.63898353106750        1.46616592480575        0.60325603038342
H            3.64459952578895        1.25201971206350       -1.15681874588411
H            2.34967035660072        2.19408027018950       -0.38045066136666
H            3.66085345994060       -1.41936876502467       -0.08223706976589
H           -2.22200010750157        2.39786396387089        1.07984413512728
H           -1.97110039405119        2.97866311646422       -1.10877930171224
H           -3.43005480654364        1.19215724969091        0.49639817241897
H           -0.87579503636127       -3.41645478751850        1.17457381225108
H           -0.90447282983618       -3.48266220916131       -0.60729462480787
H           -2.35254963420301       -2.99058832086475        0.28946056285563
H            1.63345311033871       -2.95877448739294        0.15550338602499

          :  Hamiltonian                  GFN2-xTB          :
         :: total energy             -42.188688349213 Eh    ::
         :: gradient norm              0.007411838485 Eh/a0 ::
         :: HOMO-LUMO gap              2.314606570045 eV    ::
         :: SCC energy               -42.687788097862 Eh    ::
         :: -> dispersion             -0.022347728905 Eh    ::
         :: repulsion energy           0.498984694836 Eh    ::

    * Orbital Energies and Occupations

         #    Occupation            Energy/Eh            Energy/eV
      -------------------------------------------------------------
         1        2.0000           -0.8997308             -24.4829
       ...           ...                  ...                  ...
        25        1.9995           -0.6719690             -18.2852
        26        1.9993           -0.6603196             -17.9682
        27        1.9988           -0.6488446             -17.6560
        28        1.9973           -0.6301087             -17.1461
        29        1.9970           -0.6270710             -17.0635
        30        1.9968           -0.6255960             -17.0233
        31        1.9944           -0.6123344             -16.6625
        32        1.9932           -0.6077401             -16.5375
        33        1.9845           -0.5882368             -16.0067
        34        1.9653           -0.5688224             -15.4784
        35        1.9538           -0.5618328             -15.2882
        36        1.9459           -0.5580314             -15.1848
        37        1.7173           -0.5157666             -14.0347 (HOMO)
        38        0.2893           -0.4307064             -11.7201 (LUMO)
        39        0.1205           -0.4076753             -11.0934
        40        0.0478           -0.3847945             -10.4708
        41        0.0008           -0.2870753              -7.8117
        42        0.0000           -0.1944208              -5.2905
        43        0.0000           -0.1879162              -5.1135
        44        0.0000           -0.1346601              -3.6643
        45        0.0000           -0.1300659              -3.5393
        46                         -0.0683500              -1.8599
        47                         -0.0441489              -1.2014
        48                         -0.0244382              -0.6650
       ...                                ...                  ...
        67                          0.5181208              14.0988
      -------------------------------------------------------------
                  HL-Gap            0.0850602 Eh            2.3146 eV

     #   Z          covCN         q      C6AA      α(0)
     1   6 C        3.690    -0.087    22.349     6.765
     2   7 N        2.821     0.061    20.182     6.672
     3   6 C        3.026     0.042    27.040     8.530
     4   7 N        2.781    -0.068    22.563     7.055
     5   6 C        3.043     0.097    25.812     8.333
     6   6 C        3.097    -0.008    28.095     8.687
     7   6 C        2.767     0.257    22.668     7.797
     8   8 O        0.857    -0.389    21.466     6.212
     9   7 N        2.748    -0.042    22.052     6.974
    10   6 C        3.629     0.136    18.759     6.237
    11   6 C        1.896    -0.060    32.745     9.242
    12   8 O        1.658    -0.374    20.361     6.091
    13   7 N        2.742     0.034    20.652     6.749
    14   6 C        3.703    -0.079    22.161     6.731
    15   1 H        0.924     0.102     1.764     2.077
    16   1 H        0.924     0.102     1.764     2.077
    17   1 H        0.925     0.129     1.545     1.944
    18   1 H        0.926     0.116     1.644     2.005
    19   1 H        0.922     0.074     2.043     2.235
    20   1 H        0.805     0.338     0.618     1.235
    21   1 H        0.924     0.108     1.710     2.045
    22   1 H        0.924     0.085     1.924     2.169
    23   1 H        0.924     0.085     1.931     2.173
    24   1 H        0.925     0.119     1.624     1.993
    25   1 H        0.860     0.222     0.999     1.565

Wiberg/Mayer (AO) data.
largest (>0.10) Wiberg bond orders for each atom

     #   Z sym  total        # sym  WBO       # sym  WBO       # sym  WBO
 ---------------------------------------------------------------------------
     1   6 C    3.916 --     2 N    0.990    17 H    0.962    16 H    0.960
                            15 H    0.958
     2   7 N    3.593 --     3 C    1.330     6 C    1.148     1 C    0.990
     3   6 C    3.718 --     2 N    1.330     4 N    1.247    18 H    0.955
     4   7 N    3.528 --     3 C    1.247     5 C    1.181    25 H    0.923
     5   6 C    3.862 --     6 C    1.331     4 N    1.181    13 N    1.162
     6   6 C    3.867 --     5 C    1.331     2 N    1.148     7 C    1.110
     7   6 C    3.859 --     8 O    1.632     6 C    1.110     9 N    1.030
     8   8 O    1.917 --     7 C    1.632     9 N    0.111
     9   7 N    3.555 --    11 C    1.365     7 C    1.030    10 C    0.921
                             8 O    0.111
    10   6 C    3.907 --    12 O    1.059    21 H    0.951    19 H    0.941
                             9 N    0.921
    11   6 C    2.823 --     9 N    1.365    13 N    1.279
    12   8 O    1.999 --    10 C    1.059    20 H    0.861
    13   7 N    3.593 --    11 C    1.279     5 C    1.162    14 C    0.983
    14   6 C    3.928 --    13 N    0.983    24 H    0.970    23 H    0.968
                            22 H    0.966
    15   1 H    0.981 --     1 C    0.958
    16   1 H    0.982 --     1 C    0.960
    17   1 H    0.981 --     1 C    0.962
    18   1 H    0.985 --     3 C    0.955
    19   1 H    0.976 --    10 C    0.941
    20   1 H    0.883 --    12 O    0.861
    21   1 H    0.979 --    10 C    0.951
    22   1 H    0.985 --    14 C    0.966
    23   1 H    0.987 --    14 C    0.968
    24   1 H    0.983 --    14 C    0.970
    25   1 H    0.950 --     4 N    0.923
 ---------------------------------------------------------------------------

molecular dipole:
                 x           y           z       tot (Debye)
 q only:        1.823      -2.106       0.385
   full:        2.544      -2.406       0.476       8.981

           -------------------------------------------------
          | TOTAL ENERGY              -42.188688349213 Eh   |
          | GRADIENT NORM               0.007411838485 Eh/α |
          | HOMO-LUMO GAP               2.314606570045 eV   |
           -------------------------------------------------

 * finished run on 2024/06/05 at 19:58:49.013
