   * xtb version 6.6.1 (8d0f1dd) compiled by 'conda@1efc2f54142f' on 2023-08-01
          program call               : xtb xtbopt.xyz --opt crude --input .xc2 --gfn2

   ID    Z sym.   atoms
    1    7 N      1, 17
    2    6 C      2-6, 8, 9, 11-16, 18-23, 25, 26, 28-33
    3    8 O      7, 10, 24, 27
    4    1 H      34-72

          :  Hamiltonian                  GFN2-xTB          :
 * total energy  :   -99.3356122 Eh     change       -0.5826450E-12 Eh
   *** GEOMETRY OPTIMIZATION CONVERGED AFTER 1 ITERATIONS ***

 final structure:
================
72
 xtb: 6.6.1 (8d0f1dd)
N           -1.84192100649997        2.74657503004246        2.46981631079665
C           -1.73385808972720        2.13990445547368        1.38340561598888
C           -2.88231284322060        1.95567536542296        0.43193558896536
C           -3.38514291782846        0.52195201413150        0.47658195242235
C           -4.40906615104023        0.14325689814747       -0.39350352062818
C           -4.91509186310645       -1.14506999456577       -0.39430963487241
O           -5.90604229091131       -1.58996370249732       -1.19363075215086
C           -6.52894403909251       -0.69031747640169       -2.08001041650175
C           -4.37827063715599       -2.10717950137036        0.50415671858956
O           -4.92428092208666       -3.33755380969155        0.42908391340080
C           -4.49824716813430       -4.33335686312904        1.32915450304527
C           -3.36694889798136       -1.72020781222293        1.36872304303450
C           -2.87608564800605       -0.41930149004721        1.35523264066829
C           -2.33820990317022        2.27491552420717       -0.98347804047849
C           -1.43226137823409        1.17638066994982       -1.56788792183225
C           -0.08400618223739        1.13407763827954       -0.95962807034322
N            0.56849252633566        0.03267336447785       -0.60902916862422
C            1.95476814723136        0.09878155664395       -0.21093884934981
C            2.90097753278369       -0.32263515659790       -1.35182936973335
C            4.32885473406298       -0.14258570904513       -0.91831486407473
C            4.97435635068304        1.06878880210373       -1.10534258135684
C            6.28079103061954        1.25039554145824       -0.67898984711190
C            6.96769147623008        0.22185005521201       -0.05016209507997
O            8.23382015084448        0.28436868323423        0.40153106438214
C            8.97148715417006        1.47083860518563        0.21798834125276
C            6.31163751039222       -1.02419776161014        0.15076766578932
O            7.05099269473342       -1.96808292065187        0.76657037571303
C            6.49781580745026       -3.24384921611939        0.98449562159782
C            5.00474571562444       -1.18154409141415       -0.28301501160511
C           -0.03550186992974       -1.27565513381393       -0.69251126078467
C           -3.99235778391129        2.91404534741608        0.86717186611406
C           -4.85664896789592        2.43266406922441        1.98776007692783
C           -4.13230784347279        4.13302846959977        0.36400836684138
H           -4.82755117743390        0.88385227641285       -1.05325409574471
H           -6.98437621818171        0.15000706008753       -1.54755865274877
H           -7.30652885647586       -1.26447755856108       -2.57981243964605
H           -5.82381132130198       -0.31129911101621       -2.82671665443791
H           -4.68225763203447       -4.04088970058574        2.36726141462637
H           -5.09178085915308       -5.21405359771715        1.09205161027700
H           -3.43670893854223       -4.56660955372859        1.19749026851859
H           -2.95653600748472       -2.42425967831934        2.07433761716090
H           -2.10726560533393       -0.14867476049185        2.06292211557807
H           -3.18093106048789        2.41226177227618       -1.65672640373858
H           -1.78285773091741        3.21309690437806       -0.94638598105705
H           -1.93612804976742        0.21368946981875       -1.50093089538950
H           -1.30240105089503        1.40958420792645       -2.63289596892799
H           -0.78814601488157        1.71125614891297        0.99877018304127
H            0.47490532781285        2.05760908218155       -0.92197048175804
H            2.11218680963864       -0.55411159947708        0.65175920484762
H            2.19690974319648        1.12106968005049        0.08664208557603
H            2.69596448757155        0.29916087767213       -2.22495352462087
H            2.71555767356629       -1.36391634890348       -1.61753814731537
H            4.46494090014642        1.88214923605043       -1.59948576914889
H            6.75891418631891        2.20154545025439       -0.84570063782866
H            8.51281911167920        2.31350953138066        0.74431144409290
H            9.07760479827893        1.71602809486064       -0.84296109487119
H            9.95364387020017        1.27231682895522        0.64253898572568
H            7.28201611324438       -3.82361056659552        1.46732882143635
H            5.62601735714076       -3.19577912837107        1.64504194999640
H            6.21875968353267       -3.72680765105993        0.04288628283146
H            4.50089845641847       -2.12506664934304       -0.14264583941249
H           -0.21444750190649       -1.56214705032906       -1.73106824689608
H           -0.98690769430895       -1.29199993403858       -0.15525004061480
H            0.63002647338740       -2.00663600422975       -0.24081770752058
H           -5.44495382664694        2.90926039263137       -2.12175072484756
H           -4.23597579804589        2.27617237834896        2.86775480229977
H           -5.33994506158965        1.48884101275294        1.74582061047482
H           -5.61869267352715        3.16895991009254        2.22456142306129
H           -3.50467446527601        4.54585145073342       -0.40561891450654
H           -5.38159953149562        3.29818561971125       -1.44186982389817
H           -4.89901017276300        4.79108273019814        0.73805116835666
H           -1.01008657415127        2.85031684856542        3.04184463863832

          :  Hamiltonian                  GFN2-xTB          :
         :: total energy             -99.335612236532 Eh    ::
         :: gradient norm              0.006482901912 Eh/a0 ::
         :: HOMO-LUMO gap              1.665300133916 eV    ::
         :: SCC energy              -100.757958284875 Eh    ::
         :: -> dispersion             -0.075751992848 Eh    ::
         :: repulsion energy           1.421038260931 Eh    ::

    * Orbital Energies and Occupations

         #    Occupation            Energy/Eh            Energy/eV
      -------------------------------------------------------------
         1        2.0000           -0.8088038             -22.0087
       ...           ...                  ...                  ...
        78        1.9987           -0.5331580             -14.5080
        79        1.9986           -0.5311771             -14.4541
        80        1.9983           -0.5286642             -14.3857
        81        1.9980           -0.5262930             -14.3212
        82        1.9971           -0.5199471             -14.1485
        83        1.9965           -0.5170721             -14.0702
        84        1.9963           -0.5163648             -14.0510
        85        1.9817           -0.4907332             -13.3535
        86        1.9788           -0.4884005             -13.2901
        87        1.9696           -0.4825934             -13.1320
        88        1.9402           -0.4716358             -12.8339
        89        1.8799           -0.4600975             -12.5199
        90        1.8452           -0.4557870             -12.4026 (HOMO)
        91        0.3998           -0.3945884             -10.7373 (LUMO)
        92        0.0161           -0.3403563              -9.2616
        93        0.0037           -0.3170467              -8.6273
        94        0.0031           -0.3141055              -8.5472
        95        0.0028           -0.3122838              -8.4977
        96        0.0024           -0.3099423              -8.4340
        97        0.0006           -0.2881235              -7.8402
        98        0.0000           -0.1910401              -5.1985
        99        0.0000           -0.1874220              -5.1000
       100                         -0.1361451              -3.7047
       101                         -0.0681988              -1.8558
       ...                                ...                  ...
       171                          0.5766442              15.6913
      -------------------------------------------------------------
                  HL-Gap            0.0611987 Eh            1.6653 eV

     #   Z          covCN         q      C6AA      α(0)
     1   7 N        1.775    -0.276    27.969     7.832
     2   6 C        2.832     0.101    25.755     8.316
     3   6 C        3.915     0.006    20.421     6.423
     4   6 C        2.974     0.005    27.916     8.667
     5   6 C        2.921    -0.081    30.033     8.987
     6   6 C        2.863     0.130    25.152     8.221
     7   8 O        1.706    -0.230    17.808     5.698
     8   6 C        3.645     0.028    20.445     6.499
     9   6 C        2.864     0.129    25.181     8.225
    10   8 O        1.706    -0.229    17.795     5.695
    11   6 C        3.645     0.027    20.452     6.500
    12   6 C        2.914    -0.075    29.879     8.963
    13   6 C        2.920    -0.054    29.341     8.883
    14   6 C        3.812    -0.067    21.771     6.641
    15   6 C        3.802    -0.068    21.808     6.649
    16   6 C        2.844     0.007    27.865     8.651
    17   7 N        2.729     0.012    21.045     6.813
    18   6 C        3.756    -0.017    20.924     6.522
    19   6 C        3.808    -0.070    21.841     6.653
    20   6 C        2.969    -0.000    28.036     8.685
    21   6 C        2.922    -0.049    29.214     8.864
    22   6 C        2.914    -0.067    29.681     8.934
    23   6 C        2.865     0.133    25.080     8.209
    24   8 O        1.706    -0.222    17.681     5.677
    25   6 C        3.645     0.025    20.488     6.505
    26   6 C        2.863     0.133    25.088     8.210
    27   8 O        1.706    -0.225    17.727     5.685
    28   6 C        3.645     0.027    20.452     6.500
    29   6 C        2.919    -0.080    29.990     8.980
    30   6 C        3.700    -0.071    22.032     6.713
    31   6 C        2.947     0.033    27.256     8.563
    32   6 C        3.760    -0.122    22.878     6.819
    33   6 C        2.843    -0.098    30.454     9.044
    34   1 H        0.926     0.055     2.262     2.352
    35   1 H        0.924     0.054     2.271     2.357
    36   1 H        0.925     0.081     1.965     2.192
    37   1 H        0.924     0.048     2.348     2.396
    38   1 H        0.924     0.055     2.261     2.352
    39   1 H        0.925     0.081     1.967     2.193
    40   1 H        0.924     0.047     2.353     2.399
    41   1 H        0.926     0.051     2.308     2.376
    42   1 H        0.926     0.036     2.509     2.477
    43   1 H        0.925     0.065     2.137     2.286
    44   1 H        0.924     0.052     2.290     2.366
    45   1 H        0.925     0.066     2.125     2.280
    46   1 H        0.923     0.080     1.975     2.198
    47   1 H        0.922     0.007     2.945     2.684
    48   1 H        0.926     0.070     2.091     2.261
    49   1 H        0.924     0.068     2.112     2.273
    50   1 H        0.924     0.067     2.115     2.274
    51   1 H        0.924     0.055     2.257     2.349
    52   1 H        0.924     0.056     2.251     2.346
    53   1 H        0.926     0.045     2.383     2.414
    54   1 H        0.926     0.059     2.216     2.328
    55   1 H        0.924     0.054     2.268     2.355
    56   1 H        0.924     0.056     2.248     2.344
    57   1 H        0.925     0.082     1.954     2.186
    58   1 H        0.925     0.082     1.960     2.189
    59   1 H        0.924     0.048     2.339     2.392
    60   1 H        0.924     0.052     2.290     2.366
    61   1 H        0.926     0.047     2.358     2.401
    62   1 H        0.924     0.076     2.018     2.221
    63   1 H        0.924     0.081     1.973     2.197
    64   1 H        0.925     0.080     1.979     2.200
    65   1 H        0.784    -0.018     3.476     2.933
    66   1 H        0.925     0.077     2.012     2.218
    67   1 H        0.925     0.052     2.299     2.371
    68   1 H        0.925     0.060     2.194     2.316
    69   1 H        0.926     0.042     2.427     2.436
    70   1 H        0.784     0.017     2.850     2.656
    71   1 H        0.926     0.059     2.210     2.325
    72   1 H        0.860     0.160     1.335     1.810

Wiberg/Mayer (AO) data.
largest (>0.10) Wiberg bond orders for each atom

     #   Z sym  total        # sym  WBO       # sym  WBO       # sym  WBO
 ---------------------------------------------------------------------------
     1   7 N    3.032 --     2 C    1.962    72 H    0.942
     2   6 C    3.929 --     1 N    1.962     3 C    0.981    47 H    0.901
     3   6 C    3.979 --     2 C    0.981     4 C    0.964    14 C    0.958
                            31 C    0.954
     4   6 C    3.951 --    13 C    1.420     5 C    1.366     3 C    0.964
     5   6 C    3.963 --     6 C    1.403     4 C    1.366    34 H    0.957
     6   6 C    3.908 --     5 C    1.403     9 C    1.221     7 O    1.100
     7   8 O    2.256 --     6 C    1.100     8 C    0.978
     8   6 C    3.932 --     7 O    0.978    36 H    0.977    37 H    0.974
                            35 H    0.973
     9   6 C    3.904 --    12 C    1.395     6 C    1.221    10 O    1.101
    10   8 O    2.254 --     9 C    1.101    11 C    0.978
    11   6 C    3.932 --    10 O    0.978    39 H    0.977    40 H    0.974
                            38 H    0.973
    12   6 C    3.963 --    13 C    1.398     9 C    1.395    41 H    0.964
    13   6 C    3.956 --     4 C    1.420    12 C    1.398    42 H    0.963
    14   6 C    3.972 --    15 C    0.982    44 H    0.972    43 H    0.966
                             3 C    0.958
    15   6 C    3.987 --    16 C    1.060    14 C    0.982    45 H    0.961
                            46 H    0.927
    16   6 C    3.589 --    17 N    1.403    15 C    1.060    48 H    0.957
    17   7 N    3.479 --    16 C    1.403    30 C    0.998    18 C    0.988
    18   6 C    3.955 --    17 N    0.988    50 H    0.968    19 C    0.966
                            49 H    0.964
    19   6 C    3.976 --    20 C    1.008    51 H    0.972    52 H    0.972
                            18 C    0.966
    20   6 C    3.945 --    21 C    1.409    29 C    1.380    19 C    1.008
    21   6 C    3.950 --    22 C    1.417    20 C    1.409    53 H    0.968
    22   6 C    3.960 --    21 C    1.417    23 C    1.383    54 H    0.963
    23   6 C    3.895 --    22 C    1.383    26 C    1.220    24 O    1.110
    24   8 O    2.255 --    23 C    1.110    25 C    0.976
    25   6 C    3.928 --    57 H    0.977    24 O    0.976    56 H    0.973
                            55 H    0.973
    26   6 C    3.899 --    29 C    1.395    23 C    1.220    27 O    1.104
    27   8 O    2.255 --    26 C    1.104    28 C    0.979
    28   6 C    3.932 --    27 O    0.979    58 H    0.977    59 H    0.973
                            60 H    0.973
    29   6 C    3.959 --    26 C    1.395    20 C    1.380    61 H    0.962
    30   6 C    3.957 --    17 N    0.998    64 H    0.978    62 H    0.966
                            63 H    0.959
    31   6 C    3.946 --    33 C    1.887    32 C    1.033     3 C    0.954
    32   6 C    3.982 --    31 C    1.033    68 H    0.980    67 H    0.965
                            66 H    0.955
    33   6 C    3.945 --    31 C    1.887    69 H    0.971    71 H    0.969
    34   1 H    0.996 --     5 C    0.957
    35   1 H    0.993 --     8 C    0.973
    36   1 H    0.993 --     8 C    0.977
    37   1 H    0.994 --     8 C    0.974
    38   1 H    0.993 --    11 C    0.973
    39   1 H    0.993 --    11 C    0.977
    40   1 H    0.994 --    11 C    0.974
    41   1 H    0.996 --    12 C    0.964
    42   1 H    0.998 --    13 C    0.963
    43   1 H    0.994 --    14 C    0.966
    44   1 H    0.996 --    14 C    0.972
    45   1 H    0.995 --    15 C    0.961
    46   1 H    0.968 --    15 C    0.927
    47   1 H    0.989 --     2 C    0.901
    48   1 H    0.995 --    16 C    0.957
    49   1 H    0.990 --    18 C    0.964
    50   1 H    0.994 --    18 C    0.968
    51   1 H    0.996 --    19 C    0.972
    52   1 H    0.996 --    19 C    0.972
    53   1 H    0.997 --    21 C    0.968
    54   1 H    0.995 --    22 C    0.963
    55   1 H    0.992 --    25 C    0.973
    56   1 H    0.992 --    25 C    0.973
    57   1 H    0.992 --    25 C    0.977
    58   1 H    0.993 --    28 C    0.977
    59   1 H    0.993 --    28 C    0.973
    60   1 H    0.993 --    28 C    0.973
    61   1 H    0.997 --    29 C    0.962
    62   1 H    0.985 --    30 C    0.966
    63   1 H    0.987 --    30 C    0.959
    64   1 H    0.993 --    30 C    0.978
    65   1 H    0.995 --    70 H    0.973
    66   1 H    0.989 --    32 C    0.955
    67   1 H    0.993 --    32 C    0.965
    68   1 H    0.994 --    32 C    0.980
    69   1 H    0.997 --    33 C    0.971
    70   1 H    0.998 --    65 H    0.973
    71   1 H    0.994 --    33 C    0.969
    72   1 H    0.970 --     1 N    0.942
 ---------------------------------------------------------------------------

molecular dipole:
                 x           y           z       tot (Debye)
 q only:        0.678      -0.093      -0.640
   full:        1.034      -0.098      -0.771       3.289

           -------------------------------------------------
          | TOTAL ENERGY              -99.335612236532 Eh   |
          | GRADIENT NORM               0.006482901912 Eh/α |
          | HOMO-LUMO GAP               1.665300133916 eV   |
           -------------------------------------------------

 * finished run on 2024/04/06 at 11:11:53.703
