   * xtb version 6.6.1 (8d0f1dd) compiled by 'conda@1efc2f54142f' on 2023-08-01
          program call               : xtb xtbopt.xyz --opt crude --input .xc2 --gfn2

   ID    Z sym.   atoms
    1    6 C      1, 3, 5-7, 10, 11, 14
    2    7 N      2, 4, 9, 13
    3    8 O      8, 12
    4    1 H      15-25
########################################################################
[WARNING] Please study the warnings concerning your input carefully
-1- readin_getIntValue: could not parse ''
########################################################################

          :  Hamiltonian                  GFN2-xTB          :
 * total energy  :   -39.8913774 Eh     change       -0.2913225E-12 Eh
 * total energy  :   -42.1405871 Eh     change       -0.2249210E+01 Eh
 * total energy  :   -42.1647322 Eh     change       -0.2414507E-01 Eh
 * total energy  :   -42.1687703 Eh     change       -0.4038094E-02 Eh
 * total energy  :   -42.1629938 Eh     change        0.5776517E-02 Eh
 * total energy  :   -42.1706700 Eh     change       -0.7676251E-02 Eh
 * total energy  :   -42.1711627 Eh     change       -0.4926379E-03 Eh
 * total energy  :   -42.1716207 Eh     change       -0.4580036E-03 Eh
 * total energy  :   -42.1722473 Eh     change       -0.6266067E-03 Eh
 * total energy  :   -42.1726056 Eh     change       -0.3583420E-03 Eh
 * total energy  :   -42.1727903 Eh     change       -0.1846270E-03 Eh
   *** GEOMETRY OPTIMIZATION CONVERGED AFTER 11 ITERATIONS ***

 final structure:
================
25
 xtb: 6.6.1 (8d0f1dd)
C            4.83304096836309        0.35187790857088        0.08255218715546
N            3.96377871698029       -0.51455758816921       -0.16722192871983
C            3.14611092958861       -1.48548786224081       -0.00207857898274
N            1.81739456471266       -1.35832750518926       -0.00774615858816
C            1.14607941098891       -0.15460906074054       -0.03940571500393
C           -0.19245098307575        0.02539446901804       -0.02878437132018
C           -0.75662017338494        1.41206394283969       -0.06050529734518
O           -0.14541783894459        2.44755178912983       -0.09057732211845
N           -2.11540851896711        1.23822198028288       -0.03761729915156
C           -3.08565582463449        2.30534378271484       -0.05770744731723
C           -2.45646637792498       -0.10195606348658        0.00828600909815
O           -3.55224719073721       -0.57900953217373        0.04586485253343
N           -1.25639352760359       -0.82743362426655        0.01098755096525
C           -1.27777381377525       -2.26712482148155        0.05334302496366
H            5.12024605603003        0.60781609401959        1.09870075104521
H            5.30961187089908        0.87537681207960       -0.73605543775907
H            1.77261382048891        0.72225287943875       -0.07750796570304
H            3.55134743801249       -2.49257164453103        0.01987584150766
H           -2.57166730638380        3.23326639513109        0.18580600670763
H           -3.53902180541209        2.38697135356189       -1.04690069592899
H           -3.86765867788217        2.09667172765574        0.67128775374665
H           -0.79343968371827       -2.64333414644605        0.95689153670812
H           -0.81841352941299       -2.69531319654367       -0.84013415129572
H           -2.32810225959836       -2.56261263886978        0.07660005546846
H            1.25694524948864       -2.20223290869951        0.01321841723279

          :  Hamiltonian                  GFN2-xTB          :
         :: total energy             -42.172790269332 Eh    ::
         :: gradient norm              0.006876034589 Eh/a0 ::
         :: HOMO-LUMO gap              2.139996093681 eV    ::
         :: SCC energy               -42.735576454427 Eh    ::
         :: -> dispersion             -0.020416403446 Eh    ::
         :: repulsion energy           0.562817754225 Eh    ::

    * Orbital Energies and Occupations

         #    Occupation            Energy/Eh            Energy/eV
      -------------------------------------------------------------
         1        2.0000           -0.8752040             -23.8155
       ...           ...                  ...                  ...
        25        2.0000           -0.6596177             -17.9491
        26        1.9999           -0.6547166             -17.8157
        27        1.9999           -0.6498833             -17.6842
        28        1.9999           -0.6435222             -17.5111
        29        1.9997           -0.6277401             -17.0817
        30        1.9994           -0.6182156             -16.8225
        31        1.9993           -0.6158157             -16.7572
        32        1.9978           -0.5970069             -16.2454
        33        1.9974           -0.5943605             -16.1734
        34        1.9878           -0.5697281             -15.5031
        35        1.9560           -0.5492260             -14.9452
        36        1.9543           -0.5486005             -14.9282
        37        1.8524           -0.5291903             -14.4000 (HOMO)
        38        0.1608           -0.4505469             -12.2600 (LUMO)
        39        0.0911           -0.4409596             -11.9991
        40        0.0044           -0.3922699             -10.6742
        41        0.0000           -0.3203885              -8.7182
        42        0.0000           -0.2955391              -8.0420
        43                         -0.1738797              -4.7315
        44                         -0.1579508              -4.2981
        45                         -0.1194321              -3.2499
        46                         -0.0807488              -2.1973
        47                         -0.0763090              -2.0765
        48                         -0.0496036              -1.3498
       ...                                ...                  ...
        67                          0.6398015              17.4099
      -------------------------------------------------------------
                  HL-Gap            0.0786434 Eh            2.1400 eV

     #   Z          covCN         q      C6AA      α(0)
     1   6 C        2.765     0.022    27.496     8.587
     2   7 N        1.830    -0.008    22.112     6.968
     3   6 C        2.766     0.102    25.729     8.307
     4   7 N        2.692    -0.049    22.199     6.998
     5   6 C        2.840    -0.006    28.172     8.698
     6   6 C        2.984     0.020    27.557     8.611
     7   6 C        2.849     0.266    22.513     7.776
     8   8 O        0.857    -0.343    20.576     6.082
     9   7 N        2.789    -0.077    22.743     7.083
    10   6 C        3.690    -0.056    21.771     6.677
    11   6 C        2.831     0.321    21.561     7.609
    12   8 O        0.857    -0.348    20.661     6.094
    13   7 N        2.781    -0.062    22.446     7.037
    14   6 C        3.690    -0.064    21.929     6.702
    15   1 H        0.925     0.131     1.529     1.934
    16   1 H        0.925     0.141     1.452     1.884
    17   1 H        0.926     0.105     1.743     2.064
    18   1 H        0.925     0.124     1.582     1.967
    19   1 H        0.925     0.104     1.750     2.069
    20   1 H        0.924     0.095     1.832     2.117
    21   1 H        0.925     0.100     1.787     2.091
    22   1 H        0.924     0.073     2.053     2.241
    23   1 H        0.924     0.073     2.049     2.239
    24   1 H        0.924     0.118     1.627     1.995
    25   1 H        0.860     0.220     1.010     1.574

Wiberg/Mayer (AO) data.
largest (>0.10) Wiberg bond orders for each atom

     #   Z sym  total        # sym  WBO       # sym  WBO       # sym  WBO
 ---------------------------------------------------------------------------
     1   6 C    3.753 --     2 N    1.791    16 H    0.934    15 H    0.924
     2   7 N    3.478 --     1 C    1.791     3 C    1.508     4 N    0.122
     3   6 C    3.892 --     2 N    1.508     4 N    1.301    18 H    0.916
     4   7 N    3.572 --     3 C    1.301     5 C    1.129    25 H    0.912
                             2 N    0.122
     5   6 C    3.864 --     6 C    1.561     4 N    1.129    17 H    0.948
     6   6 C    3.906 --     5 C    1.561    13 N    1.168     7 C    0.969
     7   6 C    3.939 --     8 O    1.720     9 N    1.148     6 C    0.969
     8   8 O    2.031 --     7 C    1.720     9 N    0.144
     9   7 N    3.537 --     7 C    1.148    11 C    1.089    10 C    0.980
                             8 O    0.144    12 O    0.112
    10   6 C    3.915 --     9 N    0.980    19 H    0.971    21 H    0.965
                            20 H    0.959
    11   6 C    3.946 --    12 O    1.714     9 N    1.089    13 N    1.054
    12   8 O    2.039 --    11 C    1.714    13 N    0.113     9 N    0.112
    13   7 N    3.488 --     6 C    1.168    11 C    1.054    14 C    0.992
                            12 O    0.113
    14   6 C    3.937 --    13 N    0.992    22 H    0.966    23 H    0.966
                            24 H    0.964
    15   1 H    0.969 --     1 C    0.924
    16   1 H    0.972 --     1 C    0.934
    17   1 H    0.988 --     5 C    0.948
    18   1 H    0.975 --     3 C    0.916
    19   1 H    0.985 --    10 C    0.971
    20   1 H    0.979 --    10 C    0.959
    21   1 H    0.982 --    10 C    0.965
    22   1 H    0.987 --    14 C    0.966
    23   1 H    0.987 --    14 C    0.966
    24   1 H    0.985 --    14 C    0.964
    25   1 H    0.951 --     4 N    0.912
 ---------------------------------------------------------------------------

molecular dipole:
                 x           y           z       tot (Debye)
 q only:        3.826      -1.568       0.090
   full:        3.965      -1.831       0.154      11.107

           -------------------------------------------------
          | TOTAL ENERGY              -42.172790269332 Eh   |
          | GRADIENT NORM               0.006876034589 Eh/α |
          | HOMO-LUMO GAP               2.139996093681 eV   |
           -------------------------------------------------

 * finished run on 2024/06/05 at 20:00:23.370
