   * xtb version 6.6.1 (8d0f1dd) compiled by 'conda@1efc2f54142f' on 2023-08-01
          program call               : xtb struc.xyz --opt loose --input .xc1 --gfn2

   ID    Z sym.   atoms
    1    6 C      1, 3, 5-7, 10, 11, 14
    2    7 N      2, 4, 9, 13
    3    8 O      8, 12
    4    1 H      15-25
constraining bond 6 19 to    4.7133300 Å, actual value:    3.8841935 Å

          :  Hamiltonian                  GFN2-xTB          :
 * total energy  :   -43.4727785 Eh     change       -0.6633627E-10 Eh
 * total energy  :   -46.4309453 Eh     change       -0.2958167E+01 Eh
 * total energy  :   -50.8053557 Eh     change       -0.4374410E+01 Eh
 * total energy  :   -56.4753879 Eh     change       -0.5670032E+01 Eh
 * total energy  :   -62.0892921 Eh     change       -0.5613904E+01 Eh
 * total energy  :   -69.6815617 Eh     change       -0.7592270E+01 Eh
 * total energy  :   -48.4317739 Eh     change        0.2124979E+02 Eh
 * total energy  :   -71.5498220 Eh     change       -0.2311805E+02 Eh
 * total energy  :   -71.9401639 Eh     change       -0.3903419E+00 Eh
 * total energy  :   -72.7692778 Eh     change       -0.8291140E+00 Eh
 * total energy  :   -73.3235242 Eh     change       -0.5183430E-04 Eh
 * total energy  :   -73.3235011 Eh     change        0.2309871E-04 Eh
 * total energy  :   -73.3235778 Eh     change       -0.7678862E-04 Eh
 * total energy  :   -73.3235294 Eh     change        0.4848258E-04 Eh
 * total energy  :   -73.3235962 Eh     change       -0.6685626E-04 Eh
 * total energy  :   -73.3236071 Eh     change       -0.1087575E-04 Eh
 * total energy  :   -73.3236247 Eh     change       -0.1756907E-04 Eh
 * total energy  :   -73.3236413 Eh     change       -0.1666176E-04 Eh
 * total energy  :   -73.3236518 Eh     change       -0.1047872E-04 Eh
   *** GEOMETRY OPTIMIZATION CONVERGED AFTER 90 ITERATIONS ***

 final structure:
================
25
 xtb: 6.6.1 (8d0f1dd)
C            3.98760117624287        0.77603059695145        0.32779748410048
N            2.68585681635039        0.21470440694120        0.24952543513818
C            2.47484050423913       -1.01449576748494        0.07991694599335
N            1.19689662820338       -1.51267089874875        0.00261239924524
C            0.08579086005303       -0.73109287827185        0.07932406363872
C            0.04235212498237        0.64817298200743        0.33619827203312
C           -2.03522244148493        2.70990155561595       -0.94397881802779
O           -1.87701858201043        2.78573235058831       -2.07239564465192
N           -1.37832087286952        0.88645270469148        0.30396815751764
C           -2.02944899568401        2.16506390859077        0.38163794100650
C           -2.10812566863151       -0.26555942488407        0.01918038694908
O           -3.30390964017333       -0.32981245079822       -0.08697851700254
N           -1.16896115512824       -1.26228654366680       -0.08876802992361
C           -1.51464344595012       -2.63463264819326       -0.36638335314304
H            4.10311643439146        1.23730147521148        1.30914248932280
H            4.78859257378103        0.04414189572233        0.17534309542034
H            4.06430151163545        1.56506009120631       -0.41995224171943
H            3.25060281035423       -1.77943515776974       -0.02388644072211
H            0.30895297250481        0.91299805862238        0.41183194507824
H           -3.07620724548212        2.00219270023683        0.69769810239946
H           -1.54137801810565        2.83748456930393        1.09807753690546
H           -1.19331621745271       -3.28747860066884        0.44645739132883
H           -1.07591621606942       -2.96408724281684       -1.30943284713144
H           -2.60046396137396       -2.67927859151624       -0.44563545795152
H            1.07445956178881       -2.50616854927157       -0.13012867790705

          :  Hamiltonian                  GFN2-xTB          :
         :: total energy             -73.323651801548 Eh    ::
         :: gradient norm              0.002847372038 Eh/a0 ::
         :: HOMO-LUMO gap              0.943284352951 eV    ::
         :: SCC energy               -42.683649702355 Eh    ::
         :: -> dispersion             -0.020814761892 Eh    ::
         :: repulsion energy           2.836930774502 Eh    ::

    * Orbital Energies and Occupations

         #    Occupation            Energy/Eh            Energy/eV
      -------------------------------------------------------------
         1        2.0000           -0.9688297             -26.3632
       ...           ...                  ...                  ...
        25        2.0000           -0.6567325             -17.8706
        26        2.0000           -0.6538179             -17.7913
        27        2.0000           -0.6462963             -17.5866
        28        2.0000           -0.6344011             -17.2629
        29        2.0000           -0.6323182             -17.2063
        30        2.0000           -0.6151022             -16.7378
        31        2.0000           -0.6138171             -16.7028
        32        2.0000           -0.5985137             -16.2864
        33        2.0000           -0.5852263             -15.9248
        34        1.9999           -0.5692227             -15.4893
        35        1.9975           -0.5455088             -14.8441
        36        1.8777           -0.5142674             -13.9939
        37        1.8365           -0.5117935             -13.9266 (HOMO)
        38        0.2470           -0.4771285             -12.9833 (LUMO)
        39        0.0416           -0.4621435             -12.5756
        40        0.0000           -0.3779915             -10.2857
        41                         -0.3399225              -9.2498
        42                         -0.3174317              -8.6378
        43                         -0.1988338              -5.4105
        44                         -0.1554585              -4.2302
        45                         -0.1014731              -2.7612
        46                         -0.0830122              -2.2589
        47                         -0.0814964              -2.2176
        48                         -0.0482155              -1.3120
       ...                                ...                  ...
        67                         14.6743187             399.3085
      -------------------------------------------------------------
                  HL-Gap            0.0346651 Eh            0.9433 eV

     #   Z          covCN         q      C6AA      α(0)
     1   6 C        3.710    -0.042    21.460     6.620
     2   7 N        1.831    -0.197    26.091     7.569
     3   6 C        2.788     0.118    25.380     8.252
     4   7 N        2.697    -0.106    23.329     7.174
     5   6 C        3.018     0.113    25.479     8.280
     6   6 C        2.874    -0.116    30.931     9.117
     7   6 C        1.858     0.274    24.868     8.055
     8   8 O        0.856    -0.017    15.342     5.251
     9   7 N        2.882    -0.086    22.908     7.109
    10   6 C        3.742    -0.009    20.813     6.509
    11   6 C        2.813     0.303    21.857     7.660
    12   8 O        0.857    -0.403    21.747     6.252
    13   7 N        2.800    -0.067    22.536     7.051
    14   6 C        3.690    -0.065    21.945     6.704
    15   1 H        0.924     0.085     1.930     2.173
    16   1 H        0.924     0.053     2.279     2.361
    17   1 H        0.925     0.084     1.943     2.180
    18   1 H        0.924     0.053     2.288     2.365
    19   1 H        0.959     0.181     1.196     1.710
    20   1 H        0.922     0.191     1.146     1.674
    21   1 H        0.924     0.167     1.281     1.770
    22   1 H        0.924     0.081     1.973     2.197
    23   1 H        0.924     0.079     1.987     2.204
    24   1 H        0.925     0.114     1.661     2.015
    25   1 H        0.860     0.210     1.054     1.608

Wiberg/Mayer (AO) data.
largest (>0.10) Wiberg bond orders for each atom

     #   Z sym  total        # sym  WBO       # sym  WBO       # sym  WBO
 ---------------------------------------------------------------------------
     1   6 C    3.952 --     2 N    1.045    16 H    0.960    17 H    0.954
                            15 H    0.952
     2   7 N    3.012 --     3 C    1.776     1 C    1.045
     3   6 C    3.948 --     2 N    1.776     4 N    1.142    18 H    0.926
     4   7 N    3.469 --     5 C    1.173     3 C    1.142    25 H    0.923
     5   6 C    3.927 --     6 C    1.455     4 N    1.173    13 N    1.153
     6   6 C    3.763 --     5 C    1.455     9 N    1.072    19 H    0.952
     7   6 C    3.546 --     8 O    2.259    10 C    1.094
     8   8 O    2.456 --     7 C    2.259
     9   7 N    3.471 --     6 C    1.072    11 C    1.070    10 C    0.978
                            12 O    0.127
    10   6 C    3.942 --     7 C    1.094     9 N    0.978    21 H    0.901
                            20 H    0.875
    11   6 C    3.950 --    12 O    1.652    13 N    1.125     9 N    1.070
    12   8 O    2.008 --    11 C    1.652    13 N    0.141     9 N    0.127
    13   7 N    3.558 --     5 C    1.153    11 C    1.125    14 C    0.983
                            12 O    0.141
    14   6 C    3.937 --    13 N    0.983    23 H    0.971    22 H    0.971
                            24 H    0.969
    15   1 H    0.985 --     1 C    0.952
    16   1 H    0.974 --     1 C    0.960
    17   1 H    0.985 --     1 C    0.954
    18   1 H    0.976 --     3 C    0.926
    19   1 H    0.967 --     6 C    0.952
    20   1 H    0.958 --    10 C    0.875
    21   1 H    0.966 --    10 C    0.901
    22   1 H    0.992 --    14 C    0.971
    23   1 H    0.992 --    14 C    0.971
    24   1 H    0.987 --    14 C    0.969
    25   1 H    0.955 --     4 N    0.923
 ---------------------------------------------------------------------------

molecular dipole:
                 x           y           z       tot (Debye)
 q only:        0.054       1.040       0.120
   full:        0.347       0.636       0.088       1.855

           -------------------------------------------------
          | TOTAL ENERGY              -73.323651801548 Eh   |
          | GRADIENT NORM               0.002847372038 Eh/α |
          | HOMO-LUMO GAP               0.943284352951 eV   |
           -------------------------------------------------

 * finished run on 2024/06/05 at 19:58:14.686
