   * xtb version 6.6.1 (8d0f1dd) compiled by 'conda@1efc2f54142f' on 2023-08-01
          program call               : xtb xtbopt.xyz --opt crude --input .xc2 --gfn2

   ID    Z sym.   atoms
    1    6 C      1, 3, 5-7, 10, 11, 14
    2    7 N      2, 4, 9, 13
    3    8 O      8, 12
    4    1 H      15-25
########################################################################
[WARNING] Please study the warnings concerning your input carefully
-1- readin_getIntValue: could not parse ''
########################################################################

          :  Hamiltonian                  GFN2-xTB          :
 * total energy  :   -39.8466256 Eh     change       -0.3083755E-11 Eh
 * total energy  :   -42.0647283 Eh     change       -0.2218103E+01 Eh
 * total energy  :   -42.1108847 Eh     change       -0.4615641E-01 Eh
 * total energy  :   -42.1162715 Eh     change       -0.5386791E-02 Eh
 * total energy  :   -42.1174166 Eh     change       -0.1145146E-02 Eh
 * total energy  :   -42.1178585 Eh     change       -0.4419015E-03 Eh
 * total energy  :   -42.1184423 Eh     change       -0.5838009E-03 Eh
 * total energy  :   -42.1189174 Eh     change       -0.4750479E-03 Eh
 * total energy  :   -42.1192608 Eh     change       -0.3433841E-03 Eh
 * total energy  :   -42.1193771 Eh     change       -0.1163503E-03 Eh
   *** GEOMETRY OPTIMIZATION CONVERGED AFTER 10 ITERATIONS ***

 final structure:
================
25
 xtb: 6.6.1 (8d0f1dd)
C            4.06748685048842        0.70779507572932        0.33634300418003
N            2.73479699710105        0.22042814880028        0.24708795221933
C            2.47477505732764       -1.00037023974961        0.07754399827422
N            1.19087855785779       -1.47191566426675       -0.01556586659845
C            0.06637721759051       -0.70893836483882        0.06799397506311
C           -0.07910336879899        0.62713836279041        0.32340134518003
C           -2.15596284040477        2.67775283926571       -0.95745269870003
O           -1.98157493622928        2.68193243119205       -2.08869097540069
N           -1.43410062580307        0.89098142572941        0.33064232744653
C           -2.11441589004279        2.15511508533429        0.38111314925768
C           -2.13970622006331       -0.28225151341625        0.03090212964526
O           -3.33620233728372       -0.36128656902254       -0.06896110349504
N           -1.18629146601918       -1.26090758512697       -0.09798925639620
C           -1.50883636903363       -2.63540606110729       -0.38942882018502
H            4.19022950142826        1.19879214712887        1.30257191625191
H            4.82552563904926       -0.07565277546636        0.22733675663792
H            4.20981447284700        1.46131302486111       -0.43922320744827
H            3.23113834037917       -1.78761975851129       -0.01512304555317
H            0.66858224726575        1.36047755399611        0.53212317074520
H           -3.15247613903723        1.96697388594877        0.70829381352542
H           -1.64369188707137        2.85713446645868        1.07902700797669
H           -1.18210060876958       -3.29017622648497        0.41984678658435
H           -1.05847126170399       -2.94990521599490       -1.33209017903499
H           -2.59278930745485       -2.69816920486015       -0.47649298568855
H            1.06654989049183       -2.46499672679046       -0.15203757659023

          :  Hamiltonian                  GFN2-xTB          :
         :: total energy             -42.119377101101 Eh    ::
         :: gradient norm              0.004579195615 Eh/a0 ::
         :: HOMO-LUMO gap              0.875714165041 eV    ::
         :: SCC energy               -42.668983317629 Eh    ::
         :: -> dispersion             -0.020684307502 Eh    ::
         :: repulsion energy           0.549516890949 Eh    ::

    * Orbital Energies and Occupations

         #    Occupation            Energy/Eh            Energy/eV
      -------------------------------------------------------------
         1        2.0000           -0.9625657             -26.1927
       ...           ...                  ...                  ...
        25        2.0000           -0.6571644             -17.8824
        26        2.0000           -0.6542322             -17.8026
        27        2.0000           -0.6468089             -17.6006
        28        2.0000           -0.6358174             -17.3015
        29        2.0000           -0.6322541             -17.2045
        30        2.0000           -0.6164847             -16.7754
        31        2.0000           -0.6153223             -16.7438
        32        2.0000           -0.5970515             -16.2466
        33        2.0000           -0.5852006             -15.9241
        34        1.9999           -0.5704824             -15.5236
        35        1.9978           -0.5449578             -14.8291
        36        1.8889           -0.5134963             -13.9729
        37        1.8069           -0.5087680             -13.8443 (HOMO)
        38        0.2768           -0.4765861             -12.9686 (LUMO)
        39        0.0297           -0.4578417             -12.4585
        40        0.0000           -0.3714132             -10.1067
        41                         -0.3386523              -9.2152
        42                         -0.3117460              -8.4830
        43                         -0.1842320              -5.0132
        44                         -0.1585537              -4.3145
        45                         -0.1057145              -2.8766
        46                         -0.0812140              -2.2099
        47                         -0.0672702              -1.8305
        48                         -0.0393896              -1.0718
       ...                                ...                  ...
        67                          0.7463626              20.3096
      -------------------------------------------------------------
                  HL-Gap            0.0321819 Eh            0.8757 eV

     #   Z          covCN         q      C6AA      α(0)
     1   6 C        3.712    -0.040    21.422     6.614
     2   7 N        1.829    -0.205    26.274     7.596
     3   6 C        2.787     0.119    25.379     8.252
     4   7 N        2.695    -0.104    23.284     7.167
     5   6 C        2.977     0.117    25.425     8.271
     6   6 C        2.951    -0.048    29.194     8.862
     7   6 C        1.855     0.265    25.066     8.087
     8   8 O        0.856    -0.029    15.509     5.280
     9   7 N        2.855    -0.052    22.249     7.006
    10   6 C        3.743    -0.012    20.859     6.516
    11   6 C        2.854     0.303    21.875     7.666
    12   8 O        0.857    -0.401    21.696     6.245
    13   7 N        2.825    -0.064    22.467     7.040
    14   6 C        3.690    -0.065    21.945     6.704
    15   1 H        0.924     0.083     1.947     2.182
    16   1 H        0.924     0.051     2.309     2.377
    17   1 H        0.924     0.083     1.952     2.185
    18   1 H        0.924     0.051     2.306     2.375
    19   1 H        0.927     0.110     1.695     2.036
    20   1 H        0.923     0.190     1.151     1.678
    21   1 H        0.924     0.164     1.302     1.785
    22   1 H        0.924     0.080     1.978     2.200
    23   1 H        0.924     0.079     1.989     2.206
    24   1 H        0.925     0.114     1.666     2.018
    25   1 H        0.860     0.213     1.043     1.600

Wiberg/Mayer (AO) data.
largest (>0.10) Wiberg bond orders for each atom

     #   Z sym  total        # sym  WBO       # sym  WBO       # sym  WBO
 ---------------------------------------------------------------------------
     1   6 C    3.953 --     2 N    1.044    16 H    0.962    17 H    0.954
                            15 H    0.953
     2   7 N    3.002 --     3 C    1.770     1 C    1.044
     3   6 C    3.948 --     2 N    1.770     4 N    1.148    18 H    0.926
     4   7 N    3.455 --     5 C    1.165     3 C    1.148    25 H    0.923
     5   6 C    3.919 --     6 C    1.469     4 N    1.165    13 N    1.132
     6   6 C    3.814 --     5 C    1.469     9 N    1.139    19 H    0.956
     7   6 C    3.522 --     8 O    2.242    10 C    1.083
     8   8 O    2.435 --     7 C    2.242
     9   7 N    3.499 --     6 C    1.139    11 C    1.047    10 C    0.979
                            12 O    0.120
    10   6 C    3.939 --     7 C    1.083     9 N    0.979    21 H    0.905
                            20 H    0.880
    11   6 C    3.945 --    12 O    1.652    13 N    1.140     9 N    1.047
    12   8 O    2.001 --    11 C    1.652    13 N    0.146     9 N    0.120
    13   7 N    3.552 --    11 C    1.140     5 C    1.132    14 C    0.985
                            12 O    0.146
    14   6 C    3.938 --    13 N    0.985    23 H    0.971    22 H    0.970
                            24 H    0.969
    15   1 H    0.984 --     1 C    0.953
    16   1 H    0.977 --     1 C    0.962
    17   1 H    0.985 --     1 C    0.954
    18   1 H    0.979 --     3 C    0.926
    19   1 H    0.987 --     6 C    0.956
    20   1 H    0.960 --    10 C    0.880
    21   1 H    0.968 --    10 C    0.905
    22   1 H    0.992 --    14 C    0.970
    23   1 H    0.992 --    14 C    0.971
    24   1 H    0.986 --    14 C    0.969
    25   1 H    0.954 --     4 N    0.923
 ---------------------------------------------------------------------------

molecular dipole:
                 x           y           z       tot (Debye)
 q only:       -0.046       0.957       0.167
   full:        0.322       0.620       0.162       1.824

           -------------------------------------------------
          | TOTAL ENERGY              -42.119377101101 Eh   |
          | GRADIENT NORM               0.004579195615 Eh/α |
          | HOMO-LUMO GAP               0.875714165041 eV   |
           -------------------------------------------------

 * finished run on 2024/06/05 at 19:58:15.104
