   * xtb version 6.6.1 (8d0f1dd) compiled by 'conda@1efc2f54142f' on 2023-08-01
          program call               : xtb struc.xyz --opt loose --input .xc1 --gfn2

   ID    Z sym.   atoms
    1    7 N      1, 17
    2    6 C      2-6, 8, 9, 11-16, 18-23, 25, 26, 28-33
    3    8 O      7, 10, 24, 27
    4    1 H      34-72
constraining bond 3 66 to    5.1400000 Å, actual value:    2.8242186 Å

          :  Hamiltonian                  GFN2-xTB          :
 * total energy  :   -98.4465780 Eh     change       -0.4035485E-08 Eh
 * total energy  :   -98.7851129 Eh     change       -0.3385349E+00 Eh
 * total energy  :   -98.9877099 Eh     change       -0.2025969E+00 Eh
 * total energy  :   -99.0988265 Eh     change       -0.1111166E+00 Eh
 * total energy  :   -99.1582304 Eh     change       -0.5940398E-01 Eh
 * total energy  :   -99.1878829 Eh     change       -0.2965243E-01 Eh
 * total energy  :   -99.2017303 Eh     change       -0.1384742E-01 Eh
 * total energy  :   -99.2092923 Eh     change       -0.7561962E-02 Eh
 * total energy  :   -99.2155730 Eh     change       -0.6280714E-02 Eh
 * total energy  :   -99.2222856 Eh     change       -0.6712672E-02 Eh
 * total energy  :   -99.3369845 Eh     change       -0.3509601E-03 Eh
 * total energy  :   -99.3372274 Eh     change       -0.2429042E-03 Eh
 * total energy  :   -99.3374644 Eh     change       -0.2369433E-03 Eh
 * total energy  :   -99.3376668 Eh     change       -0.2024212E-03 Eh
 * total energy  :   -99.3377782 Eh     change       -0.1113964E-03 Eh
 * total energy  :   -99.3378539 Eh     change       -0.7571104E-04 Eh
 * total energy  :   -99.3379316 Eh     change       -0.7767048E-04 Eh
 * total energy  :   -99.3379936 Eh     change       -0.6203136E-04 Eh
 * total energy  :   -99.3380407 Eh     change       -0.4713207E-04 Eh
   *** GEOMETRY OPTIMIZATION CONVERGED AFTER 53 ITERATIONS ***

 final structure:
================
72
 xtb: 6.6.1 (8d0f1dd)
N           -2.62768611121720        2.58330754573765        2.35976878752206
C           -2.00787758867235        2.10988540762382        1.29158309661030
C           -2.97563667077207        1.82098816968761        0.19118101879013
C           -3.43379239374364        0.36436178075533        0.23623832999691
C           -4.41191716043257       -0.07403865537983       -0.65844791922631
C           -4.88034891163301       -1.37640710971987       -0.62943372909958
O           -5.81830187618710       -1.88799248020007       -1.45292849126735
C           -6.43675269091632       -1.04988094261993       -2.40034260888687
C           -4.36226611568178       -2.28460223947371        0.33299947002307
O           -4.88929079509734       -3.52544292689407        0.30102222424557
C           -4.50409774793318       -4.45624044007072        1.28570132342175
C           -3.38452969614630       -1.84331129610281        1.20821479589782
C           -2.92429577830461       -0.53224493408816        1.15788695647150
C           -2.41496775510874        2.16619002859819       -1.20097308559252
C           -1.43075582716010        1.12147396428832       -1.75393028930419
C           -0.12765348293236        1.10537672859307       -1.05544857694995
N            0.51212858308733        0.01545094204753       -0.63432531656935
C            1.89121518934742        0.09596746349113       -0.21521766408068
C            2.85597655776447       -0.31232196887000       -1.34694486926109
C            4.28071146986503       -0.12314728102340       -0.90823834593296
C            4.93083364100920        1.08055287670731       -1.12128230314246
C            6.23850223115709        1.26579373669740       -0.69882306740085
C            6.92090232028850        0.24891882182189       -0.04797856193195
O            8.18869414618026        0.31683618117074        0.40339172346275
C            8.92563058576553        1.50023234769693        0.20027434986596
C            6.26101290387870       -0.98960235522137        0.17816830337016
O            6.99885772326941       -1.92473413566974        0.81258499911891
C            6.44388746046098       -3.19635604834310        1.04690271006782
C            4.95403604820071       -1.15139702240429       -0.25176090696853
C           -0.04611644817239       -1.30594676772327       -0.78822729582224
C           -4.18182253645517        2.72540627815881        0.63116252914040
C           -4.04505922071324        2.73547298537089        2.16314195608366
C           -4.11539171535385        4.15222525938958        0.09712932890104
H           -4.81529173986347        0.61797640012793       -1.37958075052526
H           -6.95056407822845       -0.21106015046003       -1.92083930561653
H           -7.16822433026205       -1.67521920321917       -2.90836570924121
H           -5.71705032808839       -0.66997632088064       -3.13278967511131
H           -4.71374703470080       -4.08346249452968        2.29290388953146
H           -5.10380186556199       -5.34472792892105        1.09833145452942
H           -3.44297841812034       -4.71281148331507        1.20365503016245
H           -2.97368594543858       -2.51072096438728        1.94807284205828
H           -2.16674138274956       -0.21918833438429        1.86111723648843
H           -3.24688590148718        2.23928094596285       -1.90026893133731
H           -1.92331375703222        3.13802794421701       -1.16165586608076
H           -1.90118965394624        0.14038059917878       -1.74938115366191
H           -1.24312154782193        1.39372842480001       -2.80113210347641
H           -0.94262788535252        1.98086251328497        1.25537616138907
H            0.38992624559945        2.04404680704609       -0.93475967957543
H            2.04375262513290       -0.55933616848200        0.64643161731210
H            2.11829456312157        1.11985086107741        0.08816412152855
H            2.65046930695214        0.30982001335032       -2.21976675244581
H            2.68192100370436       -1.35467803905949       -1.61618448825557
H            4.42517768429351        1.88466946311980       -1.63419493376449
H            6.72107320863862        2.21043100775092       -0.88838311468487
H            8.46133223393970        2.35336583394190        0.70455962366750
H            9.04024387405834        1.72298087745622       -0.86485351849946
H            9.90472804476495        1.31287214358987        0.63687623037989
H            7.22483186183903       -3.76871022577924        1.54379353507927
H            5.56767367961025       -3.13849114964185        1.70096627088091
H            6.17076843768203       -3.69417222928380        0.11114473582623
H            4.44738070158285       -2.09061564005272       -0.09320390213568
H           -0.08625124876319       -1.60320668380004       -1.83895508219281
H           -1.05537713518529       -1.34186773764967       -0.37410020037837
H            0.57305817615461       -2.01943336032213       -0.25004766456898
H           -5.12717062212347        2.27557297575913        0.32966005082731
H           -4.82105932141524        4.99240667591758        3.76679707433820
H           -4.58053896722312        1.90001842255837        2.62597955109760
H           -4.40173345475995        3.67200735044080        2.64492263192938
H           -3.17391144211868        4.62650851639592        0.36274394314199
H           -4.23341614819314        4.18220481812257       -0.98188830503143
H           -4.92173143475487        4.73452829339242        0.53592395741561
H           -2.18753074454567        2.83550283515553        3.23114715006981

          :  Hamiltonian                  GFN2-xTB          :
         :: total energy             -99.338040726658 Eh    ::
         :: gradient norm              0.002035433986 Eh/a0 ::
         :: HOMO-LUMO gap              0.707117152047 eV    ::
         :: SCC energy              -100.693958854456 Eh    ::
         :: -> dispersion             -0.074825071547 Eh    ::
         :: repulsion energy           1.354777317102 Eh    ::

    * Orbital Energies and Occupations

         #    Occupation            Energy/Eh            Energy/eV
      -------------------------------------------------------------
         1        2.0000           -0.8079642             -21.9858
       ...           ...                  ...                  ...
        78        1.9994           -0.5374589             -14.6250
        79        1.9994           -0.5353977             -14.5689
        80        1.9992           -0.5327470             -14.4968
        81        1.9990           -0.5283741             -14.3778
        82        1.9989           -0.5276545             -14.3582
        83        1.9986           -0.5237413             -14.2517
        84        1.9983           -0.5202600             -14.1570
        85        1.9976           -0.5149966             -14.0138
        86        1.9904           -0.4926183             -13.4048
        87        1.9824           -0.4830370             -13.1441
        88        1.9311           -0.4609777             -12.5438
        89        1.8730           -0.4508253             -12.2676
        90        1.2672           -0.4168814             -11.3439 (HOMO)
        91        0.5019           -0.3908954             -10.6368 (LUMO)
        92        0.4479           -0.3885333             -10.5725
        93        0.0070           -0.3187083              -8.6725
        94        0.0059           -0.3158887              -8.5958
        95        0.0033           -0.3069853              -8.3535
        96        0.0028           -0.3044189              -8.2837
        97        0.0000           -0.1929913              -5.2516
        98        0.0000           -0.1817981              -4.9470
        99                         -0.1294133              -3.5215
       100                         -0.1099053              -2.9907
       101                         -0.0834536              -2.2709
       ...                                ...                  ...
       171                          0.5826280              15.8541
      -------------------------------------------------------------
                  HL-Gap            0.0259861 Eh            0.7071 eV

     #   Z          covCN         q      C6AA      α(0)
     1   7 N        2.713    -0.054    22.292     7.012
     2   6 C        2.904     0.011    27.768     8.640
     3   6 C        3.932     0.012    20.314     6.405
     4   6 C        2.973    -0.008    28.223     8.714
     5   6 C        2.920    -0.083    30.077     8.993
     6   6 C        2.863     0.129    25.167     8.223
     7   8 O        1.706    -0.232    17.849     5.704
     8   6 C        3.644     0.028    20.443     6.499
     9   6 C        2.865     0.128    25.192     8.227
    10   8 O        1.706    -0.232    17.845     5.703
    11   6 C        3.645     0.028    20.443     6.498
    12   6 C        2.914    -0.077    29.912     8.968
    13   6 C        2.921    -0.060    29.479     8.904
    14   6 C        3.805    -0.068    21.791     6.645
    15   6 C        3.802    -0.069    21.826     6.651
    16   6 C        2.843    -0.010    28.254     8.711
    17   7 N        2.729     0.008    21.125     6.826
    18   6 C        3.756    -0.017    20.929     6.523
    19   6 C        3.808    -0.070    21.838     6.652
    20   6 C        2.969    -0.002    28.075     8.691
    21   6 C        2.922    -0.050    29.246     8.868
    22   6 C        2.914    -0.069    29.707     8.938
    23   6 C        2.865     0.132    25.110     8.214
    24   8 O        1.706    -0.226    17.750     5.688
    25   6 C        3.645     0.026    20.466     6.502
    26   6 C        2.863     0.132    25.119     8.215
    27   8 O        1.706    -0.229    17.793     5.695
    28   6 C        3.645     0.029    20.430     6.497
    29   6 C        2.920    -0.080    30.011     8.984
    30   6 C        3.700    -0.071    22.036     6.713
    31   6 C        3.894    -0.022    20.904     6.500
    32   6 C        3.796    -0.021    20.954     6.518
    33   6 C        3.754    -0.118    22.818     6.811
    34   1 H        0.926     0.050     2.318     2.381
    35   1 H        0.924     0.051     2.312     2.378
    36   1 H        0.925     0.081     1.969     2.194
    37   1 H        0.924     0.047     2.361     2.403
    38   1 H        0.924     0.052     2.296     2.369
    39   1 H        0.925     0.081     1.974     2.197
    40   1 H        0.924     0.047     2.357     2.401
    41   1 H        0.926     0.050     2.321     2.382
    42   1 H        0.926     0.030     2.586     2.515
    43   1 H        0.925     0.063     2.163     2.300
    44   1 H        0.925     0.058     2.227     2.333
    45   1 H        0.925     0.066     2.134     2.284
    46   1 H        0.923     0.078     1.998     2.211
    47   1 H        0.926     0.058     2.222     2.331
    48   1 H        0.926     0.061     2.183     2.311
    49   1 H        0.924     0.065     2.142     2.289
    50   1 H        0.924     0.065     2.142     2.289
    51   1 H        0.924     0.053     2.277     2.360
    52   1 H        0.924     0.054     2.265     2.353
    53   1 H        0.926     0.043     2.412     2.428
    54   1 H        0.926     0.056     2.243     2.342
    55   1 H        0.924     0.052     2.295     2.369
    56   1 H        0.924     0.054     2.270     2.356
    57   1 H        0.925     0.080     1.974     2.197
    58   1 H        0.925     0.080     1.979     2.200
    59   1 H        0.924     0.046     2.366     2.406
    60   1 H        0.924     0.051     2.311     2.378
    61   1 H        0.926     0.045     2.385     2.415
    62   1 H        0.924     0.074     2.040     2.234
    63   1 H        0.924     0.079     1.986     2.204
    64   1 H        0.925     0.077     2.007     2.215
    65   1 H        0.925     0.059     2.214     2.327
    66   1 H        0.000    -0.232    33.767    10.625
    67   1 H        0.924     0.071     2.079     2.255
    68   1 H        0.921     0.106     1.730     2.057
    69   1 H        0.925     0.046     2.374     2.410
    70   1 H        0.925     0.052     2.301     2.372
    71   1 H        0.925     0.065     2.140     2.287
    72   1 H        0.860     0.192     1.149     1.679

Wiberg/Mayer (AO) data.
largest (>0.10) Wiberg bond orders for each atom

     #   Z sym  total        # sym  WBO       # sym  WBO       # sym  WBO
 ---------------------------------------------------------------------------
     1   7 N    3.418 --     2 C    1.425    32 C    0.997    72 H    0.934
     2   6 C    3.519 --     1 N    1.425     3 C    1.021    47 H    0.961
     3   6 C    3.983 --     2 C    1.021    14 C    0.970     4 C    0.953
                            31 C    0.938
     4   6 C    3.939 --    13 C    1.428     5 C    1.365     3 C    0.953
     5   6 C    3.967 --     6 C    1.405     4 C    1.365    34 H    0.959
     6   6 C    3.918 --     5 C    1.405     9 C    1.226     7 O    1.098
     7   8 O    2.264 --     6 C    1.098     8 C    0.978
     8   6 C    3.934 --     7 O    0.978    36 H    0.977    37 H    0.974
                            35 H    0.974
     9   6 C    3.917 --    12 C    1.400     6 C    1.226    10 O    1.099
    10   8 O    2.262 --     9 C    1.099    11 C    0.978
    11   6 C    3.933 --    10 O    0.978    39 H    0.977    38 H    0.975
                            40 H    0.974
    12   6 C    3.969 --     9 C    1.400    13 C    1.394    41 H    0.964
    13   6 C    3.964 --     4 C    1.428    12 C    1.394    42 H    0.963
    14   6 C    3.965 --    15 C    0.982    44 H    0.973     3 C    0.970
                            43 H    0.968
    15   6 C    3.988 --    16 C    1.060    14 C    0.982    45 H    0.962
                            46 H    0.930
    16   6 C    3.510 --    17 N    1.381    15 C    1.060    48 H    0.959
    17   7 N    3.439 --    16 C    1.381    30 C    1.000    18 C    0.990
    18   6 C    3.957 --    17 N    0.990    50 H    0.968    19 C    0.965
                            49 H    0.965
    19   6 C    3.975 --    20 C    1.008    51 H    0.972    52 H    0.972
                            18 C    0.965
    20   6 C    3.950 --    21 C    1.414    29 C    1.377    19 C    1.008
    21   6 C    3.955 --    20 C    1.414    22 C    1.414    53 H    0.968
    22   6 C    3.963 --    21 C    1.414    23 C    1.388    54 H    0.963
    23   6 C    3.901 --    22 C    1.388    26 C    1.224    24 O    1.105
    24   8 O    2.255 --    23 C    1.105    25 C    0.977
    25   6 C    3.931 --    57 H    0.977    24 O    0.977    55 H    0.973
                            56 H    0.973
    26   6 C    3.905 --    29 C    1.399    23 C    1.224    27 O    1.098
    27   8 O    2.254 --    26 C    1.098    28 C    0.980
    28   6 C    3.934 --    27 O    0.980    58 H    0.977    59 H    0.974
                            60 H    0.974
    29   6 C    3.962 --    26 C    1.399    20 C    1.377    61 H    0.963
    30   6 C    3.959 --    17 N    1.000    64 H    0.978    62 H    0.966
                            63 H    0.961
    31   6 C    3.975 --    33 C    1.012    32 C    0.989    65 H    0.966
                             3 C    0.938
    32   6 C    3.899 --     1 N    0.997    31 C    0.989    67 H    0.950
                            68 H    0.899
    33   6 C    3.988 --    31 C    1.012    69 H    0.985    70 H    0.982
                            71 H    0.979
    34   1 H    0.996 --     5 C    0.959
    35   1 H    0.995 --     8 C    0.974
    36   1 H    0.993 --     8 C    0.977
    37   1 H    0.995 --     8 C    0.974
    38   1 H    0.995 --    11 C    0.975
    39   1 H    0.993 --    11 C    0.977
    40   1 H    0.995 --    11 C    0.974
    41   1 H    0.996 --    12 C    0.964
    42   1 H    0.999 --    13 C    0.963
    43   1 H    0.994 --    14 C    0.968
    44   1 H    0.996 --    14 C    0.973
    45   1 H    0.995 --    15 C    0.962
    46   1 H    0.966 --    15 C    0.930
    47   1 H    0.996 --     2 C    0.961
    48   1 H    0.996 --    16 C    0.959
    49   1 H    0.991 --    18 C    0.965
    50   1 H    0.995 --    18 C    0.968
    51   1 H    0.996 --    19 C    0.972
    52   1 H    0.996 --    19 C    0.972
    53   1 H    0.998 --    21 C    0.968
    54   1 H    0.995 --    22 C    0.963
    55   1 H    0.993 --    25 C    0.973
    56   1 H    0.993 --    25 C    0.973
    57   1 H    0.993 --    25 C    0.977
    58   1 H    0.993 --    28 C    0.977
    59   1 H    0.994 --    28 C    0.974
    60   1 H    0.994 --    28 C    0.974
    61   1 H    0.997 --    29 C    0.963
    62   1 H    0.983 --    30 C    0.966
    63   1 H    0.987 --    30 C    0.961
    64   1 H    0.994 --    30 C    0.978
    65   1 H    0.996 --    31 C    0.966
    66   1 H    0.079
    67   1 H    0.982 --    32 C    0.950
    68   1 H    0.984 --    32 C    0.899
    69   1 H    0.998 --    33 C    0.985
    70   1 H    0.997 --    33 C    0.982
    71   1 H    0.994 --    33 C    0.979
    72   1 H    0.963 --     1 N    0.934
 ---------------------------------------------------------------------------

molecular dipole:
                 x           y           z       tot (Debye)
 q only:        0.492      -0.242      -0.854
   full:        0.581      -0.080      -0.672       2.268

           -------------------------------------------------
          | TOTAL ENERGY              -99.338040726658 Eh   |
          | GRADIENT NORM               0.002035433986 Eh/α |
          | HOMO-LUMO GAP               0.707117152047 eV   |
           -------------------------------------------------

 * finished run on 2024/04/06 at 11:12:05.976
