   * xtb version 6.6.1 (8d0f1dd) compiled by 'conda@1efc2f54142f' on 2023-08-01
          program call               : xtb struc.xyz --opt loose --input .xc1 --gfn2

   ID    Z sym.   atoms
    1    6 C      1, 3, 5-7, 10, 11, 14
    2    7 N      2, 4, 9, 13
    3    8 O      8, 12
    4    1 H      15-25
constraining bond 8 21 to    4.6333300 Å, actual value:    3.5021541 Å

          :  Hamiltonian                  GFN2-xTB          :
 * total energy  :   -44.5325520 Eh     change       -0.6650680E-10 Eh
 * total energy  :   -48.4196482 Eh     change       -0.3887096E+01 Eh
 * total energy  :   -54.1443359 Eh     change       -0.5724688E+01 Eh
 * total energy  :   -61.8402944 Eh     change       -0.7695959E+01 Eh
 * total energy  :   -70.8855575 Eh     change       -0.9045263E+01 Eh
 * total energy  :   -54.0786782 Eh     change        0.1680688E+02 Eh
 * total energy  :   -67.0175323 Eh     change       -0.1293885E+02 Eh
 * total energy  :   -67.5720235 Eh     change       -0.5544913E+00 Eh
 * total energy  :   -69.3301154 Eh     change       -0.1758092E+01 Eh
 * total energy  :   -70.5627043 Eh     change       -0.1232589E+01 Eh
 * total energy  :   -72.2085936 Eh     change       -0.1731198E-04 Eh
 * total energy  :   -72.2086221 Eh     change       -0.2841674E-04 Eh
 * total energy  :   -72.2086596 Eh     change       -0.3756967E-04 Eh
 * total energy  :   -72.2087200 Eh     change       -0.6035613E-04 Eh
 * total energy  :   -72.2087599 Eh     change       -0.3992282E-04 Eh
 * total energy  :   -72.2088036 Eh     change       -0.4373419E-04 Eh
 * total energy  :   -72.2086368 Eh     change        0.1668277E-03 Eh
 * total energy  :   -72.2088387 Eh     change       -0.2018507E-03 Eh
 * total energy  :   -72.2088558 Eh     change       -0.1713237E-04 Eh
   *** GEOMETRY OPTIMIZATION CONVERGED AFTER 84 ITERATIONS ***

 final structure:
================
25
 xtb: 6.6.1 (8d0f1dd)
C            3.27820428349126        1.04432929986621        0.05319145329542
N            2.32796225757518       -0.03186405985336        0.01025451725188
C            2.58709862661343       -1.33550776423408        0.00191632848910
N            1.42631927833966       -2.03845793641935       -0.03046148132760
C            0.40121072228874       -1.14725237204930       -0.04331907355799
C            0.96140057687717        0.13441346253959       -0.01586699440449
C            0.16818212042178        1.29363472766853       -0.01179398015333
O           -1.54518297390860        3.21487898663512        0.76536171061824
N           -1.14173797998893        1.03382199635190       -0.04773820423240
C           -2.06507468194658        2.20442149776951       -0.00916733449456
C           -1.77289652192260       -0.21419057181800       -0.10459108060636
O           -2.96409546839809       -0.33916792500578       -0.16837304340478
N           -0.92606702772555       -1.34061892503786       -0.08517802712535
C           -1.51820162336758       -2.66395920165186       -0.10851676615321
H            3.70936946800402        1.13409618333686        1.05160819016590
H            4.08118592642227        0.87247770028743       -0.66230884853812
H            2.75626583555749        1.96792848321642       -0.18913751089684
H            3.56303503198131       -1.77759210122889        0.01762525317921
H           -2.22443230295269        2.51562044809089       -1.05572615187296
H           -3.01594626247583        1.84196992245994        0.39892295468761
H           -1.24190650160787        3.46135576383216        0.65375205362966
H           -1.22629434934067       -3.22608506686250        0.77879283215272
H           -1.21842773458457       -3.20041143704761       -1.00920719023624
H           -2.60029251563556       -2.53883481871709       -0.11317675827367
H            1.36075333038284       -3.04676775052828       -0.04569123029367

          :  Hamiltonian                  GFN2-xTB          :
         :: total energy             -72.208855803639 Eh    ::
         :: gradient norm              0.002086601821 Eh/a0 ::
         :: HOMO-LUMO gap              1.764172649895 eV    ::
         :: SCC energy               -42.704402535075 Eh    ::
         :: -> dispersion             -0.022148580987 Eh    ::
         :: repulsion energy           2.397004629681 Eh    ::

    * Orbital Energies and Occupations

         #    Occupation            Energy/Eh            Energy/eV
      -------------------------------------------------------------
         1        2.0000           -0.9044816             -24.6122
       ...           ...                  ...                  ...
        25        2.0000           -0.6669212             -18.1479
        26        2.0000           -0.6604566             -17.9719
        27        2.0000           -0.6463206             -17.5873
        28        1.9999           -0.6328428             -17.2205
        29        1.9999           -0.6308355             -17.1659
        30        1.9998           -0.6236957             -16.9716
        31        1.9998           -0.6181173             -16.8198
        32        1.9995           -0.6066935             -16.5090
        33        1.9983           -0.5866174             -15.9627
        34        1.9934           -0.5649715             -15.3737
        35        1.9907           -0.5596860             -15.2298
        36        1.9814           -0.5485870             -14.9278
        37        1.7765           -0.5074927             -13.8096 (HOMO)
        38        0.2339           -0.4426605             -12.0454 (LUMO)
        39        0.0238           -0.4047289             -11.0132
        40        0.0031           -0.3723349             -10.1317
        41        0.0000           -0.2843290              -7.7370
        42                         -0.2031574              -5.5282
        43                         -0.1912757              -5.2049
        44                         -0.1375881              -3.7440
        45                         -0.1250485              -3.4027
        46                         -0.0724301              -1.9709
        47                         -0.0449058              -1.2219
        48                         -0.0340855              -0.9275
       ...                                ...                  ...
        67                          5.2285716             142.2767
      -------------------------------------------------------------
                  HL-Gap            0.0648322 Eh            1.7642 eV

     #   Z          covCN         q      C6AA      α(0)
     1   6 C        3.692    -0.090    22.402     6.773
     2   7 N        2.828     0.069    20.045     6.649
     3   6 C        3.052     0.050    26.833     8.496
     4   7 N        2.783    -0.063    22.449     7.037
     5   6 C        3.048     0.114    25.454     8.275
     6   6 C        3.122     0.022    27.347     8.564
     7   6 C        1.920    -0.112    34.219     9.447
     8   8 O        1.662    -0.421    21.265     6.225
     9   7 N        2.757    -0.031    21.842     6.941
    10   6 C        3.678     0.123    18.773     6.207
    11   6 C        2.723     0.311    21.724     7.630
    12   8 O        0.859    -0.368    21.058     6.152
    13   7 N        2.738    -0.044    22.094     6.981
    14   6 C        3.697    -0.071    22.035     6.715
    15   1 H        0.924     0.108     1.717     2.049
    16   1 H        0.925     0.103     1.759     2.074
    17   1 H        0.925     0.122     1.598     1.977
    18   1 H        0.926     0.117     1.634     1.999
    19   1 H        0.923     0.075     2.035     2.231
    20   1 H        0.924     0.109     1.702     2.040
    21   1 H        0.860     0.366     0.547     1.159
    22   1 H        0.925     0.082     1.960     2.189
    23   1 H        0.924     0.082     1.955     2.187
    24   1 H        0.925     0.125     1.572     1.960
    25   1 H        0.860     0.224     0.993     1.561

Wiberg/Mayer (AO) data.
largest (>0.10) Wiberg bond orders for each atom

     #   Z sym  total        # sym  WBO       # sym  WBO       # sym  WBO
 ---------------------------------------------------------------------------
     1   6 C    3.924 --     2 N    0.989    17 H    0.968    16 H    0.966
                            15 H    0.956
     2   7 N    3.646 --     3 C    1.385     6 C    1.136     1 C    0.989
     3   6 C    3.805 --     2 N    1.385     4 N    1.255    18 H    0.955
     4   7 N    3.584 --     3 C    1.255     5 C    1.203    25 H    0.920
     5   6 C    3.906 --     6 C    1.283    13 N    1.227     4 N    1.203
     6   6 C    3.898 --     5 C    1.283     7 C    1.236     2 N    1.136
     7   6 C    2.781 --     9 N    1.357     6 C    1.236
     8   8 O    2.021 --    10 C    1.064    21 H    0.861
     9   7 N    3.600 --     7 C    1.357    11 C    1.076    10 C    0.915
                            12 O    0.116
    10   6 C    3.912 --     8 O    1.064    20 H    0.949    19 H    0.942
                             9 N    0.915
    11   6 C    3.937 --    12 O    1.707     9 N    1.076    13 N    1.054
    12   8 O    2.047 --    11 C    1.707    13 N    0.132     9 N    0.116
    13   7 N    3.563 --     5 C    1.227    11 C    1.054    14 C    0.974
                            12 O    0.132
    14   6 C    3.925 --    13 N    0.974    22 H    0.971    23 H    0.970
                            24 H    0.965
    15   1 H    0.984 --     1 C    0.956
    16   1 H    0.986 --     1 C    0.966
    17   1 H    0.985 --     1 C    0.968
    18   1 H    0.985 --     3 C    0.955
    19   1 H    0.985 --    10 C    0.942
    20   1 H    0.983 --    10 C    0.949
    21   1 H    0.866 --     8 O    0.861
    22   1 H    0.991 --    14 C    0.971
    23   1 H    0.991 --    14 C    0.970
    24   1 H    0.984 --    14 C    0.965
    25   1 H    0.949 --     4 N    0.920
 ---------------------------------------------------------------------------

molecular dipole:
                 x           y           z       tot (Debye)
 q only:        2.790      -1.408      -0.195
   full:        3.100      -2.129      -0.330       9.595

           -------------------------------------------------
          | TOTAL ENERGY              -72.208855803639 Eh   |
          | GRADIENT NORM               0.002086601821 Eh/α |
          | HOMO-LUMO GAP               1.764172649895 eV   |
           -------------------------------------------------

 * finished run on 2024/06/05 at 19:59:15.757
