   * xtb version 6.6.1 (8d0f1dd) compiled by 'conda@1efc2f54142f' on 2023-08-01
          program call               : xtb struc.xyz --opt loose --input .xc1 --gfn2

   ID    Z sym.   atoms
    1    7 N      1, 17
    2    6 C      2-6, 8, 9, 11-16, 18-23, 25, 26, 28-33
    3    8 O      7, 10, 24, 27
    4    1 H      34-72
constraining bond 9 63 to   10.7133300 Å, actual value:    3.4968879 Å

          :  Hamiltonian                  GFN2-xTB          :
 * total energy  :  -108.7026530 Eh     change       -0.4035485E-08 Eh
 * total energy  :  -110.5107146 Eh     change       -0.1808062E+01 Eh
 * total energy  :  -112.4133386 Eh     change       -0.1902624E+01 Eh
 * total energy  :  -114.5091572 Eh     change       -0.2095819E+01 Eh
 * total energy  :  -116.6417564 Eh     change       -0.2132599E+01 Eh
 * total energy  :  -112.1468482 Eh     change        0.4494908E+01 Eh
 * total energy  :  -116.7660781 Eh     change       -0.4619230E+01 Eh
 * total energy  :  -116.8256349 Eh     change       -0.5955677E-01 Eh
 * total energy  :  -116.8541970 Eh     change       -0.2856204E-01 Eh
 * total energy  :  -116.9138403 Eh     change       -0.5964336E-01 Eh
 * total energy  :  -117.0869397 Eh     change       -0.8436132E-04 Eh
 * total energy  :  -117.0870323 Eh     change       -0.9255672E-04 Eh
 * total energy  :  -117.0870908 Eh     change       -0.5847309E-04 Eh
 * total energy  :  -117.0871750 Eh     change       -0.8421445E-04 Eh
 * total energy  :  -117.0871979 Eh     change       -0.2290314E-04 Eh
 * total energy  :  -117.0872851 Eh     change       -0.8723112E-04 Eh
 * total energy  :  -117.0873276 Eh     change       -0.4251828E-04 Eh
 * total energy  :  -117.0873962 Eh     change       -0.6860830E-04 Eh
 * total energy  :  -117.0874330 Eh     change       -0.3671407E-04 Eh
   *** GEOMETRY OPTIMIZATION CONVERGED AFTER 72 ITERATIONS ***

 final structure:
================
72
 xtb: 6.6.1 (8d0f1dd)
N           -1.94579822717002        3.05445038860720        2.21497284276797
C           -1.79175740598610        2.32521800121698        1.21321848932928
C           -2.89737010725173        1.94599260352161        0.26319006762838
C           -3.11963265727481        0.45387096490100        0.30350726833460
C           -3.91665270421661       -0.16651050390106       -0.67142071599496
C           -4.18182524075657       -1.50928382197615       -0.64049568360342
O           -4.87909000488629       -2.20049662290567       -1.54750417874394
C           -5.52352976557468       -1.52828054290702       -2.60969663584810
C           -3.75177798774700       -2.42054601007925        0.50736996877139
O           -5.00874279336584       -2.55960998020083        1.29000080906436
C           -5.19953989465661       -3.85048644695082        1.80739175787031
C           -2.80692346073810       -1.66915276874809        1.42060098695053
C           -2.56995946243056       -0.34119026090861        1.33374590467652
C           -2.41935102327306        2.40873820056419       -1.14173821191978
C           -1.42317205296566        1.47602210459258       -1.85813997675572
C           -0.10130519887680        1.34317039681371       -1.19335496304433
N            0.44720770622613        0.20381791251386       -0.78424048752488
C            1.82948762597468        0.26819561006051       -0.31686108549592
C            2.79931268487801       -0.05847934591430       -1.46346105551829
C            4.22262998800282        0.02638351761968       -0.98648998101687
C            4.94271936160987        1.20365393271257       -1.11395781254481
C            6.25058162236897        1.28880648701790       -0.66296128015646
C            6.86512825927462        0.19560871523937       -0.06776884738933
O            8.12509033527453        0.16168454517232        0.39969754231065
C            8.93994081804775        1.30426237028581        0.26967902210661
C            6.13095968383541       -1.01599931540748        0.07489874309886
O            6.80217851465473       -2.02504738946402        0.66147293566756
C            6.17286123136699       -3.27410271418977        0.82293603825092
C            4.82439813236244       -1.07610480760406       -0.38488308765027
C           -0.10402912508105       -1.00083245965146       -0.79843058034023
C           -4.26078488320043        2.63003298603090        0.60299561545227
C           -4.79724667235456        2.16168687982574        1.95347216662344
C           -4.19204893822192        4.15341716227439        0.57226342123753
H           -4.32608047550623        0.43378219907031       -1.46819877649300
H           -6.23351498780604       -0.78795148498567       -2.23261200582069
H           -6.05849058055739       -2.29589881037140       -3.16387196501380
H           -4.79905369116357       -1.04290886060025       -3.26982170714166
H           -4.43995414032819       -4.10459487858505        2.55911427644087
H           -6.17920199646624       -3.82905768894868        2.28597400335561
H           -5.19520236102521       -4.61464040605646        1.01929641871741
H           -2.39406667083622       -2.24994748245234        2.22984879823839
H           -1.95165380796700        0.13295748438829        2.08183392260198
H           -3.28922526854394        2.51907218788014       -1.78968326013713
H           -1.96335784980955        3.39445755747167       -1.03680696516900
H           -1.87969920160246        0.50045527556601       -2.00723328208528
H           -1.25554388236956        1.91773092873649       -2.84738816321939
H           -0.81565558026942        1.92701330266353        0.88807202946653
H            0.51616066871193        2.22458856758475       -1.13654355019930
H            1.96645391798258       -0.44790374501403        0.49515534689273
H            2.04330515911783        1.26800868643085        0.06518336922610
H            2.63831276034842        0.64979581357421       -2.27798242774316
H            2.58578522111629       -1.06215477075495       -1.83483576743309
H            4.49063952121346        2.06525616194946       -1.58127068587625
H            6.78810674163910        2.21477305486488       -0.78461091015567
H            8.52745379899568        2.15552254234742        0.81823087697660
H            9.07921480749687        1.57817943116633       -0.77953471113089
H            9.89967842504109        1.02938091267698        0.70104836652553
H            6.91497998261850       -3.91574459183765        1.29452154275727
H            5.29486822317481       -3.19859871485990        1.47199687288713
H            5.88221358911635       -3.70395022857746       -0.14012793592566
H            4.26308031418740       -1.99285283052658       -0.29220025563163
H           -1.09932539739184       -1.15958041783731       -1.15574905140348
H           -3.55581928375656       -2.96521611810123        0.32948934598633
H            0.45483950672946       -1.83336415533360       -0.42395441135718
H           -4.96726488251526        2.30480434508216       -0.16946820329139
H           -4.12617520005622        2.47054447554743        2.74917794152806
H           -4.90693771267660        1.07991955629028        1.98205873556160
H           -5.77178292318906        2.60879322730650        2.13189314773395
H           -3.48944870699104        4.51368129420454        1.31761000989787
H           -3.90117156395563        4.52889518927184       -0.40505046038874
H           -5.17359879905292        4.55768874349050        0.80664736133153
H           -1.12831043446181        3.28431398159800        2.77104797552053

          :  Hamiltonian                  GFN2-xTB          :
         :: total energy            -117.087432954077 Eh    ::
         :: gradient norm              0.003947752211 Eh/a0 ::
         :: HOMO-LUMO gap              0.756953342391 eV    ::
         :: SCC energy              -100.728015620149 Eh    ::
         :: -> dispersion             -0.076336743060 Eh    ::
         :: repulsion energy           1.881424018948 Eh    ::

    * Orbital Energies and Occupations

         #    Occupation            Energy/Eh            Energy/eV
      -------------------------------------------------------------
         1        2.0000           -0.8289106             -22.5558
       ...           ...                  ...                  ...
        78        1.9978           -0.5313498             -14.4588
        79        1.9974           -0.5283678             -14.3776
        80        1.9972           -0.5272644             -14.3476
        81        1.9962           -0.5225876             -14.2203
        82        1.9940           -0.5150697             -14.0158
        83        1.9935           -0.5139814             -13.9861
        84        1.9922           -0.5109151             -13.9027
        85        1.9852           -0.5008324             -13.6283
        86        1.9733           -0.4913906             -13.3714
        87        1.9623           -0.4858178             -13.2198
        88        1.9198           -0.4735102             -12.8849
        89        1.8104           -0.4589616             -12.4890
        90        1.5784           -0.4441346             -12.0855 (HOMO)
        91        0.7850           -0.4163171             -11.3286 (LUMO)
        92        0.0136           -0.3443067              -9.3691
        93        0.0093           -0.3383148              -9.2060
        94        0.0023           -0.3158088              -8.5936
        95        0.0021           -0.3150167              -8.5720
        96        0.0018           -0.3125568              -8.5051
        97        0.0000           -0.2496587              -6.7936
        98        0.0000           -0.1904335              -5.1820
        99                         -0.1190082              -3.2384
       100                         -0.0943801              -2.5682
       101                         -0.0800747              -2.1789
       ...                                ...                  ...
       171                          3.1419778              85.4976
      -------------------------------------------------------------
                  HL-Gap            0.0278175 Eh            0.7570 eV

     #   Z          covCN         q      C6AA      α(0)
     1   7 N        1.774    -0.264    27.687     7.792
     2   6 C        2.827     0.102    25.727     8.311
     3   6 C        3.907     0.008    20.378     6.417
     4   6 C        2.976     0.019    27.579     8.614
     5   6 C        2.904    -0.077    29.912     8.968
     6   6 C        2.849     0.140    24.951     8.187
     7   8 O        1.705    -0.213    17.541     5.655
     8   6 C        3.644     0.021    20.560     6.518
     9   6 C        3.738     0.066    19.560     6.311
    10   8 O        1.690    -0.320    19.342     5.938
    11   6 C        3.636     0.039    20.288     6.481
    12   6 C        2.902    -0.053    29.316     8.878
    13   6 C        2.903    -0.038    28.956     8.823
    14   6 C        3.810    -0.063    21.704     6.631
    15   6 C        3.801    -0.064    21.736     6.638
    16   6 C        2.860    -0.040    28.992     8.826
    17   7 N        2.731     0.092    19.654     6.584
    18   6 C        3.783    -0.020    20.953     6.520
    19   6 C        3.808    -0.069    21.815     6.649
    20   6 C        2.969     0.003    27.966     8.674
    21   6 C        2.922    -0.047    29.163     8.856
    22   6 C        2.913    -0.066    29.654     8.930
    23   6 C        2.865     0.135    25.053     8.204
    24   8 O        1.706    -0.218    17.615     5.667
    25   6 C        3.646     0.024    20.510     6.509
    26   6 C        2.862     0.134    25.059     8.205
    27   8 O        1.706    -0.221    17.666     5.675
    28   6 C        3.645     0.026    20.476     6.504
    29   6 C        2.919    -0.078    29.960     8.976
    30   6 C        2.812    -0.104    30.598     9.063
    31   6 C        3.854    -0.006    20.642     6.462
    32   6 C        3.755    -0.119    22.839     6.814
    33   6 C        3.755    -0.120    22.854     6.816
    34   1 H        0.926     0.056     2.252     2.347
    35   1 H        0.924     0.066     2.134     2.284
    36   1 H        0.925     0.087     1.911     2.162
    37   1 H        0.924     0.055     2.254     2.348
    38   1 H        0.923     0.039     2.458     2.452
    39   1 H        0.924     0.076     2.020     2.222
    40   1 H        0.924     0.042     2.417     2.431
    41   1 H        0.926     0.056     2.251     2.346
    42   1 H        0.926     0.047     2.358     2.401
    43   1 H        0.924     0.058     2.225     2.333
    44   1 H        0.924     0.054     2.274     2.358
    45   1 H        0.925     0.054     2.275     2.359
    46   1 H        0.924     0.066     2.125     2.280
    47   1 H        0.923     0.012     2.859     2.644
    48   1 H        0.926     0.053     2.284     2.363
    49   1 H        0.924     0.073     2.056     2.242
    50   1 H        0.924     0.068     2.103     2.268
    51   1 H        0.924     0.058     2.222     2.331
    52   1 H        0.924     0.060     2.203     2.321
    53   1 H        0.926     0.049     2.330     2.387
    54   1 H        0.926     0.061     2.189     2.314
    55   1 H        0.924     0.056     2.242     2.341
    56   1 H        0.924     0.058     2.224     2.332
    57   1 H        0.925     0.084     1.938     2.177
    58   1 H        0.925     0.083     1.944     2.180
    59   1 H        0.924     0.051     2.310     2.377
    60   1 H        0.924     0.055     2.264     2.353
    61   1 H        0.926     0.050     2.320     2.382
    62   1 H        0.927     0.054     2.264     2.353
    63   1 H        0.932     0.131     1.530     1.934
    64   1 H        0.926     0.059     2.207     2.323
    65   1 H        0.924     0.039     2.460     2.453
    66   1 H        0.925     0.068     2.103     2.268
    67   1 H        0.925     0.041     2.435     2.440
    68   1 H        0.925     0.054     2.276     2.359
    69   1 H        0.925     0.066     2.130     2.282
    70   1 H        0.925     0.038     2.477     2.461
    71   1 H        0.925     0.056     2.242     2.342
    72   1 H        0.860     0.159     1.339     1.813

Wiberg/Mayer (AO) data.
largest (>0.10) Wiberg bond orders for each atom

     #   Z sym  total        # sym  WBO       # sym  WBO       # sym  WBO
 ---------------------------------------------------------------------------
     1   7 N    3.020 --     2 C    1.958    72 H    0.940
     2   6 C    3.933 --     1 N    1.958     3 C    0.990    47 H    0.913
     3   6 C    3.970 --     4 C    0.992     2 C    0.990    14 C    0.949
                            31 C    0.929
     4   6 C    3.686 --     5 C    1.322    13 C    1.258     3 C    0.992
     5   6 C    3.956 --     6 C    1.478     4 C    1.322    34 H    0.954
     6   6 C    3.721 --     5 C    1.478     7 O    1.151     9 C    0.977
     7   8 O    2.267 --     6 C    1.151     8 C    0.966
     8   6 C    3.925 --    36 H    0.977    37 H    0.973    35 H    0.972
                             7 O    0.966
     9   6 C    3.934 --    12 C    1.009     6 C    0.977    63 H    0.958
                            10 O    0.895
    10   8 O    1.997 --    11 C    1.000     9 C    0.895
    11   6 C    3.934 --    10 O    1.000    40 H    0.975    38 H    0.974
                            39 H    0.968
    12   6 C    3.733 --    13 C    1.652     9 C    1.009    41 H    0.967
    13   6 C    3.975 --    12 C    1.652     4 C    1.258    42 H    0.956
    14   6 C    3.962 --    15 C    0.979    44 H    0.972    43 H    0.968
                             3 C    0.949
    15   6 C    3.986 --    16 C    1.048    14 C    0.979    45 H    0.962
                            46 H    0.944
    16   6 C    3.673 --    17 N    1.346    15 C    1.048    48 H    0.962
                            30 C    0.223
    17   7 N    3.741 --    30 C    1.369    16 C    1.346    18 C    0.966
    18   6 C    3.953 --    19 C    0.976    50 H    0.969    49 H    0.968
                            17 N    0.966
    19   6 C    3.986 --    20 C    1.007    18 C    0.976    51 H    0.971
                            52 H    0.969
    20   6 C    3.938 --    21 C    1.406    29 C    1.382    19 C    1.007
    21   6 C    3.943 --    22 C    1.418    20 C    1.406    53 H    0.968
    22   6 C    3.955 --    21 C    1.418    23 C    1.380    54 H    0.963
    23   6 C    3.888 --    22 C    1.380    26 C    1.214    24 O    1.115
    24   8 O    2.254 --    23 C    1.115    25 C    0.975
    25   6 C    3.926 --    57 H    0.976    24 O    0.975    56 H    0.972
                            55 H    0.972
    26   6 C    3.891 --    29 C    1.392    23 C    1.214    27 O    1.108
    27   8 O    2.253 --    26 C    1.108    28 C    0.977
    28   6 C    3.930 --    27 O    0.977    58 H    0.976    59 H    0.973
                            60 H    0.973
    29   6 C    3.956 --    26 C    1.392    20 C    1.382    61 H    0.962
    30   6 C    3.608 --    17 N    1.369    64 H    0.975    62 H    0.969
                            16 C    0.223
    31   6 C    3.954 --    33 C    1.009    32 C    1.008    65 H    0.959
                             3 C    0.929
    32   6 C    3.973 --    31 C    1.008    68 H    0.980    67 H    0.979
                            66 H    0.972
    33   6 C    3.975 --    31 C    1.009    70 H    0.982    71 H    0.978
                            69 H    0.973
    34   1 H    0.996 --     5 C    0.954
    35   1 H    0.990 --     8 C    0.972
    36   1 H    0.992 --     8 C    0.977
    37   1 H    0.991 --     8 C    0.973
    38   1 H    0.991 --    11 C    0.974
    39   1 H    0.989 --    11 C    0.968
    40   1 H    0.992 --    11 C    0.975
    41   1 H    0.995 --    12 C    0.967
    42   1 H    0.996 --    13 C    0.956
    43   1 H    0.994 --    14 C    0.968
    44   1 H    0.996 --    14 C    0.972
    45   1 H    0.997 --    15 C    0.962
    46   1 H    0.979 --    15 C    0.944
    47   1 H    0.979 --     2 C    0.913
    48   1 H    0.997 --    16 C    0.962
    49   1 H    0.994 --    18 C    0.968
    50   1 H    0.995 --    18 C    0.969
    51   1 H    0.995 --    19 C    0.971
    52   1 H    0.995 --    19 C    0.969
    53   1 H    0.997 --    21 C    0.968
    54   1 H    0.994 --    22 C    0.963
    55   1 H    0.990 --    25 C    0.972
    56   1 H    0.990 --    25 C    0.972
    57   1 H    0.992 --    25 C    0.976
    58   1 H    0.992 --    28 C    0.976
    59   1 H    0.992 --    28 C    0.973
    60   1 H    0.992 --    28 C    0.973
    61   1 H    0.996 --    29 C    0.962
    62   1 H    0.997 --    30 C    0.969
    63   1 H    0.975 --     9 C    0.958
    64   1 H    0.996 --    30 C    0.975
    65   1 H    0.990 --    31 C    0.959
    66   1 H    0.989 --    32 C    0.972
    67   1 H    0.995 --    32 C    0.979
    68   1 H    0.993 --    32 C    0.980
    69   1 H    0.991 --    33 C    0.973
    70   1 H    0.996 --    33 C    0.982
    71   1 H    0.992 --    33 C    0.978
    72   1 H    0.968 --     1 N    0.940
 ---------------------------------------------------------------------------

molecular dipole:
                 x           y           z       tot (Debye)
 q only:        0.759       0.043      -1.030
   full:        0.993      -0.134      -1.254       4.081

           -------------------------------------------------
          | TOTAL ENERGY             -117.087432954077 Eh   |
          | GRADIENT NORM               0.003947752211 Eh/α |
          | HOMO-LUMO GAP               0.756953342391 eV   |
           -------------------------------------------------

 * finished run on 2024/04/06 at 11:16:22.928
