   * xtb version 6.6.1 (8d0f1dd) compiled by 'conda@1efc2f54142f' on 2023-08-01
          program call               : xtb xtbopt.xyz --opt crude --input .xc2 --gfn2

   ID    Z sym.   atoms
    1    7 N      1, 17
    2    6 C      2-6, 8, 9, 11-16, 18-23, 25, 26, 28-33
    3    8 O      7, 10, 24, 27
    4    1 H      34-72
########################################################################
[WARNING] Please study the warnings concerning your input carefully
-1- readin_getIntValue: could not parse ''
########################################################################

          :  Hamiltonian                  GFN2-xTB          :
 * total energy  :   -98.8451967 Eh     change       -0.1648459E-11 Eh
 * total energy  :   -99.3278045 Eh     change       -0.4826078E+00 Eh
 * total energy  :   -99.3339791 Eh     change       -0.6174581E-02 Eh
 * total energy  :   -99.3355089 Eh     change       -0.1529807E-02 Eh
 * total energy  :   -99.3358264 Eh     change       -0.3174924E-03 Eh
 * total energy  :   -99.3361788 Eh     change       -0.3523658E-03 Eh
 * total energy  :   -99.3363094 Eh     change       -0.1306019E-03 Eh
   *** GEOMETRY OPTIMIZATION CONVERGED AFTER 7 ITERATIONS ***

 final structure:
================
72
 xtb: 6.6.1 (8d0f1dd)
N           -1.94438215664939        3.05640421457072        2.21678679774511
C           -1.78588472544489        2.33202178812580        1.21151478254190
C           -2.89035170155354        1.95002203761616        0.26085203239726
C           -3.11655742902191        0.45724269472066        0.30173274768847
C           -3.92363052815693       -0.15775374973978       -0.66996548755525
C           -4.21911442293658       -1.49321470304805       -0.62322439991833
O           -4.91825461366997       -2.18339881371377       -1.52735443823311
C           -5.53120882658280       -1.51502684645564       -2.61077947458194
C           -3.82777108777331       -2.34913607148002        0.55486522960181
O           -5.04264713576775       -2.56286109519445        1.29563875494938
C           -5.21303629280531       -3.85099768444431        1.83126331250180
C           -2.83856814401683       -1.66275000700440        1.43981690009932
C           -2.56902368912196       -0.34263765449536        1.33066839258750
C           -2.41134484458920        2.41320394892550       -1.14322218876104
C           -1.41978436979734        1.47653114867875       -1.86099994183056
C           -0.09842578343136        1.34214601237829       -1.19513690006016
N            0.45006131907767        0.20390513657324       -0.78357367151529
C            1.83263432050882        0.27253301236191       -0.31646028316302
C            2.80202384509176       -0.05259686649400       -1.46334102391281
C            4.22537455501839        0.03187341395627       -0.98676208362691
C            4.94557369979663        1.20911706465584       -1.11226168339425
C            6.25333368350124        1.29328833437160       -0.66078298280193
C            6.86763670394872        0.19904458576124       -0.06764809748129
O            8.12773025361147        0.16388787374390        0.39969986969914
C            8.94144355543182        1.30778989738145        0.27494861772776
C            6.13342999951998       -1.01260591290396        0.07255777809054
O            6.80423032129151       -2.02325715578772        0.65710911987127
C            6.17356122057426       -3.27192031436016        0.81525646710606
C            4.82678873349941       -1.07173217376972       -0.38698710528534
C           -0.10002098907624       -1.00146518283835       -0.79506811981037
C           -4.25484608279822        2.63426535085678        0.59899416716522
C           -4.79473572451195        2.16515251010891        1.94791593253645
C           -4.18713674234175        4.15804746879857        0.56986816788993
H           -4.31668524269258        0.44211770096698       -1.47549820325775
H           -6.23593198914685       -0.75754690850031       -2.25910541752674
H           -6.06861315480651       -2.28266293289010       -3.16405720333986
H           -4.78567006736117       -1.05117601816799       -3.26355920938026
H           -4.43691163224076       -4.09236032954464        2.56575140425483
H           -6.18208726438213       -3.84224397733978        2.32600696698122
H           -5.21508507341113       -4.61317010016984        1.04311182075436
H           -2.43262238891504       -2.24541570917289        2.25211342102388
H           -1.92603428596604        0.12312549264923        2.06210270408669
H           -3.28083528586756        2.53024120332034       -1.79058791828356
H           -1.94951839396166        3.39601394603060       -1.03713353068642
H           -1.87887710082533        0.50185568652058       -2.00907554038692
H           -1.25030714772369        1.91723312030510       -2.85089712777210
H           -0.80753376908923        1.93999191703052        0.88514473549658
H            0.52028166694303        2.22325674445932       -1.14140319887167
H            1.97187464450792       -0.44164812822377        0.49700528149153
H            2.04350827376373        1.27377196969167        0.06352614345737
H            2.64060194416110        0.65659580930635       -2.27699858007543
H            2.58850006893507       -1.05586596905966       -1.83593662546313
H            4.49381117358408        2.07153344841972       -1.57808758127280
H            6.79081887540241        2.21945232777430       -0.78090601300289
H            8.52766774078953        2.15602549739903        0.82852177695154
H            9.07975190587030        1.58744315424388       -0.77363945262063
H            9.90210353476467        1.03072795312933        0.70458116991829
H            6.91360179662200       -3.91500411041210        1.28756427893627
H            5.29381598224203       -3.19785708408572        1.46247471803887
H            5.88462886844108       -3.70051016672180       -0.14932047606693
H            4.26513277536777       -1.98822106701219       -0.29593525145630
H           -1.09664142621103       -1.15883380630052       -1.14948961747972
H           -3.46368798397118       -3.32744572635378        0.21253429671627
H            0.45856352593590       -1.83248957905278       -0.41779210198550
H           -4.95950035371613        2.31018666451019       -0.17585784167387
H           -4.12453604088171        2.47162449703869        2.74502338250094
H           -4.90688839109282        1.08362386776442        1.97459459789842
H           -5.76869623724225        2.61394692522852        2.12525531305211
H           -3.48568680121786        4.51858914543223        1.31592872052289
H           -3.89696110102911        4.53568996846074       -0.40688840631038
H           -5.16957634587152        4.55999575694079        0.80482406262764
H           -1.12635662349120        3.28842607701079        2.77144815655937

          :  Hamiltonian                  GFN2-xTB          :
         :: total energy             -99.336309361343 Eh    ::
         :: gradient norm              0.006319825010 Eh/a0 ::
         :: HOMO-LUMO gap              0.763512759792 eV    ::
         :: SCC energy              -100.705905277898 Eh    ::
         :: -> dispersion             -0.076313349695 Eh    ::
         :: repulsion energy           1.368214128222 Eh    ::

    * Orbital Energies and Occupations

         #    Occupation            Energy/Eh            Energy/eV
      -------------------------------------------------------------
         1        2.0000           -0.8281201             -22.5343
       ...           ...                  ...                  ...
        78        1.9979           -0.5310831             -14.4515
        79        1.9975           -0.5285062             -14.3814
        80        1.9973           -0.5273256             -14.3493
        81        1.9963           -0.5223393             -14.2136
        82        1.9941           -0.5151600             -14.0182
        83        1.9937           -0.5141064             -13.9895
        84        1.9924           -0.5110878             -13.9074
        85        1.9845           -0.4997121             -13.5979
        86        1.9735           -0.4911167             -13.3640
        87        1.9631           -0.4858040             -13.2194
        88        1.9214           -0.4734795             -12.8840
        89        1.8117           -0.4587104             -12.4821
        90        1.5796           -0.4438243             -12.0771 (HOMO)
        91        0.7794           -0.4157657             -11.3136 (LUMO)
        92        0.0136           -0.3439755              -9.3601
        93        0.0096           -0.3383318              -9.2065
        94        0.0023           -0.3157042              -8.5907
        95        0.0022           -0.3147260              -8.5641
        96        0.0018           -0.3122468              -8.4967
        97        0.0000           -0.2482089              -6.7541
        98        0.0000           -0.1900922              -5.1727
        99                         -0.1189023              -3.2355
       100                         -0.0846951              -2.3047
       101                         -0.0643512              -1.7511
       ...                                ...                  ...
       171                          0.5735573              15.6073
      -------------------------------------------------------------
                  HL-Gap            0.0280586 Eh            0.7635 eV

     #   Z          covCN         q      C6AA      α(0)
     1   7 N        1.774    -0.265    27.699     7.794
     2   6 C        2.827     0.102    25.733     8.312
     3   6 C        3.906     0.009    20.375     6.416
     4   6 C        2.975     0.019    27.585     8.615
     5   6 C        2.905    -0.077    29.910     8.968
     6   6 C        2.850     0.144    24.859     8.172
     7   8 O        1.705    -0.211    17.511     5.650
     8   6 C        3.644     0.021    20.558     6.518
     9   6 C        3.747     0.107    18.879     6.197
    10   8 O        1.699    -0.299    18.980     5.882
    11   6 C        3.637     0.037    20.324     6.485
    12   6 C        2.901    -0.049    29.214     8.862
    13   6 C        2.905    -0.038    28.946     8.822
    14   6 C        3.810    -0.063    21.701     6.631
    15   6 C        3.801    -0.064    21.731     6.637
    16   6 C        2.860    -0.040    28.996     8.826
    17   7 N        2.730     0.092    19.656     6.585
    18   6 C        3.783    -0.020    20.951     6.520
    19   6 C        3.808    -0.069    21.815     6.649
    20   6 C        2.969     0.002    27.967     8.674
    21   6 C        2.922    -0.047    29.164     8.856
    22   6 C        2.913    -0.066    29.654     8.930
    23   6 C        2.865     0.135    25.054     8.205
    24   8 O        1.706    -0.218    17.619     5.667
    25   6 C        3.645     0.024    20.509     6.509
    26   6 C        2.863     0.134    25.061     8.206
    27   8 O        1.706    -0.221    17.667     5.675
    28   6 C        3.645     0.026    20.473     6.503
    29   6 C        2.919    -0.079    29.961     8.976
    30   6 C        2.812    -0.103    30.590     9.062
    31   6 C        3.854    -0.006    20.642     6.462
    32   6 C        3.755    -0.119    22.829     6.813
    33   6 C        3.755    -0.120    22.850     6.816
    34   1 H        0.926     0.056     2.250     2.346
    35   1 H        0.924     0.066     2.132     2.283
    36   1 H        0.925     0.087     1.904     2.158
    37   1 H        0.924     0.056     2.247     2.344
    38   1 H        0.924     0.041     2.430     2.438
    39   1 H        0.925     0.077     2.008     2.216
    40   1 H        0.924     0.044     2.394     2.420
    41   1 H        0.926     0.057     2.234     2.337
    42   1 H        0.926     0.047     2.360     2.402
    43   1 H        0.924     0.058     2.227     2.334
    44   1 H        0.924     0.054     2.275     2.359
    45   1 H        0.925     0.053     2.279     2.361
    46   1 H        0.924     0.066     2.127     2.281
    47   1 H        0.923     0.012     2.864     2.647
    48   1 H        0.926     0.053     2.286     2.364
    49   1 H        0.924     0.073     2.057     2.243
    50   1 H        0.924     0.068     2.103     2.268
    51   1 H        0.924     0.058     2.222     2.331
    52   1 H        0.924     0.060     2.204     2.322
    53   1 H        0.926     0.049     2.331     2.388
    54   1 H        0.926     0.061     2.190     2.314
    55   1 H        0.924     0.056     2.243     2.342
    56   1 H        0.924     0.058     2.226     2.333
    57   1 H        0.925     0.084     1.939     2.178
    58   1 H        0.925     0.083     1.945     2.181
    59   1 H        0.924     0.051     2.313     2.378
    60   1 H        0.924     0.054     2.266     2.354
    61   1 H        0.926     0.050     2.320     2.382
    62   1 H        0.927     0.054     2.266     2.354
    63   1 H        0.923     0.057     2.237     2.339
    64   1 H        0.927     0.059     2.206     2.322
    65   1 H        0.924     0.039     2.467     2.456
    66   1 H        0.925     0.068     2.103     2.268
    67   1 H        0.925     0.040     2.449     2.447
    68   1 H        0.925     0.053     2.279     2.361
    69   1 H        0.925     0.066     2.132     2.283
    70   1 H        0.925     0.038     2.477     2.461
    71   1 H        0.925     0.056     2.243     2.342
    72   1 H        0.860     0.159     1.340     1.814

Wiberg/Mayer (AO) data.
largest (>0.10) Wiberg bond orders for each atom

     #   Z sym  total        # sym  WBO       # sym  WBO       # sym  WBO
 ---------------------------------------------------------------------------
     1   7 N    3.020 --     2 C    1.957    72 H    0.940
     2   6 C    3.933 --     1 N    1.957     3 C    0.991    47 H    0.913
     3   6 C    3.970 --     4 C    0.992     2 C    0.991    14 C    0.949
                            31 C    0.929
     4   6 C    3.683 --     5 C    1.321    13 C    1.257     3 C    0.992
     5   6 C    3.956 --     6 C    1.476     4 C    1.321    34 H    0.954
     6   6 C    3.724 --     5 C    1.476     7 O    1.153     9 C    0.981
     7   8 O    2.269 --     6 C    1.153     8 C    0.966
     8   6 C    3.924 --    36 H    0.977    37 H    0.973    35 H    0.972
                             7 O    0.966
     9   6 C    3.952 --    12 C    1.012     6 C    0.981    63 H    0.936
                            10 O    0.933
    10   8 O    2.032 --    11 C    0.992     9 C    0.933
    11   6 C    3.932 --    10 O    0.992    38 H    0.974    40 H    0.973
                            39 H    0.972
    12   6 C    3.733 --    13 C    1.651     9 C    1.012    41 H    0.967
    13   6 C    3.975 --    12 C    1.651     4 C    1.257    42 H    0.957
    14   6 C    3.962 --    15 C    0.979    44 H    0.972    43 H    0.968
                             3 C    0.949
    15   6 C    3.986 --    16 C    1.047    14 C    0.979    45 H    0.962
                            46 H    0.944
    16   6 C    3.673 --    17 N    1.346    15 C    1.047    48 H    0.962
                            30 C    0.223
    17   7 N    3.741 --    30 C    1.369    16 C    1.346    18 C    0.965
    18   6 C    3.953 --    19 C    0.976    50 H    0.969    49 H    0.968
                            17 N    0.965
    19   6 C    3.986 --    20 C    1.007    18 C    0.976    51 H    0.971
                            52 H    0.969
    20   6 C    3.938 --    21 C    1.406    29 C    1.382    19 C    1.007
    21   6 C    3.944 --    22 C    1.418    20 C    1.406    53 H    0.968
    22   6 C    3.955 --    21 C    1.418    23 C    1.380    54 H    0.963
    23   6 C    3.888 --    22 C    1.380    26 C    1.214    24 O    1.115
    24   8 O    2.254 --    23 C    1.115    25 C    0.975
    25   6 C    3.926 --    57 H    0.976    24 O    0.975    56 H    0.972
                            55 H    0.972
    26   6 C    3.892 --    29 C    1.392    23 C    1.214    27 O    1.108
    27   8 O    2.253 --    26 C    1.108    28 C    0.978
    28   6 C    3.930 --    27 O    0.978    58 H    0.976    59 H    0.973
                            60 H    0.973
    29   6 C    3.957 --    26 C    1.392    20 C    1.382    61 H    0.962
    30   6 C    3.608 --    17 N    1.369    64 H    0.975    62 H    0.969
                            16 C    0.223
    31   6 C    3.954 --    33 C    1.008    32 C    1.008    65 H    0.959
                             3 C    0.929
    32   6 C    3.974 --    31 C    1.008    68 H    0.980    67 H    0.980
                            66 H    0.973
    33   6 C    3.976 --    31 C    1.008    70 H    0.982    71 H    0.978
                            69 H    0.973
    34   1 H    0.995 --     5 C    0.954
    35   1 H    0.990 --     8 C    0.972
    36   1 H    0.992 --     8 C    0.977
    37   1 H    0.991 --     8 C    0.973
    38   1 H    0.992 --    11 C    0.974
    39   1 H    0.991 --    11 C    0.972
    40   1 H    0.993 --    11 C    0.973
    41   1 H    0.994 --    12 C    0.967
    42   1 H    0.996 --    13 C    0.957
    43   1 H    0.995 --    14 C    0.968
    44   1 H    0.996 --    14 C    0.972
    45   1 H    0.997 --    15 C    0.962
    46   1 H    0.979 --    15 C    0.944
    47   1 H    0.979 --     2 C    0.913
    48   1 H    0.997 --    16 C    0.962
    49   1 H    0.994 --    18 C    0.968
    50   1 H    0.995 --    18 C    0.969
    51   1 H    0.995 --    19 C    0.971
    52   1 H    0.995 --    19 C    0.969
    53   1 H    0.997 --    21 C    0.968
    54   1 H    0.994 --    22 C    0.963
    55   1 H    0.990 --    25 C    0.972
    56   1 H    0.990 --    25 C    0.972
    57   1 H    0.992 --    25 C    0.976
    58   1 H    0.992 --    28 C    0.976
    59   1 H    0.992 --    28 C    0.973
    60   1 H    0.992 --    28 C    0.973
    61   1 H    0.996 --    29 C    0.962
    62   1 H    0.997 --    30 C    0.969
    63   1 H    0.973 --     9 C    0.936
    64   1 H    0.996 --    30 C    0.975
    65   1 H    0.990 --    31 C    0.959
    66   1 H    0.990 --    32 C    0.973
    67   1 H    0.995 --    32 C    0.980
    68   1 H    0.993 --    32 C    0.980
    69   1 H    0.991 --    33 C    0.973
    70   1 H    0.996 --    33 C    0.982
    71   1 H    0.992 --    33 C    0.978
    72   1 H    0.968 --     1 N    0.940
 ---------------------------------------------------------------------------

molecular dipole:
                 x           y           z       tot (Debye)
 q only:        0.668       0.075      -0.991
   full:        0.939      -0.128      -1.226       3.939

           -------------------------------------------------
          | TOTAL ENERGY              -99.336309361343 Eh   |
          | GRADIENT NORM               0.006319825010 Eh/α |
          | HOMO-LUMO GAP               0.763512759792 eV   |
           -------------------------------------------------

 * finished run on 2024/04/06 at 11:16:24.366
