   * xtb version 6.6.1 (8d0f1dd) compiled by 'conda@1efc2f54142f' on 2023-08-01
          program call               : xtb struc.xyz --opt loose --input .xc1 --gfn2

   ID    Z sym.   atoms
    1    6 C      1, 3, 5-7, 10, 11, 14
    2    7 N      2, 4, 9, 13
    3    8 O      8, 12
    4    1 H      15-25
constraining bond 3 4 to    3.9200000 Å, actual value:    1.3504249 Å

          :  Hamiltonian                  GFN2-xTB          :
 * total energy  :   -18.6691362 Eh     change       -0.6650680E-10 Eh
 * total energy  :   -28.5784707 Eh     change       -0.9909334E+01 Eh
 * total energy  :   -35.5819395 Eh     change       -0.7003469E+01 Eh
 * total energy  :   -39.8774517 Eh     change       -0.4295512E+01 Eh
 * total energy  :   -41.5711208 Eh     change       -0.1693669E+01 Eh
 * total energy  :   -41.8218398 Eh     change       -0.2507189E+00 Eh
 * total energy  :   -41.8358303 Eh     change       -0.1399053E-01 Eh
 * total energy  :   -41.8549313 Eh     change       -0.1910104E-01 Eh
 * total energy  :   -41.8777032 Eh     change       -0.2277187E-01 Eh
 * total energy  :   -41.8947678 Eh     change       -0.1706458E-01 Eh
 * total energy  :   -42.0756610 Eh     change       -0.2706058E-03 Eh
 * total energy  :   -42.0759006 Eh     change       -0.2395759E-03 Eh
 * total energy  :   -42.0761054 Eh     change       -0.2047756E-03 Eh
 * total energy  :   -42.0762867 Eh     change       -0.1813258E-03 Eh
 * total energy  :   -42.0764676 Eh     change       -0.1809074E-03 Eh
 * total energy  :   -42.0766325 Eh     change       -0.1649006E-03 Eh
 * total energy  :   -42.0767298 Eh     change       -0.9728590E-04 Eh
 * total energy  :   -42.0767905 Eh     change       -0.6070737E-04 Eh
 * total energy  :   -42.0768108 Eh     change       -0.2032737E-04 Eh
   *** GEOMETRY OPTIMIZATION CONVERGED AFTER 78 ITERATIONS ***

 final structure:
================
25
 xtb: 6.6.1 (8d0f1dd)
C            3.13074409935281        0.13099565658845       -0.95908824499284
N            2.35488612390811        0.35605264343497        0.24947460014234
C            2.88227790048929        0.85439479535728        1.27945348887768
N            1.08598257369590       -2.26617690536336       -0.27150395205362
C            0.42969470019927       -1.17227464910797       -0.13983937188097
C            0.95699338010262        0.11307733359328        0.19195786906388
C            0.09978078176466        1.19700906067046        0.61155216059058
O            0.53273189543319        2.22178220783529        1.10632461319513
N           -1.24907361799578        0.99406076605166        0.38303706692937
C           -2.17489060950984        2.06835009075774        0.67668019558757
C           -1.80643377965272       -0.19005791327316       -0.08082095043939
O           -2.99330514649302       -0.29236460293109       -0.25266666175500
N           -0.93673168159669       -1.24308615157621       -0.30511751270496
C           -1.49965118767259       -2.52220626796747       -0.67701486550194
H            4.19204792917991        0.13460287718641       -0.71412732968578
H            2.85639407994964       -0.80814415545932       -1.43424151586409
H            2.92987976239921        0.94079770673706       -1.66302764177243
H            2.43268126401370        1.15531736735363        2.20732776199820
H           -1.62519992274118        2.87830918126079        1.15227834748461
H           -2.64135073152460        2.42147601559784       -0.24565265947868
H           -2.96874488341280        1.70329480856038        1.33035941920161
H           -1.17889706692754       -3.28408021338112        0.03578148711150
H           -1.14045798209206       -2.81479682966542       -1.66532608024930
H           -2.58507632140439       -2.43712463565799       -0.68539981866383
H            2.07614995461601       -2.32096964503224       -0.09922878723177

          :  Hamiltonian                  GFN2-xTB          :
         :: total energy             -42.076810838091 Eh    ::
         :: gradient norm              0.001849251604 Eh/a0 ::
         :: HOMO-LUMO gap              0.480554169425 eV    ::
         :: SCC energy               -42.596470611755 Eh    ::
         :: -> dispersion             -0.022607958386 Eh    ::
         :: repulsion energy           0.519463826572 Eh    ::

    * Orbital Energies and Occupations

         #    Occupation            Energy/Eh            Energy/eV
      -------------------------------------------------------------
         1        2.0000           -0.8965407             -24.3961
       ...           ...                  ...                  ...
        25        1.9996           -0.6778711             -18.4458
        26        1.9985           -0.6560147             -17.8511
        27        1.9981           -0.6520691             -17.7437
        28        1.9974           -0.6468888             -17.6027
        29        1.9953           -0.6374246             -17.3452
        30        1.9910           -0.6270390             -17.0626
        31        1.9881           -0.6226583             -16.9434
        32        1.9612           -0.6037496             -16.4289
        33        1.9329           -0.5948297             -16.1861
        34        1.9020           -0.5885819             -16.0161
        35        1.8095           -0.5772706             -15.7083
        36        1.7230           -0.5705661             -15.5259
        37        1.5846           -0.5628253             -15.3153 (HOMO)
        38        1.1113           -0.5451653             -14.8347 (LUMO)
        39        0.0076           -0.4535432             -12.3415
        40        0.0004           -0.4070746             -11.0771
        41        0.0002           -0.3960301             -10.7765
        42        0.0000           -0.3108971              -8.4599
        43                         -0.2157813              -5.8717
        44                         -0.1730634              -4.7093
        45                         -0.1400371              -3.8106
        46                         -0.1007188              -2.7407
        47                         -0.0866928              -2.3590
        48                         -0.0323687              -0.8808
       ...                                ...                  ...
        67                          0.5163082              14.0495
      -------------------------------------------------------------
                  HL-Gap            0.0176600 Eh            0.4806 eV

     #   Z          covCN         q      C6AA      α(0)
     1   6 C        3.714    -0.090    22.359     6.756
     2   7 N        2.731     0.144    18.805     6.441
     3   6 C        1.901    -0.014    31.486     9.062
     4   7 N        1.793    -0.268    27.786     7.808
     5   6 C        2.827     0.165    24.434     8.100
     6   6 C        2.935    -0.039    28.958     8.825
     7   6 C        2.769     0.267    22.496     7.768
     8   8 O        0.859    -0.352    20.748     6.107
     9   7 N        2.743    -0.062    22.447     7.037
    10   6 C        3.705    -0.061    21.833     6.680
    11   6 C        2.717     0.319    21.581     7.605
    12   8 O        0.860    -0.329    20.318     6.043
    13   7 N        2.759    -0.033    21.888     6.948
    14   6 C        3.706    -0.074    22.063     6.714
    15   1 H        0.925     0.123     1.592     1.973
    16   1 H        0.925     0.107     1.723     2.053
    17   1 H        0.924     0.119     1.624     1.993
    18   1 H        0.926     0.159     1.331     1.804
    19   1 H        0.925     0.123     1.590     1.972
    20   1 H        0.924     0.118     1.630     1.997
    21   1 H        0.924     0.120     1.617     1.989
    22   1 H        0.924     0.121     1.606     1.982
    23   1 H        0.924     0.118     1.630     1.996
    24   1 H        0.925     0.128     1.549     1.946
    25   1 H        0.860     0.193     1.141     1.673

Wiberg/Mayer (AO) data.
largest (>0.10) Wiberg bond orders for each atom

     #   Z sym  total        # sym  WBO       # sym  WBO       # sym  WBO
 ---------------------------------------------------------------------------
     1   6 C    3.888 --    15 H    0.968    16 H    0.959     2 N    0.955
                            17 H    0.948
     2   7 N    3.737 --     3 C    1.746     6 C    0.994     1 C    0.955
     3   6 C    2.873 --     2 N    1.746    18 H    0.912
     4   7 N    2.693 --     5 C    1.575    25 H    0.926
     5   6 C    3.953 --     4 N    1.575     6 C    1.155    13 N    1.123
     6   6 C    3.486 --     5 C    1.155     7 C    1.106     2 N    0.994
     7   6 C    3.939 --     8 O    1.623     9 N    1.109     6 C    1.106
     8   8 O    1.911 --     7 C    1.623     9 N    0.113
     9   7 N    3.469 --     7 C    1.109    11 C    1.089    10 C    0.982
                             8 O    0.113    12 O    0.107
    10   6 C    3.862 --     9 N    0.982    19 H    0.960    21 H    0.941
                            20 H    0.936
    11   6 C    3.956 --    12 O    1.677    13 N    1.104     9 N    1.089
    12   8 O    1.976 --    11 C    1.677    13 N    0.111     9 N    0.107
    13   7 N    3.474 --     5 C    1.123    11 C    1.104    14 C    0.984
                            12 O    0.111
    14   6 C    3.862 --    13 N    0.984    24 H    0.957    23 H    0.939
                            22 H    0.939
    15   1 H    0.982 --     1 C    0.968
    16   1 H    0.986 --     1 C    0.959
    17   1 H    0.982 --     1 C    0.948
    18   1 H    0.938 --     3 C    0.912
    19   1 H    0.977 --    10 C    0.960
    20   1 H    0.953 --    10 C    0.936
    21   1 H    0.957 --    10 C    0.941
    22   1 H    0.957 --    14 C    0.939
    23   1 H    0.956 --    14 C    0.939
    24   1 H    0.976 --    14 C    0.957
    25   1 H    0.953 --     4 N    0.926
 ---------------------------------------------------------------------------

molecular dipole:
                 x           y           z       tot (Debye)
 q only:        1.593      -0.706      -0.268
   full:        1.731      -0.556      -0.148       4.636

           -------------------------------------------------
          | TOTAL ENERGY              -42.076810838091 Eh   |
          | GRADIENT NORM               0.001849251604 Eh/α |
          | HOMO-LUMO GAP               0.480554169425 eV   |
           -------------------------------------------------

 * finished run on 2024/06/05 at 19:59:10.124
