   * xtb version 6.6.1 (8d0f1dd) compiled by 'conda@1efc2f54142f' on 2023-08-01
          program call               : xtb xtbopt.xyz --opt crude --input .xc2 --gfn2

   ID    Z sym.   atoms
    1    6 C      1, 3, 5-7, 10, 11, 14
    2    7 N      2, 4, 9, 13
    3    8 O      8, 12
    4    1 H      15-25
########################################################################
[WARNING] Please study the warnings concerning your input carefully
-1- readin_getIntValue: could not parse ''
########################################################################

          :  Hamiltonian                  GFN2-xTB          :
 * total energy  :   -42.1972186 Eh     change       -0.2273737E-12 Eh
 * total energy  :   -42.2116852 Eh     change       -0.1446663E-01 Eh
 * total energy  :   -42.2221778 Eh     change       -0.1049260E-01 Eh
 * total energy  :   -42.2283670 Eh     change       -0.6189165E-02 Eh
 * total energy  :   -42.2341010 Eh     change       -0.5734021E-02 Eh
 * total energy  :   -42.2387789 Eh     change       -0.4677915E-02 Eh
 * total energy  :   -42.2419672 Eh     change       -0.3188262E-02 Eh
 * total energy  :   -42.2437191 Eh     change       -0.1751954E-02 Eh
 * total energy  :   -42.2440926 Eh     change       -0.3735356E-03 Eh
 * total energy  :   -42.2443191 Eh     change       -0.2264925E-03 Eh
 * total energy  :   -42.2445180 Eh     change       -0.1988749E-03 Eh
   *** GEOMETRY OPTIMIZATION CONVERGED AFTER 11 ITERATIONS ***

 final structure:
================
25
 xtb: 6.6.1 (8d0f1dd)
C            3.31610850833546        1.58252988239815        0.03634684562739
N            2.56699050411527        0.35265815600307        0.02775967418389
C            3.04949817344467       -0.88298762744779        0.04163227556720
N            2.04099816873526       -1.77590014306423        0.03505069988566
C            0.86560890284870       -1.08589289800245        0.01645078022674
C            1.19788128692718        0.26535103506829        0.01217721069641
C            0.17128753214247        1.27938708612842       -0.01322126768078
O            0.33096559521841        2.47580980281017       -0.02681935993264
N           -1.10740325919190        0.68715381376682       -0.02275661469777
C           -2.25655177252158        1.57551468893263       -0.04436237231639
C           -1.32136352149203       -0.65916730610151       -0.01489121336686
O           -2.58131402132396       -1.00507409665976       -0.02677483737583
N           -0.37631847925563       -1.57155709296159        0.00314459094688
C           -2.89420063800309       -2.39531548224469       -0.01655211060740
H            3.87066502109699        1.68289570470321        0.96997545354311
H            4.02052729459888        1.60477310792715       -0.79480964452132
H            2.61696612908498        2.41355454497098       -0.05494648923482
H            4.09108013867192       -1.13942611877149        0.05533087325137
H           -1.88313111807842        2.59792506478992       -0.04678878119418
H           -2.85268350842962        1.39411316917115       -0.93747327935314
H           -2.87580256175560        1.40642628638467        0.83531154607458
H           -2.45156621614623       -2.88216537293843        0.85304234270749
H           -2.52650482667488       -2.87464679093982       -0.92276660012656
H           -3.98059868027296       -2.44536018971669        0.02549272701631
H            2.12929286202431       -2.78236068260419        0.04161916858136

          :  Hamiltonian                  GFN2-xTB          :
         :: total energy             -42.244518011875 Eh    ::
         :: gradient norm              0.003020725509 Eh/a0 ::
         :: HOMO-LUMO gap              3.324405632733 eV    ::
         :: SCC energy               -42.765122384220 Eh    ::
         :: -> dispersion             -0.022031164496 Eh    ::
         :: repulsion energy           0.520546324314 Eh    ::

    * Orbital Energies and Occupations

         #    Occupation            Energy/Eh            Energy/eV
      -------------------------------------------------------------
         1        2.0000           -0.9001309             -24.4938
       ...           ...                  ...                  ...
        25        2.0000           -0.6659192             -18.1206
        26        2.0000           -0.6542627             -17.8034
        27        1.9999           -0.6477640             -17.6266
        28        1.9999           -0.6373313             -17.3427
        29        1.9998           -0.6302379             -17.1496
        30        1.9994           -0.6115485             -16.6411
        31        1.9994           -0.6097440             -16.5920
        32        1.9989           -0.6009330             -16.3522
        33        1.9987           -0.5985857             -16.2883
        34        1.9912           -0.5680770             -15.4582
        35        1.9892           -0.5649092             -15.3720
        36        1.9830           -0.5576085             -15.1733
        37        1.9699           -0.5484809             -14.9249 (HOMO)
        38        0.0567           -0.4263112             -11.6005 (LUMO)
        39        0.0124           -0.4018343             -10.9345
        40        0.0016           -0.3694327             -10.0528
        41        0.0000           -0.2746992              -7.4749
        42                         -0.1875520              -5.1036
        43                         -0.1733318              -4.7166
        44                         -0.1343474              -3.6558
        45                         -0.1112837              -3.0282
        46                         -0.0642711              -1.7489
        47                         -0.0336113              -0.9146
        48                         -0.0198866              -0.5411
       ...                                ...                  ...
        67                          0.5418889              14.7455
      -------------------------------------------------------------
                  HL-Gap            0.1221697 Eh            3.3244 eV

     #   Z          covCN         q      C6AA      α(0)
     1   6 C        3.691    -0.093    22.468     6.783
     2   7 N        2.831     0.082    19.813     6.611
     3   6 C        3.069     0.058    26.620     8.460
     4   7 N        2.797    -0.052    22.245     7.005
     5   6 C        3.124     0.143    24.721     8.142
     6   6 C        3.131    -0.028    28.491     8.738
     7   6 C        2.768     0.273    22.388     7.749
     8   8 O        0.858    -0.371    21.115     6.161
     9   7 N        2.748    -0.069    22.583     7.058
    10   6 C        3.702    -0.067    21.947     6.698
    11   6 C        2.841     0.303    21.869     7.664
    12   8 O        1.708    -0.188    17.151     5.592
    13   7 N        1.832    -0.295    28.481     7.908
    14   6 C        3.656     0.005    20.795     6.546
    15   1 H        0.924     0.106     1.729     2.056
    16   1 H        0.925     0.105     1.742     2.064
    17   1 H        0.925     0.134     1.505     1.919
    18   1 H        0.926     0.124     1.581     1.966
    19   1 H        0.925     0.119     1.622     1.992
    20   1 H        0.925     0.094     1.837     2.119
    21   1 H        0.925     0.094     1.837     2.119
    22   1 H        0.924     0.088     1.894     2.152
    23   1 H        0.925     0.089     1.890     2.150
    24   1 H        0.925     0.109     1.709     2.044
    25   1 H        0.860     0.237     0.937     1.516

Wiberg/Mayer (AO) data.
largest (>0.10) Wiberg bond orders for each atom

     #   Z sym  total        # sym  WBO       # sym  WBO       # sym  WBO
 ---------------------------------------------------------------------------
     1   6 C    3.917 --     2 N    0.984    17 H    0.963    16 H    0.962
                            15 H    0.959
     2   7 N    3.698 --     3 C    1.398     6 C    1.166     1 C    0.984
     3   6 C    3.885 --     2 N    1.398     4 N    1.302    18 H    0.952
     4   7 N    3.609 --     3 C    1.302     5 C    1.184    25 H    0.916
     5   6 C    3.955 --     6 C    1.328    13 N    1.266     4 N    1.184
     6   6 C    3.920 --     5 C    1.328     2 N    1.166     7 C    1.093
     7   6 C    3.949 --     8 O    1.689     6 C    1.093     9 N    1.070
     8   8 O    2.042 --     7 C    1.689     9 N    0.145
     9   7 N    3.585 --    11 C    1.202     7 C    1.070    10 C    0.973
                             8 O    0.145
    10   6 C    3.919 --     9 N    0.973    19 H    0.966    21 H    0.965
                            20 H    0.965
    11   6 C    3.941 --    13 N    1.382    12 O    1.206     9 N    1.202
    12   8 O    2.363 --    11 C    1.206    14 C    0.933
    13   7 N    2.994 --    11 C    1.382     5 C    1.266
    14   6 C    3.883 --    24 H    0.974    22 H    0.972    23 H    0.971
                            12 O    0.933
    15   1 H    0.987 --     1 C    0.959
    16   1 H    0.987 --     1 C    0.962
    17   1 H    0.982 --     1 C    0.963
    18   1 H    0.984 --     3 C    0.952
    19   1 H    0.985 --    10 C    0.966
    20   1 H    0.988 --    10 C    0.965
    21   1 H    0.988 --    10 C    0.965
    22   1 H    0.990 --    14 C    0.972
    23   1 H    0.990 --    14 C    0.971
    24   1 H    0.987 --    14 C    0.974
    25   1 H    0.943 --     4 N    0.916
 ---------------------------------------------------------------------------

molecular dipole:
                 x           y           z       tot (Debye)
 q only:        1.808      -1.614       0.042
   full:        2.105      -1.832       0.049       7.094

           -------------------------------------------------
          | TOTAL ENERGY              -42.244518011875 Eh   |
          | GRADIENT NORM               0.003020725509 Eh/α |
          | HOMO-LUMO GAP               3.324405632733 eV   |
           -------------------------------------------------

 * finished run on 2024/06/05 at 20:00:10.742
