   * xtb version 6.6.1 (8d0f1dd) compiled by 'conda@1efc2f54142f' on 2023-08-01
          program call               : xtb xtbopt.xyz --opt crude --input .xc2 --gfn2

   ID    Z sym.   atoms
    1    7 N      1, 17
    2    6 C      2-6, 8, 9, 11-16, 18-23, 25, 26, 28-33
    3    8 O      7, 10, 24, 27
    4    1 H      34-72

          :  Hamiltonian                  GFN2-xTB          :
 * total energy  :   -99.2949848 Eh     change       -0.1327294E-09 Eh
   *** GEOMETRY OPTIMIZATION CONVERGED AFTER 1 ITERATIONS ***

 final structure:
================
72
 xtb: 6.6.1 (8d0f1dd)
N           -1.89352478165466        3.19722177201250        2.14090017473480
C           -1.82069964016276        2.43501934883231        1.15590626151078
C           -2.95113979047392        2.15745296353380        0.20288032444079
C           -3.34552794581742        0.69649791469354        0.30130428253225
C           -4.22396710124723        0.14538689563524       -0.63478854709860
C           -4.59114684445468       -1.18494993604293       -0.59457117064559
O           -5.44778887609043       -1.77978824310284       -1.43612526845770
C           -6.13763466446352       -1.01287729528247       -2.39495118543564
C           -4.03626510314672       -2.08973731815969        0.42254448191002
O           -4.29568395690896       -3.30035357254075        0.43608580719228
C           -4.79611341408641       -6.40237029989064        2.35275555411218
C           -3.18043226132320       -1.45907916033704        1.38330147321251
C           -2.86005484673510       -0.12765908457619        1.32345922630583
C           -2.39004683105482        2.46605138683251       -1.21244229736208
C           -1.46372907295755        1.37906701844924       -1.79100416163757
C           -0.15374200530121        1.27747899080667       -1.11225044633963
N            0.42748073535668        0.15030890591571       -0.73418884141256
C            1.79539469177507        0.15466856443912       -0.26995272241575
C            2.76824841792607       -0.26512691203858       -1.38943476022443
C            4.19018991889214       -0.10828773748965       -0.92919379018477
C            4.85853611703929        1.09243997882133       -1.11109392990464
C            6.16489824884921        1.25130452461464       -0.67705564258718
C            6.83024832068388        0.21009562111941       -0.04462817093867
O            8.09400091825337        0.24942941343172        0.41160316781337
C            8.85148590771730        1.42596893400662        0.24305487392117
C            6.15013937506178       -1.02507206354865        0.15265621828846
O            6.86928888287127       -1.98057821919649        0.77040522376808
C            6.29748629110338       -3.24970521109951        0.98300897458524
C            4.84271413836433       -1.15911213250479       -0.28957107264778
C           -0.21321537721538       -1.13593751995765       -0.87716995524822
C           -4.21586098881768        3.02736111278274        0.47226069888187
C           -4.83949282696201        2.69290194425991        1.82527499236575
C           -3.94656450822263        4.52603765574617        0.37918269253758
H           -4.63254865010716        0.78015959976336       -1.40589498310050
H           -6.71672451010996       -0.21299947314923       -1.92330540756313
H           -6.81426232499182       -1.70449825090805       -2.89337668758710
H           -5.45212991274379       -0.58292921958838       -3.13264691705539
H           -5.19130038939595       -6.13482791380252        3.31235477321473
H           -5.37846957895448       -6.25246791100737        1.47069942316943
H           -3.80678498107599       -6.80148000257122        2.27681349872701
H           -2.79672212474298       -2.08514616008765        2.17386505794322
H           -2.22826460210869        0.29339910877083        2.09207618660664
H           -3.22565897178516        2.58983862442730       -1.90069089203680
H           -1.85028855220027        3.41319794172525       -1.17518004415831
H           -1.98262390330591        0.42236248231969       -1.79854981525960
H           -1.26729129938679        1.66443310141464       -2.83281170786568
H           -0.89540145160764        1.90898819221614        0.84728500577003
H            0.43758397954808        2.17845624830375       -1.02992664596206
H            1.88916910261635       -0.53168579887369        0.57506662379030
H            2.06034123045955        1.15719114682469        0.07204306640618
H            2.59108702838114        0.36963268259152       -2.25962946148442
H            2.57612136915943       -1.30056551075908       -1.67246921228946
H            4.36690796550454        1.91420167870215       -1.60938557559570
H            6.66158752673920        2.19308218622315       -0.84282545328851
H            8.39439652221826        2.27433262686731        0.76134960991006
H            8.98054398546027        1.67011524727623       -0.81560434201917
H            9.82277418324808        1.21367416042472        0.68557321394581
H            7.07130249969868       -3.84044796900105        1.46943411229487
H            5.42266461859053       -3.19085998260144        1.63830004925923
H            6.01782868153311       -3.72696309438257        0.03876753118640
H            4.32192433644267       -2.09388009797919       -0.15283732695803
H           -0.38899715183064       -1.37453554185741       -1.92764813917748
H           -1.16845067691593       -1.15196773526144       -0.34702374404008
H            0.42508011848625       -1.90467700747668       -0.45052152425937
H           -4.94223948928868        2.76454527554027       -0.30567748465115
H           -4.15316711279134        2.94840714099302        2.62670082614720
H           -5.08524057511394        1.63531941925611        1.89431463440817
H           -5.75381416207811        3.26581210711370        1.95691746405232
H           -3.21424249559336        4.82372892065096        1.12393433033201
H           -3.59347184731392        4.81578468709171       -0.60731651528852
H           -4.86943053842189        5.06618844542962        0.57444420254533
H           -1.06275337646938        3.33716192786363        2.70648464721602

          :  Hamiltonian                  GFN2-xTB          :
         :: total energy             -99.294984752504 Eh    ::
         :: gradient norm              0.003608311704 Eh/a0 ::
         :: HOMO-LUMO gap              0.417747445442 eV    ::
         :: SCC energy              -100.679954591943 Eh    ::
         :: -> dispersion             -0.073344269450 Eh    ::
         :: repulsion energy           1.383664278367 Eh    ::

    * Orbital Energies and Occupations

         #    Occupation            Energy/Eh            Energy/eV
      -------------------------------------------------------------
         1        2.0000           -0.8115838             -22.0843
       ...           ...                  ...                  ...
        78        1.9980           -0.5333455             -14.5131
        79        1.9976           -0.5306736             -14.4404
        80        1.9972           -0.5284746             -14.3805
        81        1.9965           -0.5249166             -14.2837
        82        1.9941           -0.5165644             -14.0564
        83        1.9937           -0.5153951             -14.0246
        84        1.9923           -0.5123168             -13.9408
        85        1.9751           -0.4936029             -13.4316
        86        1.9653           -0.4882229             -13.2852
        87        1.9228           -0.4752329             -12.9317
        88        1.8391           -0.4628969             -12.5961
        89        1.8185           -0.4608155             -12.5394
        90        1.3091           -0.4344459             -11.8219 (HOMO)
        91        0.8363           -0.4190939             -11.4041 (LUMO)
        92        0.3588           -0.4002526             -10.8914
        93        0.0114           -0.3426627              -9.3243
        94        0.0024           -0.3176403              -8.6434
        95        0.0021           -0.3154355              -8.5834
        96        0.0014           -0.3098653              -8.4319
        97        0.0008           -0.3010729              -8.1926
        98        0.0000           -0.1929401              -5.2502
        99        0.0000           -0.1869888              -5.0882
       100                         -0.1402104              -3.8153
       101                         -0.0728399              -1.9821
       ...                                ...                  ...
       171                          0.6004260              16.3384
      -------------------------------------------------------------
                  HL-Gap            0.0153519 Eh            0.4177 eV

     #   Z          covCN         q      C6AA      α(0)
     1   7 N        1.774    -0.264    27.671     7.790
     2   6 C        2.827     0.103    25.717     8.310
     3   6 C        3.907     0.007    20.398     6.420
     4   6 C        2.975     0.003    27.955     8.673
     5   6 C        2.911    -0.081    30.017     8.984
     6   6 C        2.856     0.122    25.319     8.247
     7   8 O        1.706    -0.205    17.417     5.635
     8   6 C        3.644     0.026    20.480     6.505
     9   6 C        2.827     0.195    23.851     8.003
    10   8 O        0.858    -0.378    21.249     6.180
    11   6 C        2.780    -0.107    30.693     9.074
    12   6 C        2.909    -0.072    29.790     8.950
    13   6 C        2.912    -0.047    29.166     8.856
    14   6 C        3.812    -0.064    21.710     6.632
    15   6 C        3.802    -0.070    21.843     6.654
    16   6 C        2.844     0.011    27.755     8.634
    17   7 N        2.729     0.020    20.904     6.790
    18   6 C        3.757    -0.018    20.947     6.525
    19   6 C        3.808    -0.071    21.849     6.654
    20   6 C        2.969     0.001    27.997     8.679
    21   6 C        2.922    -0.048    29.189     8.860
    22   6 C        2.913    -0.067    29.663     8.931
    23   6 C        2.865     0.135    25.052     8.204
    24   8 O        1.706    -0.218    17.615     5.667
    25   6 C        3.645     0.024    20.509     6.509
    26   6 C        2.862     0.135    25.056     8.205
    27   8 O        1.706    -0.221    17.661     5.674
    28   6 C        3.645     0.026    20.481     6.505
    29   6 C        2.919    -0.079    29.967     8.977
    30   6 C        3.700    -0.074    22.084     6.721
    31   6 C        3.853    -0.006    20.656     6.464
    32   6 C        3.755    -0.118    22.809     6.810
    33   6 C        3.755    -0.120    22.846     6.815
    34   1 H        0.926     0.047     2.352     2.398
    35   1 H        0.924     0.058     2.224     2.332
    36   1 H        0.925     0.085     1.932     2.174
    37   1 H        0.924     0.051     2.307     2.375
    38   1 H        0.926     0.087     1.905     2.158
    39   1 H        0.927     0.099     1.797     2.096
    40   1 H        0.927     0.086     1.916     2.165
    41   1 H        0.926     0.062     2.180     2.309
    42   1 H        0.926     0.039     2.461     2.453
    43   1 H        0.925     0.063     2.170     2.304
    44   1 H        0.924     0.054     2.272     2.357
    45   1 H        0.925     0.069     2.095     2.264
    46   1 H        0.924     0.082     1.954     2.186
    47   1 H        0.922     0.006     2.957     2.689
    48   1 H        0.926     0.072     2.062     2.245
    49   1 H        0.924     0.071     2.069     2.250
    50   1 H        0.924     0.068     2.105     2.269
    51   1 H        0.924     0.056     2.248     2.345
    52   1 H        0.924     0.058     2.220     2.330
    53   1 H        0.926     0.047     2.364     2.404
    54   1 H        0.926     0.060     2.195     2.317
    55   1 H        0.924     0.056     2.247     2.344
    56   1 H        0.924     0.058     2.225     2.333
    57   1 H        0.925     0.084     1.936     2.176
    58   1 H        0.925     0.084     1.939     2.178
    59   1 H        0.924     0.051     2.304     2.374
    60   1 H        0.924     0.055     2.263     2.353
    61   1 H        0.926     0.050     2.320     2.382
    62   1 H        0.924     0.080     1.984     2.202
    63   1 H        0.924     0.085     1.926     2.170
    64   1 H        0.925     0.084     1.939     2.178
    65   1 H        0.924     0.039     2.468     2.457
    66   1 H        0.925     0.068     2.103     2.268
    67   1 H        0.925     0.038     2.479     2.462
    68   1 H        0.925     0.053     2.286     2.364
    69   1 H        0.925     0.063     2.161     2.299
    70   1 H        0.925     0.036     2.508     2.477
    71   1 H        0.925     0.056     2.246     2.344
    72   1 H        0.860     0.160     1.338     1.812

Wiberg/Mayer (AO) data.
largest (>0.10) Wiberg bond orders for each atom

     #   Z sym  total        # sym  WBO       # sym  WBO       # sym  WBO
 ---------------------------------------------------------------------------
     1   7 N    3.040 --     2 C    1.959    72 H    0.940
     2   6 C    3.932 --     1 N    1.959     3 C    0.993    47 H    0.902
     3   6 C    3.972 --     2 C    0.993     4 C    0.976    14 C    0.953
                            31 C    0.939
     4   6 C    3.807 --     5 C    1.360    13 C    1.326     3 C    0.976
     5   6 C    3.948 --     6 C    1.417     4 C    1.360    34 H    0.954
     6   6 C    3.752 --     5 C    1.417     7 O    1.133     9 C    1.053
     7   8 O    2.248 --     6 C    1.133     8 C    0.975
     8   6 C    3.927 --    36 H    0.976     7 O    0.975    35 H    0.971
                            37 H    0.971
     9   6 C    3.886 --    10 O    1.574    12 C    1.162     6 C    1.053
    10   8 O    1.717 --     9 C    1.574
    11   6 C    2.969 --    40 H    0.990    38 H    0.990    39 H    0.988
    12   6 C    3.800 --    13 C    1.518     9 C    1.162    41 H    0.964
    13   6 C    3.943 --    12 C    1.518     4 C    1.326    42 H    0.957
    14   6 C    3.967 --    15 C    0.979    44 H    0.973    43 H    0.968
                             3 C    0.953
    15   6 C    3.986 --    16 C    1.061    14 C    0.979    45 H    0.961
                            46 H    0.926
    16   6 C    3.621 --    17 N    1.427    15 C    1.061    48 H    0.956
    17   7 N    3.501 --    16 C    1.427    30 C    0.996    18 C    0.987
    18   6 C    3.954 --    17 N    0.987    50 H    0.968    19 C    0.966
                            49 H    0.964
    19   6 C    3.976 --    20 C    1.008    51 H    0.971    52 H    0.971
                            18 C    0.966
    20   6 C    3.939 --    21 C    1.405    29 C    1.382    19 C    1.008
    21   6 C    3.945 --    22 C    1.419    20 C    1.405    53 H    0.968
    22   6 C    3.956 --    21 C    1.419    23 C    1.380    54 H    0.963
    23   6 C    3.889 --    22 C    1.380    26 C    1.215    24 O    1.115
    24   8 O    2.256 --    23 C    1.115    25 C    0.975
    25   6 C    3.926 --    57 H    0.976    24 O    0.975    55 H    0.972
                            56 H    0.972
    26   6 C    3.893 --    29 C    1.391    23 C    1.215    27 O    1.109
    27   8 O    2.255 --    26 C    1.109    28 C    0.977
    28   6 C    3.929 --    27 O    0.977    58 H    0.976    59 H    0.973
                            60 H    0.973
    29   6 C    3.956 --    26 C    1.391    20 C    1.382    61 H    0.962
    30   6 C    3.953 --    17 N    0.996    64 H    0.977    62 H    0.965
                            63 H    0.957
    31   6 C    3.963 --    33 C    1.009    32 C    1.008    65 H    0.958
                             3 C    0.939
    32   6 C    3.975 --    31 C    1.008    68 H    0.981    67 H    0.980
                            66 H    0.973
    33   6 C    3.979 --    31 C    1.009    70 H    0.982    71 H    0.979
                            69 H    0.975
    34   1 H    0.992 --     5 C    0.954
    35   1 H    0.989 --     8 C    0.971
    36   1 H    0.992 --     8 C    0.976
    37   1 H    0.989 --     8 C    0.971
    38   1 H    0.992 --    11 C    0.990
    39   1 H    0.990 --    11 C    0.988
    40   1 H    0.992 --    11 C    0.990
    41   1 H    0.991 --    12 C    0.964
    42   1 H    0.993 --    13 C    0.957
    43   1 H    0.994 --    14 C    0.968
    44   1 H    0.996 --    14 C    0.973
    45   1 H    0.995 --    15 C    0.961
    46   1 H    0.971 --    15 C    0.926
    47   1 H    0.984 --     2 C    0.902
    48   1 H    0.994 --    16 C    0.956
    49   1 H    0.990 --    18 C    0.964
    50   1 H    0.994 --    18 C    0.968
    51   1 H    0.995 --    19 C    0.971
    52   1 H    0.995 --    19 C    0.971
    53   1 H    0.997 --    21 C    0.968
    54   1 H    0.995 --    22 C    0.963
    55   1 H    0.991 --    25 C    0.972
    56   1 H    0.990 --    25 C    0.972
    57   1 H    0.992 --    25 C    0.976
    58   1 H    0.992 --    28 C    0.976
    59   1 H    0.992 --    28 C    0.973
    60   1 H    0.992 --    28 C    0.973
    61   1 H    0.996 --    29 C    0.962
    62   1 H    0.985 --    30 C    0.965
    63   1 H    0.986 --    30 C    0.957
    64   1 H    0.993 --    30 C    0.977
    65   1 H    0.991 --    31 C    0.958
    66   1 H    0.990 --    32 C    0.973
    67   1 H    0.996 --    32 C    0.980
    68   1 H    0.993 --    32 C    0.981
    69   1 H    0.992 --    33 C    0.975
    70   1 H    0.996 --    33 C    0.982
    71   1 H    0.992 --    33 C    0.979
    72   1 H    0.969 --     1 N    0.940
 ---------------------------------------------------------------------------

molecular dipole:
                 x           y           z       tot (Debye)
 q only:        1.314       0.561      -0.945
   full:        1.560       0.745      -1.205       5.357

           -------------------------------------------------
          | TOTAL ENERGY              -99.294984752504 Eh   |
          | GRADIENT NORM               0.003608311704 Eh/α |
          | HOMO-LUMO GAP               0.417747445442 eV   |
           -------------------------------------------------

 * finished run on 2024/04/06 at 11:12:36.829
