   * xtb version 6.6.1 (8d0f1dd) compiled by 'conda@1efc2f54142f' on 2023-08-01
          program call               : xtb xtbopt.xyz --opt crude --input .xc2 --gfn2

   ID    Z sym.   atoms
    1    6 C      1, 3, 5-7, 10, 11, 14
    2    7 N      2, 4, 9, 13
    3    8 O      8, 12
    4    1 H      15-25
########################################################################
[WARNING] Please study the warnings concerning your input carefully
-1- readin_getIntValue: could not parse ''
########################################################################

          :  Hamiltonian                  GFN2-xTB          :
 * total energy  :   -42.0375451 Eh     change        0.0000000E+00 Eh
 * total energy  :   -42.0384593 Eh     change       -0.9142501E-03 Eh
 * total energy  :   -42.0400943 Eh     change       -0.1634946E-02 Eh
 * total energy  :   -42.0408814 Eh     change       -0.7871580E-03 Eh
 * total energy  :   -42.0416149 Eh     change       -0.7334501E-03 Eh
 * total energy  :   -42.0421681 Eh     change       -0.5532479E-03 Eh
 * total energy  :   -42.0425635 Eh     change       -0.3954119E-03 Eh
   *** GEOMETRY OPTIMIZATION CONVERGED AFTER 7 ITERATIONS ***

 final structure:
================
25
 xtb: 6.6.1 (8d0f1dd)
C            3.04014051019299        1.13098056293245       -0.02747187438045
N            2.12853011422780        0.02747742337724       -0.12447086781331
C            2.42530987692284       -1.25537615014753       -0.35384781297312
N            1.29993166537888       -1.98304477331190       -0.35463417915949
C            0.22773976108384       -1.16506846355710       -0.12473292986833
C            0.74556781298983        0.14790868385709        0.04194262503177
C            0.10138078168981        1.32834967245049        0.22668990179830
O            0.39433970462138        2.56726370909119        0.66267009002572
N           -0.96581538541054        1.99543128183329        0.75854365953641
C           -1.94589226269713        2.65923344062846       -0.05936716814203
C           -2.04840897062457       -0.74440013391272       -0.37369343639886
O           -3.22473134418253       -0.61793877860412       -0.41296902726787
N           -1.09313528948897       -1.58257998019061       -0.05739236916428
C           -1.38091865196806       -2.95267549309170        0.40585937583428
H            2.97405445659822        1.58662767854838        0.96224883400861
H            4.05582030348226        0.78567313309787       -0.20137609004442
H            2.78439834520132        1.89371693245466       -0.76510687385949
H            3.41211527249172       -1.64139993377972       -0.50863108198875
H           -2.23004918597287        3.57594950267355        0.45470738303595
H           -1.58653972314197        2.89532106395047       -1.06329960995817
H           -2.81348563982058        2.00551534628586       -0.11839436761180
H           -0.75560503408195       -3.18054072303400        1.26914533368441
H           -1.20973105276316       -3.67505097516636       -0.39375896748161
H           -2.42603395877024       -3.00443140424918        0.70176983003014
H            1.25144940814211       -2.97870308053627       -0.51325875897294

          :  Hamiltonian                  GFN2-xTB          :
         :: total energy             -42.042563533298 Eh    ::
         :: gradient norm              0.007561695840 Eh/a0 ::
         :: HOMO-LUMO gap              0.458455882964 eV    ::
         :: SCC energy               -42.555632536343 Eh    ::
         :: -> dispersion             -0.021628616691 Eh    ::
         :: repulsion energy           0.512914768761 Eh    ::

    * Orbital Energies and Occupations

         #    Occupation            Energy/Eh            Energy/eV
      -------------------------------------------------------------
         1        2.0000           -0.8960625             -24.3831
       ...           ...                  ...                  ...
        25        2.0000           -0.6744507             -18.3527
        26        2.0000           -0.6713566             -18.2685
        27        2.0000           -0.6668952             -18.1471
        28        2.0000           -0.6517321             -17.7345
        29        2.0000           -0.6389028             -17.3854
        30        2.0000           -0.6302317             -17.1495
        31        1.9999           -0.6184076             -16.8277
        32        1.9998           -0.6101421             -16.6028
        33        1.9997           -0.6027241             -16.4010
        34        1.9994           -0.5898226             -16.0499
        35        1.9980           -0.5709179             -15.5355
        36        1.9828           -0.5369146             -14.6102
        37        1.2343           -0.4693333             -12.7712 (HOMO)
        38        0.7149           -0.4524854             -12.3128 (LUMO)
        39        0.0667           -0.4084641             -11.1149
        40        0.0042           -0.3643003              -9.9131
        41        0.0002           -0.3181139              -8.6563
        42        0.0001           -0.3085478              -8.3960
        43        0.0000           -0.2074169              -5.6441
        44                         -0.1955241              -5.3205
        45                         -0.1638651              -4.4590
        46                         -0.1119187              -3.0455
        47                         -0.0788135              -2.1446
        48                         -0.0513613              -1.3976
       ...                                ...                  ...
        67                          0.6499711              17.6866
      -------------------------------------------------------------
                  HL-Gap            0.0168479 Eh            0.4585 eV

     #   Z          covCN         q      C6AA      α(0)
     1   6 C        3.691    -0.081    22.250     6.750
     2   7 N        2.828     0.045    20.457     6.718
     3   6 C        2.995     0.046    26.957     8.517
     4   7 N        2.782    -0.048    22.168     6.993
     5   6 C        3.026     0.063    26.567     8.455
     6   6 C        3.041     0.005    27.875     8.660
     7   6 C        2.758     0.161    24.500     8.106
     8   8 O        1.746    -0.229    17.788     5.695
     9   7 N        2.710    -0.027    21.778     6.931
    10   6 C        3.689    -0.057    21.789     6.681
    11   6 C        1.816     0.208    26.265     8.281
    12   8 O        0.856    -0.201    18.083     5.701
    13   7 N        2.728    -0.001    21.285     6.852
    14   6 C        3.697    -0.075    22.110     6.726
    15   1 H        0.924     0.110     1.699     2.038
    16   1 H        0.925     0.097     1.812     2.105
    17   1 H        0.924     0.105     1.742     2.064
    18   1 H        0.926     0.115     1.653     2.010
    19   1 H        0.925     0.100     1.787     2.090
    20   1 H        0.924     0.064     2.151     2.294
    21   1 H        0.925     0.091     1.865     2.136
    22   1 H        0.925     0.091     1.868     2.138
    23   1 H        0.924     0.087     1.906     2.159
    24   1 H        0.925     0.108     1.712     2.046
    25   1 H        0.860     0.223     0.996     1.563

Wiberg/Mayer (AO) data.
largest (>0.10) Wiberg bond orders for each atom

     #   Z sym  total        # sym  WBO       # sym  WBO       # sym  WBO
 ---------------------------------------------------------------------------
     1   6 C    3.932 --     2 N    0.995    16 H    0.975    17 H    0.961
                            15 H    0.959
     2   7 N    3.573 --     3 C    1.328     6 C    1.081     1 C    0.995
     3   6 C    3.800 --     2 N    1.328     4 N    1.302    18 H    0.954
                             5 C    0.109
     4   7 N    3.585 --     3 C    1.302     5 C    1.184    25 H    0.921
     5   6 C    3.691 --     6 C    1.217     4 N    1.184    13 N    1.077
                             3 C    0.109
     6   6 C    3.920 --     7 C    1.397     5 C    1.217     2 N    1.081
     7   6 C    3.567 --     6 C    1.397     9 N    1.055     8 O    1.006
     8   8 O    2.012 --     7 C    1.006     9 N    0.883
     9   7 N    3.018 --     7 C    1.055    10 C    1.003     8 O    0.883
    10   6 C    3.940 --     9 N    1.003    20 H    0.973    19 H    0.968
                            21 H    0.957
    11   6 C    3.300 --    12 O    1.904    13 N    1.318
    12   8 O    2.092 --    11 C    1.904    13 N    0.145
    13   7 N    3.537 --    11 C    1.318     5 C    1.077    14 C    0.922
                            12 O    0.145
    14   6 C    3.875 --    24 H    0.974    22 H    0.973    23 H    0.971
                            13 N    0.922
    15   1 H    0.982 --     1 C    0.959
    16   1 H    0.990 --     1 C    0.975
    17   1 H    0.984 --     1 C    0.961
    18   1 H    0.985 --     3 C    0.954
    19   1 H    0.988 --    10 C    0.968
    20   1 H    0.989 --    10 C    0.973
    21   1 H    0.991 --    10 C    0.957
    22   1 H    0.987 --    14 C    0.973
    23   1 H    0.990 --    14 C    0.971
    24   1 H    0.987 --    14 C    0.974
    25   1 H    0.950 --     4 N    0.921
 ---------------------------------------------------------------------------

molecular dipole:
                 x           y           z       tot (Debye)
 q only:        1.832      -2.128      -0.400
   full:        2.039      -2.412      -0.649       8.195

           -------------------------------------------------
          | TOTAL ENERGY              -42.042563533298 Eh   |
          | GRADIENT NORM               0.007561695840 Eh/α |
          | HOMO-LUMO GAP               0.458455882964 eV   |
           -------------------------------------------------

 * finished run on 2024/06/05 at 19:59:05.074
