   * xtb version 6.6.1 (8d0f1dd) compiled by 'conda@1efc2f54142f' on 2023-08-01
          program call               : xtb struc.xyz --opt loose --input .xc1 --gfn2

   ID    Z sym.   atoms
    1    7 N      1, 17
    2    6 C      2-6, 8, 9, 11-16, 18-23, 25, 26, 28-33
    3    8 O      7, 10, 24, 27
    4    1 H      34-72
constraining bond 6 36 to    5.1400000 Å, actual value:    3.2429655 Å

          :  Hamiltonian                  GFN2-xTB          :
 * total energy  :   -98.7615643 Eh     change       -0.4035485E-08 Eh
 * total energy  :   -98.9749947 Eh     change       -0.2134304E+00 Eh
 * total energy  :   -99.0952568 Eh     change       -0.1202621E+00 Eh
 * total energy  :   -99.1488650 Eh     change       -0.5360825E-01 Eh
 * total energy  :   -99.1731176 Eh     change       -0.2425260E-01 Eh
 * total energy  :   -99.1877173 Eh     change       -0.1459970E-01 Eh
 * total energy  :   -99.2013251 Eh     change       -0.1360780E-01 Eh
 * total energy  :   -99.2195868 Eh     change       -0.1826167E-01 Eh
 * total energy  :   -99.2327678 Eh     change       -0.1318103E-01 Eh
 * total energy  :   -99.2397722 Eh     change       -0.7004348E-02 Eh
 * total energy  :   -99.2677238 Eh     change       -0.9288050E-04 Eh
 * total energy  :   -99.2682779 Eh     change       -0.5541506E-03 Eh
 * total energy  :   -99.2685063 Eh     change       -0.2283769E-03 Eh
 * total energy  :   -99.2688169 Eh     change       -0.3105927E-03 Eh
 * total energy  :   -99.2690448 Eh     change       -0.2279376E-03 Eh
 * total energy  :   -99.2691583 Eh     change       -0.1134285E-03 Eh
 * total energy  :   -99.2692624 Eh     change       -0.1040896E-03 Eh
 * total energy  :   -99.2693537 Eh     change       -0.9136101E-04 Eh
 * total energy  :   -99.2693905 Eh     change       -0.3675086E-04 Eh
   *** GEOMETRY OPTIMIZATION CONVERGED AFTER 36 ITERATIONS ***

 final structure:
================
72
 xtb: 6.6.1 (8d0f1dd)
N           -1.86585122866172        2.89829204782146        2.27327450343849
C           -1.81288400269070        2.15897475979711        1.26796846126917
C           -2.94640613668851        1.95901470846811        0.29859394329298
C           -3.42412488750482        0.51643807260148        0.35076921479217
C           -4.35069817761733        0.05896366695795       -0.58084047531628
C           -4.83083585317268       -1.24512068653887       -0.53458333758227
O           -5.73214473479178       -1.76029240976841       -1.41328406478685
C           -6.53742524295529       -1.04378163289191       -2.15067814514868
C           -4.36327715756981       -2.14827723037024        0.45561880607256
O           -4.88893317889682       -3.38463667254045        0.41077445645970
C           -4.51704230426046       -4.32571755443892        1.39475197766697
C           -3.44191701935399       -1.68002406926004        1.38020613988037
C           -2.98885858577850       -0.36783107740436        1.33028762685844
C           -2.36117204355436        2.27691283521613       -1.10281172460298
C           -1.42515546250901        1.19350307965106       -1.66822256867984
C           -0.10229837558606        1.14196090553731       -1.00599661198256
N            0.53823153188929        0.03332670949662       -0.64879316264879
C            1.91963077010165        0.08729730720223       -0.23149224870573
C            2.87571137601530       -0.35264969267183       -1.35752765909798
C            4.30084737719841       -0.15372624128948       -0.92309065577134
C            4.94375271440077        1.05173112933343       -1.15253846523107
C            6.24742444553668        1.25401523841415       -0.72698669173240
C            6.93409121171934        0.25236611571780       -0.05616704392364
O            8.19641727100696        0.33635277853368        0.40220690416109
C            8.92512386336313        1.52483850076688        0.19685487976025
C            6.28202291569497       -0.98876369161596        0.18535325361862
O            7.02356773446162       -1.90583106014564        0.83780143538957
C            6.47850579322465       -3.17710065570801        1.09762436489276
C            4.97774740453431       -1.16704937476538       -0.24824456507325
C           -0.06960119648247       -1.27134376490728       -0.75331928576603
C           -4.17245920403497        2.87716076536477        0.58434535933731
C           -4.81569473315098        2.54579387119224        1.92916271556871
C           -3.84110505921500        4.36532907755618        0.52427376498134
H           -4.69590254892448        0.71197472540089       -1.36589093921731
H           -6.63533969540898        0.02510200974231       -2.03602678566064
H           -8.28153738210028       -2.20862394077312       -4.20747682598695
H           -7.15998471990049       -1.59397606200263       -2.85713922371688
H           -4.80614644593110       -3.99028624881133        2.39453941067821
H           -5.06059128790078       -5.23423139777495        1.14522080165913
H           -3.44213748574425       -4.52650710012546        1.36928071604687
H           -3.08083852253601       -2.32769885820790        2.16209066045070
H           -2.29912095745976       -0.03429207458604        2.08932575085545
H           -3.18425633110768        2.41073388296636       -1.80402219433636
H           -1.81943163579071        3.22187921082246       -1.04841021879119
H           -1.92435980166421        0.22635709849900       -1.64431332941803
H           -1.25104806214530        1.45049777299920       -2.72162679547316
H           -0.90374524870584        1.61252198893443        0.95169646212646
H            0.45476533104437        2.06406370846661       -0.93316928084399
H            2.05869367119711       -0.56069685628775        0.63821490958708
H            2.16814361491291        1.10933640984620        0.06131722135908
H            2.67113057562537        0.24961301791792       -2.24435892001599
H            2.69822931632091       -1.40039511260145       -1.60251803856346
H            4.43415062791931        1.84388137419874       -1.67982307629388
H            6.72368958194644        2.19943051508762       -0.92809911227362
H            8.44594265583763        2.37817718153687        0.68632433589562
H            9.05168585888951        1.73786175871679       -0.86879379234310
H            9.89990926678248        1.35086385836837        0.64827796691629
H            7.26268442556621       -3.73164770712565        1.60933992481625
H            5.59972321126818       -3.11230660243277        1.74735910080252
H            6.21309433468066       -3.69701563657155        0.17186412053178
H            4.47730164536536       -2.10720163339368       -0.07634690562128
H           -0.21323455446874       -1.55992101604024       -1.79705322024890
H           -1.03881025041392       -1.28191979207232       -0.24910678773261
H            0.57562076620846       -2.00523442530619       -0.27716311710264
H           -4.90705233409982        2.66523097472267       -0.20097335076188
H           -4.12864664182436        2.77644547604502        2.73658537652642
H           -5.09045473943215        1.49527412024804        1.98837754792820
H           -5.71519242292660        3.14142827298391        2.05877968939869
H           -3.08519048018387        4.61445232956530        1.26206484347096
H           -3.49542582900784        4.66494081092240       -0.46140938797221
H           -4.73736464274576        4.93681922856673        0.75010807577047
H           -1.02762709081286        2.98908250474044        2.83892812874605

          :  Hamiltonian                  GFN2-xTB          :
         :: total energy             -99.269390474884 Eh    ::
         :: gradient norm              0.002377348374 Eh/a0 ::
         :: HOMO-LUMO gap              0.406442540819 eV    ::
         :: SCC energy              -100.641611162736 Eh    ::
         :: -> dispersion             -0.074923663956 Eh    ::
         :: repulsion energy           1.371058371886 Eh    ::

    * Orbital Energies and Occupations

         #    Occupation            Energy/Eh            Energy/eV
      -------------------------------------------------------------
         1        2.0000           -0.8486279             -23.0923
       ...           ...                  ...                  ...
        78        1.9986           -0.5327150             -14.4959
        79        1.9985           -0.5307129             -14.4414
        80        1.9983           -0.5293564             -14.4045
        81        1.9971           -0.5206654             -14.1680
        82        1.9970           -0.5199640             -14.1489
        83        1.9968           -0.5193467             -14.1321
        84        1.9958           -0.5148311             -14.0093
        85        1.9956           -0.5141194             -13.9899
        86        1.9788           -0.4890871             -13.3087
        87        1.9727           -0.4850053             -13.1977
        88        1.9456           -0.4738780             -12.8949
        89        1.8452           -0.4564893             -12.4217
        90        1.1474           -0.4219524             -11.4819 (HOMO)
        91        0.6877           -0.4070159             -11.0755 (LUMO)
        92        0.4161           -0.3960823             -10.7779
        93        0.0170           -0.3419113              -9.3039
        94        0.0080           -0.3299721              -8.9790
        95        0.0057           -0.3243863              -8.8270
        96        0.0028           -0.3130357              -8.5181
        97        0.0024           -0.3106654              -8.4536
        98        0.0000           -0.2052663              -5.5856
        99        0.0000           -0.1881756              -5.1205
       100                         -0.1379166              -3.7529
       101                         -0.0763812              -2.0784
       ...                                ...                  ...
       171                          0.5760877              15.6761
      -------------------------------------------------------------
                  HL-Gap            0.0149365 Eh            0.4064 eV

     #   Z          covCN         q      C6AA      α(0)
     1   7 N        1.774    -0.270    27.820     7.811
     2   6 C        2.827     0.100    25.785     8.321
     3   6 C        3.907     0.006    20.419     6.423
     4   6 C        2.973     0.005    27.907     8.665
     5   6 C        2.919    -0.067    29.677     8.933
     6   6 C        2.871     0.102    25.739     8.317
     7   8 O        1.710    -0.103    15.881     5.381
     8   6 C        2.733     0.035    27.205     8.539
     9   6 C        2.862     0.135    25.041     8.202
    10   8 O        1.706    -0.230    17.821     5.700
    11   6 C        3.645     0.025    20.495     6.506
    12   6 C        2.914    -0.074    29.852     8.959
    13   6 C        2.922    -0.048    29.193     8.860
    14   6 C        3.812    -0.065    21.742     6.637
    15   6 C        3.802    -0.069    21.816     6.650
    16   6 C        2.843     0.004    27.923     8.660
    17   7 N        2.729     0.009    21.102     6.823
    18   6 C        3.756    -0.016    20.921     6.522
    19   6 C        3.808    -0.070    21.843     6.653
    20   6 C        2.969    -0.000    28.037     8.685
    21   6 C        2.922    -0.049    29.214     8.864
    22   6 C        2.914    -0.068    29.681     8.934
    23   6 C        2.865     0.134    25.078     8.209
    24   8 O        1.706    -0.222    17.678     5.677
    25   6 C        3.645     0.025    20.490     6.506
    26   6 C        2.863     0.133    25.088     8.210
    27   8 O        1.706    -0.225    17.726     5.684
    28   6 C        3.645     0.027    20.452     6.500
    29   6 C        2.919    -0.080    29.989     8.980
    30   6 C        3.699    -0.069    21.996     6.707
    31   6 C        3.853    -0.007    20.675     6.467
    32   6 C        3.756    -0.119    22.834     6.813
    33   6 C        3.755    -0.119    22.844     6.815
    34   1 H        0.926     0.057     2.235     2.338
    35   1 H        0.926     0.068     2.107     2.270
    36   1 H        0.000    -0.139    17.841     7.723
    37   1 H        0.924     0.117     1.636     2.000
    38   1 H        0.924     0.058     2.228     2.334
    39   1 H        0.925     0.084     1.934     2.175
    40   1 H        0.924     0.050     2.315     2.379
    41   1 H        0.926     0.057     2.228     2.334
    42   1 H        0.926     0.046     2.370     2.407
    43   1 H        0.925     0.060     2.198     2.319
    44   1 H        0.924     0.056     2.247     2.344
    45   1 H        0.925     0.063     2.164     2.300
    46   1 H        0.923     0.081     1.974     2.197
    47   1 H        0.922     0.005     2.973     2.697
    48   1 H        0.926     0.069     2.095     2.263
    49   1 H        0.924     0.067     2.123     2.279
    50   1 H        0.924     0.068     2.112     2.272
    51   1 H        0.924     0.055     2.256     2.349
    52   1 H        0.924     0.055     2.253     2.348
    53   1 H        0.926     0.045     2.381     2.413
    54   1 H        0.926     0.059     2.215     2.327
    55   1 H        0.924     0.054     2.269     2.356
    56   1 H        0.924     0.056     2.245     2.343
    57   1 H        0.925     0.083     1.953     2.186
    58   1 H        0.925     0.082     1.959     2.189
    59   1 H        0.924     0.048     2.342     2.393
    60   1 H        0.924     0.053     2.289     2.366
    61   1 H        0.926     0.047     2.361     2.403
    62   1 H        0.924     0.076     2.020     2.223
    63   1 H        0.924     0.076     2.024     2.225
    64   1 H        0.925     0.080     1.981     2.201
    65   1 H        0.924     0.035     2.517     2.481
    66   1 H        0.925     0.069     2.094     2.263
    67   1 H        0.925     0.032     2.556     2.500
    68   1 H        0.925     0.052     2.298     2.371
    69   1 H        0.925     0.062     2.173     2.305
    70   1 H        0.925     0.035     2.511     2.478
    71   1 H        0.925     0.055     2.255     2.348
    72   1 H        0.860     0.157     1.355     1.824

Wiberg/Mayer (AO) data.
largest (>0.10) Wiberg bond orders for each atom

     #   Z sym  total        # sym  WBO       # sym  WBO       # sym  WBO
 ---------------------------------------------------------------------------
     1   7 N    3.037 --     2 C    1.956    72 H    0.942
     2   6 C    3.929 --     1 N    1.956     3 C    0.994    47 H    0.903
     3   6 C    3.978 --     2 C    0.994     4 C    0.972    14 C    0.956
                            31 C    0.943
     4   6 C    3.969 --    13 C    1.398     5 C    1.395     3 C    0.972
     5   6 C    3.915 --     4 C    1.395     6 C    1.370    34 H    0.956
     6   6 C    3.890 --     5 C    1.370     9 C    1.231     7 O    1.042
     7   8 O    2.416 --     8 C    1.276     6 C    1.042
     8   6 C    3.278 --     7 O    1.276    35 H    0.964    37 H    0.920
     9   6 C    3.895 --    12 C    1.382     6 C    1.231    10 O    1.112
    10   8 O    2.270 --     9 C    1.112    11 C    0.972
    11   6 C    3.929 --    39 H    0.977    40 H    0.975    38 H    0.974
                            10 O    0.972
    12   6 C    3.962 --    13 C    1.411     9 C    1.382    41 H    0.963
    13   6 C    3.925 --    12 C    1.411     4 C    1.398    42 H    0.963
    14   6 C    3.973 --    15 C    0.983    44 H    0.972    43 H    0.969
                             3 C    0.956
    15   6 C    3.987 --    16 C    1.059    14 C    0.983    45 H    0.962
                            46 H    0.927
    16   6 C    3.577 --    17 N    1.394    15 C    1.059    48 H    0.957
    17   7 N    3.469 --    16 C    1.394    30 C    0.999    18 C    0.988
    18   6 C    3.955 --    17 N    0.988    50 H    0.968    19 C    0.966
                            49 H    0.964
    19   6 C    3.976 --    20 C    1.008    51 H    0.972    52 H    0.972
                            18 C    0.966
    20   6 C    3.944 --    21 C    1.410    29 C    1.379    19 C    1.008
    21   6 C    3.950 --    22 C    1.417    20 C    1.410    53 H    0.968
    22   6 C    3.959 --    21 C    1.417    23 C    1.384    54 H    0.963
    23   6 C    3.895 --    22 C    1.384    26 C    1.219    24 O    1.111
    24   8 O    2.256 --    23 C    1.111    25 C    0.976
    25   6 C    3.928 --    57 H    0.977    24 O    0.976    55 H    0.973
                            56 H    0.972
    26   6 C    3.899 --    29 C    1.395    23 C    1.219    27 O    1.104
    27   8 O    2.255 --    26 C    1.104    28 C    0.979
    28   6 C    3.932 --    27 O    0.979    58 H    0.977    59 H    0.973
                            60 H    0.973
    29   6 C    3.959 --    26 C    1.395    20 C    1.379    61 H    0.963
    30   6 C    3.959 --    17 N    0.999    64 H    0.977    62 H    0.966
                            63 H    0.963
    31   6 C    3.975 --    33 C    1.009    32 C    1.008    65 H    0.961
                             3 C    0.943
    32   6 C    3.981 --    31 C    1.008    67 H    0.982    68 H    0.982
                            66 H    0.975
    33   6 C    3.984 --    31 C    1.009    70 H    0.983    71 H    0.980
                            69 H    0.976
    34   1 H    0.996 --     5 C    0.956
    35   1 H    0.993 --     8 C    0.964
    36   1 H    0.046
    37   1 H    0.985 --     8 C    0.920
    38   1 H    0.994 --    11 C    0.974
    39   1 H    0.992 --    11 C    0.977
    40   1 H    0.995 --    11 C    0.975
    41   1 H    0.995 --    12 C    0.963
    42   1 H    0.997 --    13 C    0.963
    43   1 H    0.995 --    14 C    0.969
    44   1 H    0.996 --    14 C    0.972
    45   1 H    0.995 --    15 C    0.962
    46   1 H    0.969 --    15 C    0.927
    47   1 H    0.988 --     2 C    0.903
    48   1 H    0.995 --    16 C    0.957
    49   1 H    0.991 --    18 C    0.964
    50   1 H    0.994 --    18 C    0.968
    51   1 H    0.996 --    19 C    0.972
    52   1 H    0.996 --    19 C    0.972
    53   1 H    0.997 --    21 C    0.968
    54   1 H    0.995 --    22 C    0.963
    55   1 H    0.992 --    25 C    0.973
    56   1 H    0.991 --    25 C    0.972
    57   1 H    0.992 --    25 C    0.977
    58   1 H    0.993 --    28 C    0.977
    59   1 H    0.993 --    28 C    0.973
    60   1 H    0.993 --    28 C    0.973
    61   1 H    0.997 --    29 C    0.963
    62   1 H    0.984 --    30 C    0.966
    63   1 H    0.988 --    30 C    0.963
    64   1 H    0.993 --    30 C    0.977
    65   1 H    0.994 --    31 C    0.961
    66   1 H    0.992 --    32 C    0.975
    67   1 H    0.997 --    32 C    0.982
    68   1 H    0.995 --    32 C    0.982
    69   1 H    0.993 --    33 C    0.976
    70   1 H    0.997 --    33 C    0.983
    71   1 H    0.994 --    33 C    0.980
    72   1 H    0.971 --     1 N    0.942
 ---------------------------------------------------------------------------

molecular dipole:
                 x           y           z       tot (Debye)
 q only:        1.271       0.030       0.076
   full:        1.512      -0.086      -0.074       3.854

           -------------------------------------------------
          | TOTAL ENERGY              -99.269390474884 Eh   |
          | GRADIENT NORM               0.002377348374 Eh/α |
          | HOMO-LUMO GAP               0.406442540819 eV   |
           -------------------------------------------------

 * finished run on 2024/04/06 at 11:12:40.127
