   * xtb version 6.6.1 (8d0f1dd) compiled by 'conda@1efc2f54142f' on 2023-08-01
          program call               : xtb xtbopt.xyz --opt crude --input .xc2 --gfn2

   ID    Z sym.   atoms
    1    6 C      1, 3, 5-7, 10, 11, 14
    2    7 N      2, 4, 9, 13
    3    8 O      8, 12
    4    1 H      15-25

          :  Hamiltonian                  GFN2-xTB          :
 * total energy  :   -42.1079809 Eh     change        0.7105427E-13 Eh
 * total energy  :   -42.1080230 Eh     change       -0.4204871E-04 Eh
   *** GEOMETRY OPTIMIZATION CONVERGED AFTER 2 ITERATIONS ***

 final structure:
================
25
 xtb: 6.6.1 (8d0f1dd)
C            3.05754764724456        1.08537867691207       -0.14621882863897
N            2.20120591754433        0.07165443962098       -0.09842074754591
C            2.47129788549033       -1.25418196157112       -0.10248909143178
N            1.31115823758962       -1.96376335571018       -0.06242774292053
C            0.27500931501453       -1.08278661771820       -0.03076465898206
C            0.81356216610311        0.19237909505967       -0.04699079876463
C           -0.01672621723189        1.37569968302577       -0.03864971918178
O            0.37659507368884        2.51710161449783       -0.05183060617962
N           -1.37213773887289        1.03922707976492       -0.01387830821389
C           -2.33254243810659        2.13351634490505       -0.02338661131564
C           -1.93410280226984       -0.22440395920801        0.00178322377090
O           -3.11988258152040       -0.39987713270392        0.01380090555787
N           -1.04565935382144       -1.32242925349063        0.00382042541298
C           -1.59122352503111       -2.66536341857833        0.01391804199164
H            5.53353534644456        1.77089951001948        1.14996141644631
H            4.11694497044787        0.89719038448434       -0.17579052320034
H            2.66294247293217        2.08556734582495       -0.13294619677507
H            3.45022667127108       -1.68513797356146       -0.14218353389743
H           -1.77933445300354        3.06946458039911       -0.00504084153965
H           -2.94954390058152        2.07657192657820       -0.92023456467237
H           -2.98561562922312        2.06017604865958        0.84600046845049
H           -1.27492320419188       -3.19990948802362        0.91004016175314
H           -1.28230202827854       -3.21038609430170       -0.87834610210684
H           -2.67724315269577       -2.57695639519311        0.01827348071420
H            1.25164283515638       -2.97139253809503       -0.05682763083219

          :  Hamiltonian                  GFN2-xTB          :
         :: total energy             -42.108022998875 Eh    ::
         :: gradient norm              0.001751464046 Eh/a0 ::
         :: HOMO-LUMO gap              0.325431906883 eV    ::
         :: SCC energy               -42.631029040999 Eh    ::
         :: -> dispersion             -0.022775070050 Eh    ::
         :: repulsion energy           0.522923013655 Eh    ::

    * Orbital Energies and Occupations

         #    Occupation            Energy/Eh            Energy/eV
      -------------------------------------------------------------
         1        2.0000           -0.9123246             -24.8256
       ...           ...                  ...                  ...
        25        1.9999           -0.6690908             -18.2069
        26        1.9999           -0.6690194             -18.2049
        27        1.9999           -0.6597808             -17.9535
        28        1.9995           -0.6382198             -17.3668
        29        1.9994           -0.6335454             -17.2396
        30        1.9991           -0.6280718             -17.0907
        31        1.9986           -0.6205350             -16.8856
        32        1.9951           -0.6012496             -16.3608
        33        1.9843           -0.5826395             -15.8544
        34        1.9546           -0.5655834             -15.3903
        35        1.9484           -0.5635012             -15.3336
        36        1.9431           -0.5619073             -15.2903
        37        1.2700           -0.5147679             -14.0075 (HOMO)
        38        0.8996           -0.5028085             -13.6821 (LUMO)
        39        0.0053           -0.4121559             -11.2153
        40        0.0030           -0.4030140             -10.9666
        41        0.0004           -0.3697562             -10.0616
        42        0.0000           -0.2880499              -7.8382
        43                         -0.2083209              -5.6687
        44                         -0.1874642              -5.1012
        45                         -0.1456841              -3.9643
        46                         -0.1169222              -3.1816
        47                         -0.0844845              -2.2989
        48                         -0.0512812              -1.3954
       ...                                ...                  ...
        67                          0.5535578              15.0631
      -------------------------------------------------------------
                  HL-Gap            0.0119594 Eh            0.3254 eV

     #   Z          covCN         q      C6AA      α(0)
     1   6 C        2.790    -0.068    29.687     8.925
     2   7 N        2.808     0.131    19.017     6.477
     3   6 C        3.038     0.026    27.378     8.582
     4   7 N        2.780    -0.058    22.356     7.022
     5   6 C        3.022     0.120    25.347     8.258
     6   6 C        3.111    -0.038    28.783     8.789
     7   6 C        2.764     0.275    22.351     7.742
     8   8 O        0.858    -0.355    20.801     6.115
     9   7 N        2.746    -0.080    22.805     7.093
    10   6 C        3.710    -0.063    21.844     6.680
    11   6 C        2.728     0.318    21.592     7.607
    12   8 O        0.860    -0.349    20.679     6.097
    13   7 N        2.738    -0.053    22.256     7.007
    14   6 C        3.696    -0.073    22.078     6.721
    15   1 H        0.000     0.037     6.206     4.555
    16   1 H        0.926     0.112     1.680     2.027
    17   1 H        0.926     0.141     1.454     1.886
    18   1 H        0.927     0.122     1.599     1.977
    19   1 H        0.925     0.117     1.639     2.002
    20   1 H        0.925     0.103     1.755     2.072
    21   1 H        0.925     0.105     1.744     2.065
    22   1 H        0.924     0.087     1.913     2.163
    23   1 H        0.924     0.085     1.924     2.169
    24   1 H        0.925     0.129     1.539     1.940
    25   1 H        0.860     0.229     0.971     1.544

Wiberg/Mayer (AO) data.
largest (>0.10) Wiberg bond orders for each atom

     #   Z sym  total        # sym  WBO       # sym  WBO       # sym  WBO
 ---------------------------------------------------------------------------
     1   6 C    3.392 --     2 N    1.332    17 H    0.955    16 H    0.949
     2   7 N    3.764 --     1 C    1.332     3 C    1.247     6 C    1.087
     3   6 C    3.643 --     2 N    1.247     4 N    1.242    18 H    0.955
     4   7 N    3.527 --     3 C    1.242     5 C    1.193    25 H    0.919
     5   6 C    3.938 --     6 C    1.351    13 N    1.218     4 N    1.193
     6   6 C    3.844 --     5 C    1.351     2 N    1.087     7 C    1.083
     7   6 C    3.959 --     8 O    1.687     9 N    1.093     6 C    1.083
     8   8 O    2.021 --     7 C    1.687     9 N    0.139
     9   7 N    3.530 --    11 C    1.125     7 C    1.093    10 C    0.972
                             8 O    0.139    12 O    0.133
    10   6 C    3.897 --     9 N    0.972    19 H    0.965    21 H    0.958
                            20 H    0.957
    11   6 C    3.958 --    12 O    1.707     9 N    1.125    13 N    1.035
    12   8 O    2.046 --    11 C    1.707     9 N    0.133    13 N    0.118
    13   7 N    3.531 --     5 C    1.218    11 C    1.035    14 C    0.975
                            12 O    0.118
    14   6 C    3.918 --    13 N    0.975    23 H    0.968    22 H    0.968
                            24 H    0.963
    15   1 H    0.038
    16   1 H    0.986 --     1 C    0.949
    17   1 H    0.979 --     1 C    0.955
    18   1 H    0.984 --     3 C    0.955
    19   1 H    0.983 --    10 C    0.965
    20   1 H    0.976 --    10 C    0.957
    21   1 H    0.977 --    10 C    0.958
    22   1 H    0.986 --    14 C    0.968
    23   1 H    0.986 --    14 C    0.968
    24   1 H    0.982 --    14 C    0.963
    25   1 H    0.947 --     4 N    0.919
 ---------------------------------------------------------------------------

molecular dipole:
                 x           y           z       tot (Debye)
 q only:        2.242      -1.969      -0.050
   full:        2.533      -2.434      -0.048       8.930

           -------------------------------------------------
          | TOTAL ENERGY              -42.108022998875 Eh   |
          | GRADIENT NORM               0.001751464046 Eh/α |
          | HOMO-LUMO GAP               0.325431906883 eV   |
           -------------------------------------------------

 * finished run on 2024/06/05 at 19:57:56.716
