   * xtb version 6.6.1 (8d0f1dd) compiled by 'conda@1efc2f54142f' on 2023-08-01
          program call               : xtb xtbopt.xyz --opt crude --input .xc2 --gfn2

   ID    Z sym.   atoms
    1    6 C      1, 3, 5-7, 10, 11, 14
    2    7 N      2, 4, 9, 13
    3    8 O      8, 12
    4    1 H      15-25
########################################################################
[WARNING] Please study the warnings concerning your input carefully
-1- readin_getIntValue: could not parse ''
########################################################################

          :  Hamiltonian                  GFN2-xTB          :
 * total energy  :   -41.1231022 Eh     change       -0.7815970E-13 Eh
 * total energy  :   -42.1184871 Eh     change       -0.9953849E+00 Eh
 * total energy  :   -42.1329262 Eh     change       -0.1443906E-01 Eh
 * total energy  :   -42.1366680 Eh     change       -0.3741847E-02 Eh
 * total energy  :   -42.1370720 Eh     change       -0.4040306E-03 Eh
 * total energy  :   -42.1372417 Eh     change       -0.1696084E-03 Eh
 * total energy  :   -42.1373188 Eh     change       -0.7718444E-04 Eh
   *** GEOMETRY OPTIMIZATION CONVERGED AFTER 7 ITERATIONS ***

 final structure:
================
25
 xtb: 6.6.1 (8d0f1dd)
C            3.16297315708549        0.79112454466482        0.50743122552840
N            2.35610196831521        0.03424969074679       -0.48748245060394
C            2.63048334611270       -1.42028262225506       -0.40610074595645
N            1.45542282438531       -1.98274157396617       -0.19459408133771
C            0.40130519036686       -1.07816661454741       -0.13597657770374
C            0.92517320265126        0.17207096032176       -0.31602272736201
C            0.12200599894613        1.36453311595319       -0.31515734773159
O            0.53552164655745        2.49046397459970       -0.46134286908927
N           -1.22582963852762        1.05336847646616       -0.11443557729273
C           -2.17191916580528        2.15973271181291       -0.09486888158575
C           -1.78590647888756       -0.19544204937756        0.07491932876820
O           -2.95971156502417       -0.35827610008959        0.24565875895381
N           -0.90239954346292       -1.30609356730563        0.05958435685435
C           -1.44894674307325       -2.63443198453269        0.25953269419723
H            2.90589711529192        0.45416664855475        1.50883507096286
H            4.21990411474833        0.60779012289613        0.32585985785802
H            2.93998761998533        1.85312251655874        0.41052910708876
H            2.66766067021477        0.38758328635684       -1.41329729821780
H           -1.61625773733387        3.08149132645490       -0.25083504469960
H           -2.91375738546040        2.02591767106114       -0.88216032562457
H           -2.69075246841183        2.18663597664849        0.86321326650081
H           -1.03333801427041       -3.08894823926268        1.15940795445553
H           -1.25063787786469       -3.26601558192595       -0.60689415474194
H           -2.52671172967659       -2.52867531454442        0.38148026993267
H            1.36416300723643       -2.98493883368475       -0.08611219125270

          :  Hamiltonian                  GFN2-xTB          :
         :: total energy             -42.137318839801 Eh    ::
         :: gradient norm              0.009452613178 Eh/a0 ::
         :: HOMO-LUMO gap              2.651476232185 eV    ::
         :: SCC energy               -42.638484254933 Eh    ::
         :: -> dispersion             -0.022952753777 Eh    ::
         :: repulsion energy           0.500993767029 Eh    ::

    * Orbital Energies and Occupations

         #    Occupation            Energy/Eh            Energy/eV
      -------------------------------------------------------------
         1        2.0000           -0.9092678             -24.7424
       ...           ...                  ...                  ...
        25        1.9999           -0.6737450             -18.3335
        26        1.9999           -0.6655345             -18.1101
        27        1.9998           -0.6518033             -17.7365
        28        1.9997           -0.6497031             -17.6793
        29        1.9994           -0.6381144             -17.3640
        30        1.9992           -0.6320279             -17.1984
        31        1.9987           -0.6250043             -17.0072
        32        1.9959           -0.6068698             -16.5138
        33        1.9879           -0.5897906             -16.0490
        34        1.9795           -0.5813099             -15.8182
        35        1.9590           -0.5701838             -15.5155
        36        1.9583           -0.5699167             -15.5082
        37        1.9539           -0.5682746             -15.4635 (HOMO)
        38        0.1652           -0.4708346             -12.8121 (LUMO)
        39        0.0029           -0.4054997             -11.0342
        40        0.0010           -0.3883809             -10.5684
        41        0.0000           -0.3026007              -8.2342
        42        0.0000           -0.2470925              -6.7237
        43                         -0.2027868              -5.5181
        44                         -0.1787323              -4.8636
        45                         -0.1495524              -4.0695
        46                         -0.1476192              -4.0169
        47                         -0.1131026              -3.0777
        48                         -0.0999915              -2.7209
       ...                                ...                  ...
        67                          0.5461507              14.8615
      -------------------------------------------------------------
                  HL-Gap            0.0974400 Eh            2.6515 eV

     #   Z          covCN         q      C6AA      α(0)
     1   6 C        3.694    -0.085    22.304     6.757
     2   7 N        3.639     0.078    19.888     6.624
     3   6 C        1.934    -0.098    33.795     9.388
     4   7 N        2.771    -0.027    21.772     6.930
     5   6 C        2.947     0.122    25.310     8.251
     6   6 C        2.998    -0.046    29.130     8.853
     7   6 C        2.765     0.269    22.467     7.762
     8   8 O        0.858    -0.370    21.099     6.158
     9   7 N        2.748    -0.083    22.855     7.100
    10   6 C        3.709    -0.061    21.819     6.676
    11   6 C        2.728     0.318    21.593     7.607
    12   8 O        0.859    -0.347    20.643     6.092
    13   7 N        2.740    -0.055    22.311     7.015
    14   6 C        3.696    -0.070    22.024     6.713
    15   1 H        0.925     0.104     1.752     2.070
    16   1 H        0.925     0.122     1.600     1.978
    17   1 H        0.925     0.124     1.585     1.969
    18   1 H        0.858     0.251     0.879     1.469
    19   1 H        0.925     0.116     1.644     2.005
    20   1 H        0.925     0.103     1.755     2.072
    21   1 H        0.925     0.104     1.753     2.071
    22   1 H        0.924     0.088     1.902     2.157
    23   1 H        0.924     0.087     1.905     2.158
    24   1 H        0.925     0.128     1.548     1.946
    25   1 H        0.860     0.230     0.966     1.540

Wiberg/Mayer (AO) data.
largest (>0.10) Wiberg bond orders for each atom

     #   Z sym  total        # sym  WBO       # sym  WBO       # sym  WBO
 ---------------------------------------------------------------------------
     1   6 C    3.883 --    15 H    0.979    16 H    0.972    17 H    0.969
                             2 N    0.919
     2   7 N    3.777 --     6 C    0.966     3 C    0.950     1 C    0.919
                            18 H    0.880
     3   6 C    2.649 --     4 N    1.514     2 N    0.950
     4   7 N    3.633 --     3 C    1.514     5 C    1.096    25 H    0.915
     5   6 C    3.936 --     6 C    1.436    13 N    1.239     4 N    1.096
     6   6 C    3.841 --     5 C    1.436     7 C    1.100     2 N    0.966
     7   6 C    3.955 --     8 O    1.677     6 C    1.100     9 N    1.086
     8   8 O    2.009 --     7 C    1.677     9 N    0.140
     9   7 N    3.538 --    11 C    1.130     7 C    1.086    10 C    0.971
                             8 O    0.140    12 O    0.139
    10   6 C    3.900 --     9 N    0.971    19 H    0.966    20 H    0.958
                            21 H    0.958
    11   6 C    3.959 --    12 O    1.715     9 N    1.130    13 N    1.022
    12   8 O    2.063 --    11 C    1.715     9 N    0.139    13 N    0.117
    13   7 N    3.553 --     5 C    1.239    11 C    1.022    14 C    0.974
                            12 O    0.117
    14   6 C    3.918 --    13 N    0.974    23 H    0.968    22 H    0.967
                            24 H    0.963
    15   1 H    0.989 --     1 C    0.979
    16   1 H    0.984 --     1 C    0.972
    17   1 H    0.984 --     1 C    0.969
    18   1 H    0.928 --     2 N    0.880
    19   1 H    0.983 --    10 C    0.966
    20   1 H    0.978 --    10 C    0.958
    21   1 H    0.978 --    10 C    0.958
    22   1 H    0.986 --    14 C    0.967
    23   1 H    0.987 --    14 C    0.968
    24   1 H    0.983 --    14 C    0.963
    25   1 H    0.947 --     4 N    0.915
 ---------------------------------------------------------------------------

molecular dipole:
                 x           y           z       tot (Debye)
 q only:        2.215      -1.497      -0.152
   full:        1.964      -1.621      -0.275       6.511

           -------------------------------------------------
          | TOTAL ENERGY              -42.137318839801 Eh   |
          | GRADIENT NORM               0.009452613178 Eh/α |
          | HOMO-LUMO GAP               2.651476232185 eV   |
           -------------------------------------------------

 * finished run on 2024/06/05 at 20:00:24.214
