   * xtb version 6.6.1 (8d0f1dd) compiled by 'conda@1efc2f54142f' on 2023-08-01
          program call               : xtb struc.xyz --opt loose --input .xc1 --gfn2

   ID    Z sym.   atoms
    1    6 C      1, 3, 5-7, 10, 11, 14
    2    7 N      2, 4, 9, 13
    3    8 O      8, 12
    4    1 H      15-25
constraining bond 2 4 to    4.8400000 Å, actual value:    2.1863596 Å

          :  Hamiltonian                  GFN2-xTB          :
 * total energy  :   -29.6744853 Eh     change       -0.6650680E-10 Eh
 * total energy  :   -34.0044971 Eh     change       -0.4330012E+01 Eh
 * total energy  :   -36.9880444 Eh     change       -0.2983547E+01 Eh
 * total energy  :   -39.1537535 Eh     change       -0.2165709E+01 Eh
 * total energy  :   -40.7821817 Eh     change       -0.1628428E+01 Eh
 * total energy  :   -41.4082741 Eh     change       -0.6260923E+00 Eh
 * total energy  :   -41.4843387 Eh     change       -0.7606466E-01 Eh
 * total energy  :   -41.5080120 Eh     change       -0.2367326E-01 Eh
 * total energy  :   -41.5277602 Eh     change       -0.1974818E-01 Eh
 * total energy  :   -41.5400644 Eh     change       -0.1230424E-01 Eh
 * total energy  :   -42.1254537 Eh     change       -0.3489763E-02 Eh
 * total energy  :   -42.1257511 Eh     change       -0.2973292E-03 Eh
 * total energy  :   -42.1260260 Eh     change       -0.2749539E-03 Eh
 * total energy  :   -42.1262702 Eh     change       -0.2442056E-03 Eh
 * total energy  :   -42.1264821 Eh     change       -0.2118418E-03 Eh
 * total energy  :   -42.1266022 Eh     change       -0.1201646E-03 Eh
 * total energy  :   -42.1267271 Eh     change       -0.1248479E-03 Eh
 * total energy  :   -42.1267823 Eh     change       -0.5523956E-04 Eh
 * total energy  :   -42.1268229 Eh     change       -0.4061730E-04 Eh
   *** GEOMETRY OPTIMIZATION CONVERGED AFTER 47 ITERATIONS ***

 final structure:
================
25
 xtb: 6.6.1 (8d0f1dd)
C            3.06714838783669        1.00616325077760        0.20502755272481
N            2.27895562501121        1.85957953568415       -0.65411891447486
C            2.38652805560049       -0.31417368585496        0.22898928322277
N            0.78819218506207       -2.73880183532369       -0.33784926356126
C            0.28206481276193       -1.60726088296147       -0.09584737390232
C            1.04167452765228       -0.36056860357649        0.01425076630241
C            0.30006254140928        0.85597058525002       -0.07628495607197
O            0.93026231302628        2.00830704373933       -0.22710145659659
N           -1.02287955379270        0.86091468968814        0.03445221606595
C           -1.79965394492663        2.08598913472753        0.03120638270630
C           -1.78450723618018       -0.34232093290800        0.15464523988279
O           -2.97022410874797       -0.27104241275840        0.30747152154613
N           -1.08441498737699       -1.51287391774905        0.04419076243176
C           -1.83507756782358       -2.75661117003366        0.02643371631340
H            3.20552279731636        1.39532022901007        1.23025868593872
H            4.05535868147943        0.92491739263339       -0.25548266985081
H            2.63443930136072        2.80896366412485       -0.73618995133101
H            2.96328686109617       -1.20082377657305        0.43292141546527
H           -1.13703418325565        2.94220845960738       -0.04415911289551
H           -2.49498493549180        2.07026917791729       -0.80866176813718
H           -2.38768794174603        2.13902321726049        0.94804333893658
H           -1.53767909575226       -3.37474408099846        0.87305559024331
H           -1.60728480703552       -3.30009956855372       -0.89003897437591
H           -2.89636783757327       -2.52784923589076        0.08288010016814
H            1.78473162419066       -2.83221773564006       -0.45692051285237

          :  Hamiltonian                  GFN2-xTB          :
         :: total energy             -42.126822925616 Eh    ::
         :: gradient norm              0.001853645626 Eh/a0 ::
         :: HOMO-LUMO gap              1.732942776186 eV    ::
         :: SCC energy               -42.638761301644 Eh    ::
         :: -> dispersion             -0.022550741751 Eh    ::
         :: repulsion energy           0.511762810214 Eh    ::

    * Orbital Energies and Occupations

         #    Occupation            Energy/Eh            Energy/eV
      -------------------------------------------------------------
         1        2.0000           -0.9433469             -25.6698
       ...           ...                  ...                  ...
        25        1.9999           -0.6705922             -18.2477
        26        1.9999           -0.6652932             -18.1035
        27        1.9997           -0.6490439             -17.6614
        28        1.9994           -0.6383359             -17.3700
        29        1.9992           -0.6336269             -17.2419
        30        1.9991           -0.6313683             -17.1804
        31        1.9975           -0.6162347             -16.7686
        32        1.9961           -0.6088762             -16.5684
        33        1.9876           -0.5904809             -16.0678
        34        1.9870           -0.5897313             -16.0474
        35        1.9316           -0.5630255             -15.3207
        36        1.9110           -0.5587022             -15.2031
        37        1.8423           -0.5490521             -14.9405 (HOMO)
        38        0.3461           -0.4853676             -13.2075 (LUMO)
        39        0.0033           -0.4088947             -11.1266
        40        0.0005           -0.3795773             -10.3288
        41        0.0000           -0.2990430              -8.1374
        42        0.0000           -0.2799471              -7.6177
        43                         -0.1923446              -5.2340
        44                         -0.1471655              -4.0046
        45                         -0.1217754              -3.3137
        46                         -0.0970827              -2.6418
        47                         -0.0853037              -2.3212
        48                         -0.0534658              -1.4549
       ...                                ...                  ...
        67                          0.5377316              14.6324
      -------------------------------------------------------------
                  HL-Gap            0.0636845 Eh            1.7329 eV

     #   Z          covCN         q      C6AA      α(0)
     1   6 C        3.741    -0.005    20.738     6.497
     2   7 N        2.717    -0.080    22.807     7.093
     3   6 C        2.916    -0.007    28.200     8.708
     4   7 N        1.792    -0.269    27.819     7.812
     5   6 C        2.834     0.164    24.462     8.105
     6   6 C        2.963    -0.035    28.875     8.814
     7   6 C        2.816     0.225    23.266     7.903
     8   8 O        1.766    -0.137    16.367     5.463
     9   7 N        2.739    -0.032    21.864     6.945
    10   6 C        3.702    -0.072    22.037     6.712
    11   6 C        2.721     0.317    21.613     7.611
    12   8 O        0.859    -0.336    20.443     6.062
    13   7 N        2.753    -0.039    21.986     6.964
    14   6 C        3.708    -0.076    22.095     6.718
    15   1 H        0.922     0.089     1.891     2.150
    16   1 H        0.924     0.118     1.630     1.997
    17   1 H        0.860     0.210     1.056     1.610
    18   1 H        0.926     0.098     1.805     2.101
    19   1 H        0.925     0.103     1.754     2.071
    20   1 H        0.924     0.117     1.638     2.001
    21   1 H        0.924     0.119     1.621     1.991
    22   1 H        0.925     0.107     1.724     2.053
    23   1 H        0.925     0.112     1.676     2.025
    24   1 H        0.925     0.117     1.634     1.999
    25   1 H        0.860     0.192     1.150     1.680

Wiberg/Mayer (AO) data.
largest (>0.10) Wiberg bond orders for each atom

     #   Z sym  total        # sym  WBO       # sym  WBO       # sym  WBO
 ---------------------------------------------------------------------------
     1   6 C    3.954 --     3 C    1.045     2 N    1.007    16 H    0.933
                            15 H    0.922
     2   7 N    2.992 --     1 C    1.007     8 O    0.946    17 H    0.932
     3   6 C    3.739 --     6 C    1.583     1 C    1.045    18 H    0.956
     4   7 N    2.904 --     5 C    1.722    25 H    0.927
     5   6 C    3.952 --     4 N    1.722    13 N    1.126     6 C    1.023
     6   6 C    3.922 --     3 C    1.583     7 C    1.144     5 C    1.023
     7   6 C    3.802 --     9 N    1.324     8 O    1.173     6 C    1.144
     8   8 O    2.318 --     7 C    1.173     2 N    0.946
     9   7 N    3.575 --     7 C    1.324    11 C    0.987    10 C    0.972
    10   6 C    3.911 --    19 H    0.972     9 N    0.972    20 H    0.956
                            21 H    0.955
    11   6 C    3.941 --    12 O    1.716    13 N    1.153     9 N    0.987
    12   8 O    2.042 --    11 C    1.716    13 N    0.141
    13   7 N    3.552 --    11 C    1.153     5 C    1.126    14 C    0.969
                            12 O    0.141
    14   6 C    3.896 --    13 N    0.969    24 H    0.967    22 H    0.957
                            23 H    0.955
    15   1 H    0.968 --     1 C    0.922
    16   1 H    0.978 --     1 C    0.933
    17   1 H    0.953 --     2 N    0.932
    18   1 H    0.988 --     3 C    0.956
    19   1 H    0.988 --    10 C    0.972
    20   1 H    0.977 --    10 C    0.956
    21   1 H    0.978 --    10 C    0.955
    22   1 H    0.977 --    14 C    0.957
    23   1 H    0.975 --    14 C    0.955
    24   1 H    0.983 --    14 C    0.967
    25   1 H    0.956 --     4 N    0.927
 ---------------------------------------------------------------------------

molecular dipole:
                 x           y           z       tot (Debye)
 q only:        1.638       0.491      -0.050
   full:        2.209       0.990       0.183       6.171

           -------------------------------------------------
          | TOTAL ENERGY              -42.126822925616 Eh   |
          | GRADIENT NORM               0.001853645626 Eh/α |
          | HOMO-LUMO GAP               1.732942776186 eV   |
           -------------------------------------------------

 * finished run on 2024/06/05 at 19:57:52.227
