   * xtb version 6.6.1 (8d0f1dd) compiled by 'conda@1efc2f54142f' on 2023-08-01
          program call               : xtb struc.xyz --opt loose --input .xc1 --gfn2

   ID    Z sym.   atoms
    1    6 C      1, 3, 5-7, 10, 11, 14
    2    7 N      2, 4, 9, 13
    3    8 O      8, 12
    4    1 H      15-25
constraining bond 6 24 to    4.7133300 Å, actual value:    4.4571317 Å

          :  Hamiltonian                  GFN2-xTB          :
 * total energy  :   -42.3650565 Eh     change       -0.6650680E-10 Eh
 * total energy  :   -43.8002842 Eh     change       -0.1435228E+01 Eh
 * total energy  :   -46.8311692 Eh     change       -0.3030885E+01 Eh
 * total energy  :   -51.6458766 Eh     change       -0.4814707E+01 Eh
 * total energy  :   -57.1661987 Eh     change       -0.5520322E+01 Eh
 * total energy  :   -62.7598004 Eh     change       -0.5593602E+01 Eh
 * total energy  :   -68.7441390 Eh     change       -0.5984339E+01 Eh
 * total energy  :   -66.6939866 Eh     change        0.2050152E+01 Eh
 * total energy  :   -70.2050368 Eh     change       -0.3511050E+01 Eh
 * total energy  :   -71.4121107 Eh     change       -0.1207074E+01 Eh
 * total energy  :   -73.3207155 Eh     change       -0.6665705E-04 Eh
 * total energy  :   -73.3207515 Eh     change       -0.3599197E-04 Eh
 * total energy  :   -73.3207696 Eh     change       -0.1812194E-04 Eh
 * total energy  :   -73.3208163 Eh     change       -0.4670976E-04 Eh
 * total energy  :   -73.3208518 Eh     change       -0.3555184E-04 Eh
 * total energy  :   -73.3208883 Eh     change       -0.3648603E-04 Eh
 * total energy  :   -73.3186130 Eh     change        0.2275337E-02 Eh
 * total energy  :   -73.3209472 Eh     change       -0.2334180E-02 Eh
 * total energy  :   -73.3209813 Eh     change       -0.3411970E-04 Eh
   *** GEOMETRY OPTIMIZATION CONVERGED AFTER 96 ITERATIONS ***

 final structure:
================
25
 xtb: 6.6.1 (8d0f1dd)
C            3.55531141122634        0.99850457480201        0.70735923712123
N            2.49817665114206        0.11758597074016        0.38557299559836
C            2.56365185229639       -0.80769372434791       -0.46329584787865
N            1.48071775383485       -1.60461805610373       -0.75638541204032
C            0.24575301880471       -1.50995804002811       -0.20882398677899
C           -0.10430233824970       -0.27439194008770        0.68613229148982
C           -0.20146208520568        1.15102278263552       -0.06378270237765
O            0.53873406474826        1.93695500662318       -0.54013691318454
N           -1.60504494223334        1.09494367358896        0.00637316066545
C           -2.63354411838740        2.01811144907754       -0.38822863832702
C           -1.61474582157614       -0.17391672828074        0.47191301539675
O           -2.48610389887387       -1.10224895684570        0.33871514929077
N           -0.60195947475955       -2.43970312145355       -0.38000197512310
C           -1.89721524834428       -2.44461504981674        0.13195184120632
H            3.63352976260583        1.05683358972303        1.79355701650754
H            4.51888330323898        0.69913461576998        0.28102684975564
H            3.28908599531704        1.99184090055580        0.33867674839903
H            3.46136923954753       -1.07224394715921       -1.03089952828637
H           -2.14935923196979        2.87208792311078       -0.85801068344691
H           -3.31847854150408        1.54198501224873       -1.08988423786519
H           -3.19308303475571        2.35412996660296        0.48558476204161
H           -1.94389101360324       -2.98709256199173        1.08539808126296
H           -2.57818265197310       -2.91912568345030       -0.58154763811961
H            0.07394064810392       -0.26419672401110        1.02545033878659
H            1.62865021466393       -2.41509239030589       -1.34554230619148

          :  Hamiltonian                  GFN2-xTB          :
         :: total energy             -73.320981283664 Eh    ::
         :: gradient norm              0.003488410496 Eh/a0 ::
         :: HOMO-LUMO gap              1.791565745031 eV    ::
         :: SCC energy               -42.647206393818 Eh    ::
         :: -> dispersion             -0.021636593392 Eh    ::
         :: repulsion energy           2.801455454239 Eh    ::

    * Orbital Energies and Occupations

         #    Occupation            Energy/Eh            Energy/eV
      -------------------------------------------------------------
         1        2.0000           -0.9356393             -25.4600
       ...           ...                  ...                  ...
        25        2.0000           -0.6692690             -18.2117
        26        2.0000           -0.6627389             -18.0340
        27        1.9999           -0.6473294             -17.6147
        28        1.9999           -0.6461862             -17.5836
        29        1.9998           -0.6356801             -17.2977
        30        1.9997           -0.6304145             -17.1545
        31        1.9989           -0.6086599             -16.5625
        32        1.9986           -0.6052584             -16.4699
        33        1.9976           -0.5968103             -16.2400
        34        1.9944           -0.5834599             -15.8768
        35        1.9771           -0.5609298             -15.2637
        36        1.9350           -0.5440914             -14.8055
        37        1.8153           -0.5265419             -14.3279 (HOMO)
        38        0.2664           -0.4607030             -12.5364 (LUMO)
        39        0.0130           -0.4107278             -11.1765
        40        0.0044           -0.3935585             -10.7093
        41        0.0002           -0.3448378              -9.3835
        42        0.0000           -0.2355669              -6.4101
        43                         -0.2188793              -5.9560
        44                         -0.1643895              -4.4733
        45                         -0.1477536              -4.0206
        46                         -0.1185972              -3.2272
        47                         -0.1040057              -2.8301
        48                         -0.0642181              -1.7475
       ...                                ...                  ...
        67                         14.2890399             388.8246
      -------------------------------------------------------------
                  HL-Gap            0.0658388 Eh            1.7916 eV

     #   Z          covCN         q      C6AA      α(0)
     1   6 C        3.706    -0.047    21.574     6.640
     2   7 N        1.830    -0.167    25.400     7.468
     3   6 C        2.779     0.121    25.326     8.243
     4   7 N        2.707    -0.098    23.152     7.146
     5   6 C        2.853     0.167    24.402     8.096
     6   6 C        3.970    -0.149    23.286     6.856
     7   6 C        3.198     0.282    21.796     7.609
     8   8 O        0.856    -0.257    19.028     5.848
     9   7 N        2.858    -0.050    22.199     6.998
    10   6 C        3.684    -0.068    22.025     6.720
    11   6 C        3.282     0.230    21.962     7.538
    12   8 O        1.695    -0.178    16.994     5.566
    13   7 N        1.838    -0.242    27.166     7.724
    14   6 C        3.670     0.126    18.751     6.207
    15   1 H        0.924     0.094     1.838     2.120
    16   1 H        0.924     0.067     2.124     2.279
    17   1 H        0.924     0.104     1.752     2.070
    18   1 H        0.924     0.067     2.118     2.276
    19   1 H        0.925     0.113     1.670     2.021
    20   1 H        0.925     0.101     1.777     2.085
    21   1 H        0.924     0.105     1.740     2.063
    22   1 H        0.923     0.115     1.658     2.014
    23   1 H        0.924     0.131     1.526     1.932
    24   1 H        0.942     0.204     1.075     1.621
    25   1 H        0.860     0.228     0.974     1.546

Wiberg/Mayer (AO) data.
largest (>0.10) Wiberg bond orders for each atom

     #   Z sym  total        # sym  WBO       # sym  WBO       # sym  WBO
 ---------------------------------------------------------------------------
     1   6 C    3.930 --     2 N    1.053    15 H    0.949    16 H    0.949
                            17 H    0.937
     2   7 N    3.017 --     3 C    1.776     1 C    1.053
     3   6 C    3.932 --     2 N    1.776     4 N    1.136    18 H    0.920
     4   7 N    3.515 --     5 C    1.204     3 C    1.136    25 H    0.915
                            13 N    0.107
     5   6 C    3.956 --    13 N    1.679     4 N    1.204     6 C    0.903
     6   6 C    3.930 --    11 C    0.983    24 H    0.912     5 C    0.903
                             7 C    0.843
     7   6 C    3.875 --     8 O    1.874     9 N    1.047     6 C    0.843
     8   8 O    2.177 --     7 C    1.874     9 N    0.132
     9   7 N    3.574 --    11 C    1.237     7 C    1.047    10 C    0.978
                             8 O    0.132
    10   6 C    3.926 --     9 N    0.978    19 H    0.969    20 H    0.962
                            21 H    0.958
    11   6 C    3.708 --    12 O    1.303     9 N    1.237     6 C    0.983
    12   8 O    2.362 --    11 C    1.303    14 C    0.832
    13   7 N    3.113 --     5 C    1.679    14 C    1.108     4 N    0.107
    14   6 C    3.880 --    13 N    1.108    23 H    0.935    22 H    0.931
                            12 O    0.832
    15   1 H    0.978 --     1 C    0.949
    16   1 H    0.960 --     1 C    0.949
    17   1 H    0.974 --     1 C    0.937
    18   1 H    0.965 --     3 C    0.920
    19   1 H    0.986 --    10 C    0.969
    20   1 H    0.988 --    10 C    0.962
    21   1 H    0.985 --    10 C    0.958
    22   1 H    0.977 --    14 C    0.931
    23   1 H    0.975 --    14 C    0.935
    24   1 H    0.957 --     6 C    0.912
    25   1 H    0.947 --     4 N    0.915
 ---------------------------------------------------------------------------

molecular dipole:
                 x           y           z       tot (Debye)
 q only:       -0.362      -0.887       0.068
   full:       -0.348      -0.936       0.059       2.542

           -------------------------------------------------
          | TOTAL ENERGY              -73.320981283664 Eh   |
          | GRADIENT NORM               0.003488410496 Eh/α |
          | HOMO-LUMO GAP               1.791565745031 eV   |
           -------------------------------------------------

 * finished run on 2024/06/05 at 19:58:12.880
