   * xtb version 6.6.1 (8d0f1dd) compiled by 'conda@1efc2f54142f' on 2023-08-01
          program call               : xtb xtbopt.xyz --opt crude --input .xc2 --gfn2

   ID    Z sym.   atoms
    1    6 C      1, 3, 5-7, 10, 11, 14
    2    7 N      2, 4, 9, 13
    3    8 O      8, 12
    4    1 H      15-25
########################################################################
[WARNING] Please study the warnings concerning your input carefully
-1- readin_getIntValue: could not parse ''
########################################################################

          :  Hamiltonian                  GFN2-xTB          :
 * total energy  :   -39.8456180 Eh     change        0.3552714E-13 Eh
 * total energy  :   -42.1032726 Eh     change       -0.2257655E+01 Eh
 * total energy  :   -42.1231667 Eh     change       -0.1989415E-01 Eh
 * total energy  :   -42.1273441 Eh     change       -0.4177385E-02 Eh
 * total energy  :   -42.1283185 Eh     change       -0.9743826E-03 Eh
 * total energy  :   -42.1290062 Eh     change       -0.6876815E-03 Eh
 * total energy  :   -42.1298924 Eh     change       -0.8862339E-03 Eh
 * total energy  :   -42.1305988 Eh     change       -0.7064259E-03 Eh
 * total energy  :   -42.1309826 Eh     change       -0.3837779E-03 Eh
 * total energy  :   -42.1311227 Eh     change       -0.1400972E-03 Eh
   *** GEOMETRY OPTIMIZATION CONVERGED AFTER 10 ITERATIONS ***

 final structure:
================
25
 xtb: 6.6.1 (8d0f1dd)
C            3.58156330362578        0.98833685803721        0.67989544086681
N            2.51937587430364        0.10548525580944        0.37843369837011
C            2.57346534639034       -0.82275741034983       -0.46910946333334
N            1.49150364022524       -1.62743333954744       -0.73851105105752
C            0.24867595509260       -1.50684505599381       -0.21160119949599
C           -0.16250463143481       -0.26158053260604        0.54675133780827
C           -0.22553346627780        1.16968582681669       -0.06083944915839
O            0.50847131357543        2.01103995926339       -0.44476987613545
N           -1.64294324090744        1.09957970430593       -0.03697422708106
C           -2.67253613317846        2.02182498367818       -0.42489718776180
C           -1.64918143728270       -0.16732687447790        0.42562147846860
O           -2.51322875838141       -1.10655661726907        0.30926926117455
N           -0.59557911356298       -2.44733582439405       -0.37044125065428
C           -1.90626518343788       -2.44162756596133        0.10197556785400
H            3.74962858443778        0.97015801894316        1.75796521649051
H            4.51395923904965        0.74587193367133        0.15776217459331
H            3.26355216931745        1.99752496837996        0.40969047039131
H            3.46343622725977       -1.08193173473490       -1.05185088630754
H           -2.19349002139994        2.86707482091288       -0.91555082843232
H           -3.37082907774651        1.53779234234216       -1.10805811616832
H           -3.21747450024979        2.37457757820217        0.45167652566288
H           -1.98314409161993       -2.99722701359390        1.04590571588283
H           -2.56567159466936       -2.91020710233136       -0.63648681466904
H            0.30546208394161       -0.24008962551297        1.53157703862697
H            1.63971902702366       -2.45979501199367       -1.29626195803285

          :  Hamiltonian                  GFN2-xTB          :
         :: total energy             -42.131122708595 Eh    ::
         :: gradient norm              0.006724929479 Eh/a0 ::
         :: HOMO-LUMO gap              1.789257908769 eV    ::
         :: SCC energy               -42.641367472704 Eh    ::
         :: -> dispersion             -0.021474236245 Eh    ::
         :: repulsion energy           0.510104573220 Eh    ::

    * Orbital Energies and Occupations

         #    Occupation            Energy/Eh            Energy/eV
      -------------------------------------------------------------
         1        2.0000           -0.9310422             -25.3349
       ...           ...                  ...                  ...
        25        2.0000           -0.6676180             -18.1668
        26        2.0000           -0.6608099             -17.9816
        27        1.9999           -0.6458158             -17.5735
        28        1.9999           -0.6436122             -17.5136
        29        1.9998           -0.6329739             -17.2241
        30        1.9997           -0.6293797             -17.1263
        31        1.9989           -0.6075387             -16.5320
        32        1.9984           -0.6015063             -16.3678
        33        1.9973           -0.5932500             -16.1432
        34        1.9951           -0.5839649             -15.8905
        35        1.9751           -0.5579764             -15.1833
        36        1.9323           -0.5417837             -14.7427
        37        1.8171           -0.5250712             -14.2879 (HOMO)
        38        0.2702           -0.4593172             -12.4987 (LUMO)
        39        0.0120           -0.4078434             -11.0980
        40        0.0042           -0.3909604             -10.6386
        41        0.0002           -0.3431287              -9.3370
        42                         -0.2155367              -5.8651
        43                         -0.1930364              -5.2528
        44                         -0.1615536              -4.3961
        45                         -0.1441236              -3.9218
        46                         -0.0918193              -2.4985
        47                         -0.0670210              -1.8237
        48                         -0.0488132              -1.3283
       ...                                ...                  ...
        67                          0.6182323              16.8230
      -------------------------------------------------------------
                  HL-Gap            0.0657540 Eh            1.7893 eV

     #   Z          covCN         q      C6AA      α(0)
     1   6 C        3.706    -0.047    21.562     6.638
     2   7 N        1.830    -0.172    25.517     7.485
     3   6 C        2.778     0.121    25.331     8.243
     4   7 N        2.708    -0.098    23.156     7.147
     5   6 C        2.846     0.174    24.250     8.071
     6   6 C        4.048    -0.086    22.044     6.669
     7   6 C        3.201     0.286    21.725     7.595
     8   8 O        0.856    -0.259    19.052     5.852
     9   7 N        2.919    -0.045    22.111     6.984
    10   6 C        3.684    -0.068    22.014     6.718
    11   6 C        3.271     0.233    22.049     7.571
    12   8 O        1.694    -0.178    16.992     5.565
    13   7 N        1.842    -0.244    27.209     7.730
    14   6 C        3.669     0.126    18.759     6.210
    15   1 H        0.924     0.093     1.850     2.127
    16   1 H        0.924     0.066     2.134     2.285
    17   1 H        0.924     0.104     1.751     2.069
    18   1 H        0.924     0.067     2.119     2.277
    19   1 H        0.925     0.113     1.671     2.022
    20   1 H        0.924     0.100     1.782     2.087
    21   1 H        0.924     0.104     1.748     2.068
    22   1 H        0.923     0.113     1.668     2.020
    23   1 H        0.924     0.130     1.536     1.938
    24   1 H        0.924     0.137     1.485     1.906
    25   1 H        0.860     0.228     0.972     1.544

Wiberg/Mayer (AO) data.
largest (>0.10) Wiberg bond orders for each atom

     #   Z sym  total        # sym  WBO       # sym  WBO       # sym  WBO
 ---------------------------------------------------------------------------
     1   6 C    3.931 --     2 N    1.052    16 H    0.950    15 H    0.948
                            17 H    0.939
     2   7 N    3.013 --     3 C    1.772     1 C    1.052
     3   6 C    3.932 --     2 N    1.772     4 N    1.140    18 H    0.920
     4   7 N    3.514 --     5 C    1.200     3 C    1.140    25 H    0.915
                            13 N    0.106
     5   6 C    3.960 --    13 N    1.665     4 N    1.200     6 C    0.945
     6   6 C    3.968 --    11 C    0.986     5 C    0.945    24 H    0.911
                             7 C    0.889
     7   6 C    3.878 --     8 O    1.872     9 N    1.022     6 C    0.889
     8   8 O    2.159 --     7 C    1.872     9 N    0.132
     9   7 N    3.577 --    11 C    1.257     7 C    1.022    10 C    0.982
                             8 O    0.132
    10   6 C    3.928 --     9 N    0.982    19 H    0.969    20 H    0.963
                            21 H    0.957
    11   6 C    3.710 --    12 O    1.299     9 N    1.257     6 C    0.986
    12   8 O    2.358 --    11 C    1.299    14 C    0.833
    13   7 N    3.094 --     5 C    1.665    14 C    1.112     4 N    0.106
    14   6 C    3.882 --    13 N    1.112    23 H    0.933    22 H    0.932
                            12 O    0.833
    15   1 H    0.979 --     1 C    0.948
    16   1 H    0.961 --     1 C    0.950
    17   1 H    0.974 --     1 C    0.939
    18   1 H    0.965 --     3 C    0.920
    19   1 H    0.986 --    10 C    0.969
    20   1 H    0.988 --    10 C    0.963
    21   1 H    0.985 --    10 C    0.957
    22   1 H    0.977 --    14 C    0.932
    23   1 H    0.974 --    14 C    0.933
    24   1 H    0.978 --     6 C    0.911
    25   1 H    0.947 --     4 N    0.915
 ---------------------------------------------------------------------------

molecular dipole:
                 x           y           z       tot (Debye)
 q only:       -0.372      -0.915       0.072
   full:       -0.353      -0.964       0.130       2.632

           -------------------------------------------------
          | TOTAL ENERGY              -42.131122708595 Eh   |
          | GRADIENT NORM               0.006724929479 Eh/α |
          | HOMO-LUMO GAP               1.789257908769 eV   |
           -------------------------------------------------

 * finished run on 2024/06/05 at 19:58:13.287
