   * xtb version 6.6.1 (8d0f1dd) compiled by 'conda@1efc2f54142f' on 2023-08-01
          program call               : xtb struc.xyz --opt loose --input .xc1 --gfn2

   ID    Z sym.   atoms
    1    6 C      1, 3, 5-7, 10, 11, 14
    2    7 N      2, 4, 9, 13
    3    8 O      8, 12
    4    1 H      15-25
constraining bond 16 17 to    3.2800000 Å, actual value:    1.7840536 Å

          :  Hamiltonian                  GFN2-xTB          :
 * total energy  :   -38.2495202 Eh     change       -0.6633627E-10 Eh
 * total energy  :   -40.3223124 Eh     change       -0.2072792E+01 Eh
 * total energy  :   -41.6503424 Eh     change       -0.1328030E+01 Eh
 * total energy  :   -42.0428261 Eh     change       -0.3924837E+00 Eh
 * total energy  :   -42.0716345 Eh     change       -0.2880840E-01 Eh
 * total energy  :   -42.0722500 Eh     change       -0.6154762E-03 Eh
 * total energy  :   -42.0742574 Eh     change       -0.2007397E-02 Eh
 * total energy  :   -42.0760944 Eh     change       -0.1837058E-02 Eh
 * total energy  :   -42.0799610 Eh     change       -0.3866588E-02 Eh
 * total energy  :   -42.0835719 Eh     change       -0.3610872E-02 Eh
 * total energy  :   -42.1793935 Eh     change       -0.2102937E-02 Eh
 * total energy  :   -42.1805273 Eh     change       -0.1133814E-02 Eh
 * total energy  :   -42.1812214 Eh     change       -0.6940920E-03 Eh
 * total energy  :   -42.1814551 Eh     change       -0.2337672E-03 Eh
 * total energy  :   -42.1816557 Eh     change       -0.2006157E-03 Eh
 * total energy  :   -42.1818120 Eh     change       -0.1562413E-03 Eh
 * total energy  :   -42.1819273 Eh     change       -0.1152956E-03 Eh
 * total energy  :   -42.1819809 Eh     change       -0.5363262E-04 Eh
 * total energy  :   -42.1820097 Eh     change       -0.2876800E-04 Eh
   *** GEOMETRY OPTIMIZATION CONVERGED AFTER 32 ITERATIONS ***

 final structure:
================
25
 xtb: 6.6.1 (8d0f1dd)
C            3.28658099725804        0.92827866310041        0.09842713055812
N            2.38361765192935       -0.03740522786324        0.02841709054541
C            2.58804547651269       -1.36379376929144       -0.12625493936410
N            1.38156504179698       -2.03096293307918       -0.14359239640069
C            0.39638301252195       -1.14816763817572        0.00008923552522
C            0.99049526931211        0.13321095224439        0.08001892396350
C            0.18978424327748        1.25994692000922        0.03154573941732
O            0.63284362289914        2.49990174124521       -0.06647220658915
N           -1.15188140245765        1.06362539799837        0.04840872416861
C           -2.06752049705231        2.19478232719860        0.00869469737159
C           -1.78050779938610       -0.19506170886868        0.07841415724233
O           -2.97228095879797       -0.28804344637319        0.11929121394840
N           -0.94819426081867       -1.31176972797712        0.03599498693240
C           -1.54473812586864       -2.63434665128729        0.01400227600262
H            3.05233814910431        1.89332689705295        0.50088820794392
H            4.31444687950158        0.67714861729720       -0.03538524344676
H            1.59846028665178        2.51271648246092       -0.21688449262410
H            3.54171617281341       -1.83061949928791       -0.22311020033952
H           -1.49963401449460        3.11915475448601        0.01456273112790
H           -2.68048799888409        2.13450848902515       -0.89026963787656
H           -2.72906756986652        2.15234311554587        0.87332288759881
H           -1.20803953898996       -3.21354058433094        0.87413920013947
H           -1.28711252134316       -3.15275870330819       -0.90998664008874
H           -2.62529396153349       -2.51229730526976        0.06554456696279
H            1.29891336001441       -3.03193862095174       -0.22863439481883

          :  Hamiltonian                  GFN2-xTB          :
         :: total energy             -42.182009677926 Eh    ::
         :: gradient norm              0.003478694781 Eh/a0 ::
         :: HOMO-LUMO gap              1.394942012179 eV    ::
         :: SCC energy               -42.712447141626 Eh    ::
         :: -> dispersion             -0.023099043893 Eh    ::
         :: repulsion energy           0.530297909814 Eh    ::

    * Orbital Energies and Occupations

         #    Occupation            Energy/Eh            Energy/eV
      -------------------------------------------------------------
         1        2.0000           -0.9086883             -24.7267
       ...           ...                  ...                  ...
        25        2.0000           -0.6699992             -18.2316
        26        2.0000           -0.6644602             -18.0809
        27        2.0000           -0.6577769             -17.8990
        28        2.0000           -0.6481922             -17.6382
        29        2.0000           -0.6426395             -17.4871
        30        2.0000           -0.6232467             -16.9594
        31        2.0000           -0.6136622             -16.6986
        32        2.0000           -0.6119505             -16.6520
        33        2.0000           -0.6100136             -16.5993
        34        2.0000           -0.5876167             -15.9899
        35        2.0000           -0.5796971             -15.7744
        36        2.0000           -0.5587843             -15.2053
        37        1.9243           -0.4829515             -13.1418 (HOMO)
        38        0.0754           -0.4316883             -11.7468 (LUMO)
        39        0.0003           -0.3880463             -10.5593
        40        0.0000           -0.3570556              -9.7160
        41                         -0.2953748              -8.0376
        42                         -0.2069297              -5.6308
        43                         -0.1685004              -4.5851
        44                         -0.1488239              -4.0497
        45                         -0.1297701              -3.5312
        46                         -0.1102539              -3.0002
        47                         -0.0666761              -1.8143
        48                         -0.0333549              -0.9076
       ...                                ...                  ...
        67                          0.5382384              14.6462
      -------------------------------------------------------------
                  HL-Gap            0.0512632 Eh            1.3949 eV

     #   Z          covCN         q      C6AA      α(0)
     1   6 C        2.790    -0.137    31.494     9.193
     2   7 N        2.789     0.107    19.404     6.542
     3   6 C        3.039    -0.021    28.497     8.756
     4   7 N        2.776    -0.058    22.353     7.022
     5   6 C        3.012     0.105    25.658     8.309
     6   6 C        3.112    -0.040    28.826     8.795
     7   6 C        2.776     0.216    23.443     7.930
     8   8 O        1.659    -0.321    19.385     5.944
     9   7 N        2.748    -0.048    22.168     6.993
    10   6 C        3.705    -0.071    22.004     6.706
    11   6 C        2.728     0.314    21.662     7.619
    12   8 O        0.859    -0.353    20.759     6.109
    13   7 N        2.737    -0.057    22.342     7.020
    14   6 C        3.698    -0.072    22.053     6.717
    15   1 H        0.926     0.065     2.145     2.290
    16   1 H        0.927     0.079     1.989     2.205
    17   1 H        0.803     0.356     0.574     1.190
    18   1 H        0.927     0.100     1.784     2.089
    19   1 H        0.925     0.110     1.698     2.037
    20   1 H        0.925     0.105     1.743     2.065
    21   1 H        0.925     0.109     1.707     2.043
    22   1 H        0.924     0.086     1.921     2.168
    23   1 H        0.924     0.084     1.937     2.176
    24   1 H        0.925     0.125     1.577     1.964
    25   1 H        0.860     0.218     1.020     1.582

Wiberg/Mayer (AO) data.
largest (>0.10) Wiberg bond orders for each atom

     #   Z sym  total        # sym  WBO       # sym  WBO       # sym  WBO
 ---------------------------------------------------------------------------
     1   6 C    3.788 --     2 N    1.344    16 H    0.971    15 H    0.954
                             3 C    0.258
     2   7 N    3.743 --     1 C    1.344     3 C    1.246     6 C    1.063
     3   6 C    3.799 --     2 N    1.246     4 N    1.155    18 H    0.961
                             1 C    0.258     5 C    0.114
     4   7 N    3.595 --     5 C    1.305     3 C    1.155    25 H    0.924
     5   6 C    3.934 --     4 N    1.305     6 C    1.204    13 N    1.172
                             3 C    0.114
     6   6 C    3.919 --     7 C    1.330     5 C    1.204     2 N    1.063
     7   6 C    3.903 --     6 C    1.330     9 N    1.224     8 O    1.177
     8   8 O    2.221 --     7 C    1.177    17 H    0.820
     9   7 N    3.580 --     7 C    1.224    11 C    1.054    10 C    0.967
                            12 O    0.123
    10   6 C    3.915 --    19 H    0.971     9 N    0.967    20 H    0.964
                            21 H    0.963
    11   6 C    3.960 --    12 O    1.722    13 N    1.088     9 N    1.054
    12   8 O    2.082 --    11 C    1.722    13 N    0.143     9 N    0.123
    13   7 N    3.558 --     5 C    1.172    11 C    1.088    14 C    0.972
                            12 O    0.143
    14   6 C    3.925 --    13 N    0.972    22 H    0.971    23 H    0.970
                            24 H    0.966
    15   1 H    0.996 --     1 C    0.954
    16   1 H    0.993 --     1 C    0.971
    17   1 H    0.872 --     8 O    0.820
    18   1 H    0.989 --     3 C    0.961
    19   1 H    0.987 --    10 C    0.971
    20   1 H    0.985 --    10 C    0.964
    21   1 H    0.984 --    10 C    0.963
    22   1 H    0.990 --    14 C    0.971
    23   1 H    0.991 --    14 C    0.970
    24   1 H    0.984 --    14 C    0.966
    25   1 H    0.952 --     4 N    0.924
 ---------------------------------------------------------------------------

molecular dipole:
                 x           y           z       tot (Debye)
 q only:        1.566      -0.698      -0.204
   full:        2.021      -0.964      -0.214       5.717

           -------------------------------------------------
          | TOTAL ENERGY              -42.182009677926 Eh   |
          | GRADIENT NORM               0.003478694781 Eh/α |
          | HOMO-LUMO GAP               1.394942012179 eV   |
           -------------------------------------------------

 * finished run on 2024/06/05 at 19:58:08.079
