   * xtb version 6.6.1 (8d0f1dd) compiled by 'conda@1efc2f54142f' on 2023-08-01
          program call               : xtb struc.xyz --opt loose --input .xc1 --gfn2

   ID    Z sym.   atoms
    1    7 N      1, 17
    2    6 C      2-6, 8, 9, 11-16, 18-23, 25, 26, 28-33
    3    8 O      7, 10, 24, 27
    4    1 H      34-72
constraining bond 43 44 to    3.2800000 Å, actual value:    1.7600723 Å

          :  Hamiltonian                  GFN2-xTB          :
 * total energy  :   -98.9916408 Eh     change       -0.4035485E-08 Eh
 * total energy  :   -99.1543288 Eh     change       -0.1626880E+00 Eh
 * total energy  :   -99.2282132 Eh     change       -0.7388438E-01 Eh
 * total energy  :   -99.2476573 Eh     change       -0.1944410E-01 Eh
 * total energy  :   -99.2507622 Eh     change       -0.3104970E-02 Eh
 * total energy  :   -99.2513866 Eh     change       -0.6243481E-03 Eh
 * total energy  :   -99.2518908 Eh     change       -0.5042288E-03 Eh
 * total energy  :   -99.2521383 Eh     change       -0.2475295E-03 Eh
 * total energy  :   -99.2523889 Eh     change       -0.2505285E-03 Eh
 * total energy  :   -99.2526915 Eh     change       -0.3026291E-03 Eh
 * total energy  :   -99.3631771 Eh     change       -0.5783379E-03 Eh
 * total energy  :   -99.3637083 Eh     change       -0.5312148E-03 Eh
 * total energy  :   -99.3640987 Eh     change       -0.3904243E-03 Eh
 * total energy  :   -99.3642956 Eh     change       -0.1969008E-03 Eh
 * total energy  :   -99.3643097 Eh     change       -0.1410341E-04 Eh
 * total energy  :   -99.3644923 Eh     change       -0.1825465E-03 Eh
 * total energy  :   -99.3645546 Eh     change       -0.6234219E-04 Eh
 * total energy  :   -99.3646237 Eh     change       -0.6905452E-04 Eh
 * total energy  :   -99.3646595 Eh     change       -0.3584199E-04 Eh
   *** GEOMETRY OPTIMIZATION CONVERGED AFTER 83 ITERATIONS ***

 final structure:
================
72
 xtb: 6.6.1 (8d0f1dd)
N           -2.25162769711271        2.24184793687296        2.53568672162321
C           -2.16032764252800        2.55497702551055        1.32538336656569
C           -3.12426843254488        2.03955713267742        0.27719432665356
C           -3.54490489916450        0.57730903917506        0.45446822495150
C           -4.40781562771652        0.04113355423862       -0.50611165918752
C           -4.82879406470530       -1.27663584728371       -0.44897176710047
O           -5.66888580283858       -1.86576121202673       -1.32167038931247
C           -6.26549218643048       -1.09486228918869       -2.33826079194715
C           -4.35722925043361       -2.11504722786381        0.60053317399020
O           -4.80995277799333       -3.38127259133064        0.57787490435822
C           -4.44438809355693       -4.26250939092090        1.61489354836883
C           -3.49434048437623       -1.57511470901465        1.54241113078581
C           -3.09294140879911       -0.24859893471179        1.47068084390928
C           -2.53090840839717        2.12720474715852       -1.09080611391700
C           -1.45090535736103        1.23813437585843       -1.56238067131804
C           -0.31424194144524        1.00680155162354       -0.55015071233917
N            0.59188129808913       -0.01789796836822       -1.00588553452180
C            1.95714778577432        0.07491160760590       -0.54007569022800
C            2.95199263396836       -0.46483958763558       -1.58339195831096
C            4.35620550056272       -0.24372807161445       -1.10287891084858
C            4.99403943152068        0.97151574465902       -1.31644736971222
C            6.27000199582356        1.20117639660921       -0.83053379338456
C            6.94266538964727        0.21857011642338       -0.11417143069103
O            8.17554913031410        0.33617181425382        0.40820527255520
C            8.87645391494896        1.54923201794669        0.25427941067237
C            6.30205770711933       -1.03490108199604        0.10350981080452
O            7.02295973942286       -1.93580987176836        0.79583151992165
C            6.48555359645663       -3.21590360880358        1.03380026458429
C            5.02118855938238       -1.23743257516491       -0.39101617431839
C            0.02565670093148       -1.34740685459937       -1.00598561355768
C           -4.39183563131398        2.95494785921128        0.38052593494679
C           -5.19881221751363        2.64267582926719        1.63537607237802
C           -4.02391318008407        4.43686634564844        0.34055340734413
H           -4.75890333039240        0.67054093919061       -1.30755687688431
H           -6.84030365379714       -0.26142302830976       -1.92351488229346
H           -6.93859078883067       -1.77208265181885       -2.86057044355036
H           -5.52073526152992       -0.71181832429012       -3.04325767835683
H           -4.76188325478843       -3.88516551697026        2.59142921622035
H           -4.96294873615220       -5.19532774987022        1.40162699796749
H           -3.36470794553291       -4.44237329032221        1.62573696655941
H           -3.13003705887015       -2.18304374503577        2.35484979601298
H           -2.45173497422515        0.14293758032506        2.24256532792585
H           -3.04817343018118        2.70830464066225       -1.83999162195113
H           -1.43204751294515        3.28319868031848        0.94525679171931
H           -1.88270841556046        0.25325571759619       -1.79497811974955
H           -1.03236171038263        1.62320036291145       -2.49482667635229
H           -0.75397157336430        0.73503869163693        0.42360950383829
H            0.24758443132241        1.93842298338708       -0.43599713345315
H            2.09828522649192       -0.46749995983380        0.40704287395822
H            2.19420341158283        1.12510033286779       -0.36098554586797
H            2.78637631275383        0.06320641464523       -2.52237815131671
H            2.77870139225191       -1.52716707012299       -1.75303707848887
H            4.49456642132531        1.74792333727159       -1.87518585824506
H            6.73967089817592        2.15299561056307       -1.01730349589656
H            8.33553900113266        2.38344884876600        0.71106735942727
H            9.06692851566263        1.77035293260032       -0.80012876951141
H            9.82407225988297        1.40737006225550        0.77015380749257
H            7.24760415881114       -3.75380261815508        1.59439327907361
H            5.56915000506528       -3.16164441700015        1.62935044443241
H            6.28360827389887       -3.74481624358241        0.09737839182571
H            4.52709213563357       -2.18290315304914       -0.23102327099404
H           -0.50270891959595       -1.53579696571961       -1.94207215597746
H           -0.68004505853252       -1.48393189376851       -0.17802926339099
H            0.81024327650141       -2.09223189444171       -0.91233701364244
H           -5.01172053044284        2.73539693422424       -0.49405454676330
H           -4.57391603639704        2.72363483069192        2.52132984371048
H           -5.60534376718902        1.63527723806319        1.59848369237295
H           -6.02266017215128        3.34527414922448        1.72438556113828
H           -3.54596830568098        4.74385269549201        1.26777296989401
H           -3.35443699729673        4.65941413330945       -0.48786928247703
H           -4.92547325317511        5.03230096948416        0.21671299251701
H           -1.60749771611971        2.68940868683104        3.18074753795310

          :  Hamiltonian                  GFN2-xTB          :
         :: total energy             -99.364659515894 Eh    ::
         :: gradient norm              0.003095905786 Eh/a0 ::
         :: HOMO-LUMO gap              0.951812388441 eV    ::
         :: SCC energy              -100.726245597205 Eh    ::
         :: -> dispersion             -0.074093887033 Eh    ::
         :: repulsion energy           1.360272069775 Eh    ::

    * Orbital Energies and Occupations

         #    Occupation            Energy/Eh            Energy/eV
      -------------------------------------------------------------
         1        2.0000           -0.8138225             -22.1452
       ...           ...                  ...                  ...
        78        1.9975           -0.5328773             -14.5003
        79        1.9967           -0.5284024             -14.3786
        80        1.9963           -0.5267714             -14.3342
        81        1.9954           -0.5233789             -14.2419
        82        1.9945           -0.5204393             -14.1619
        83        1.9944           -0.5201863             -14.1550
        84        1.9924           -0.5151890             -14.0190
        85        1.9697           -0.4931941             -13.4205
        86        1.9636           -0.4902689             -13.3409
        87        1.9166           -0.4767403             -12.9728
        88        1.8424           -0.4660478             -12.6818
        89        1.7901           -0.4610535             -12.5459
        90        1.7281           -0.4563947             -12.4191 (HOMO)
        91        0.8221           -0.4214162             -11.4673 (LUMO)
        92        0.0094           -0.3423275              -9.3152
        93        0.0022           -0.3189458              -8.6790
        94        0.0016           -0.3138687              -8.5408
        95        0.0016           -0.3137496              -8.5376
        96        0.0014           -0.3119533              -8.4887
        97        0.0000           -0.1925775              -5.2403
        98        0.0000           -0.1894161              -5.1543
        99                         -0.1052862              -2.8650
       100                         -0.0686679              -1.8685
       101                         -0.0635954              -1.7305
       ...                                ...                  ...
       171                          0.5722571              15.5719
      -------------------------------------------------------------
                  HL-Gap            0.0349785 Eh            0.9518 eV

     #   Z          covCN         q      C6AA      α(0)
     1   7 N        1.774    -0.278    28.023     7.839
     2   6 C        2.824     0.105    25.669     8.302
     3   6 C        3.910     0.015    20.269     6.399
     4   6 C        2.978     0.017    27.626     8.622
     5   6 C        2.921    -0.078    29.951     8.975
     6   6 C        2.862     0.132    25.107     8.213
     7   8 O        1.706    -0.223    17.704     5.681
     8   6 C        3.644     0.026    20.479     6.505
     9   6 C        2.863     0.133    25.089     8.210
    10   8 O        1.706    -0.219    17.643     5.671
    11   6 C        3.645     0.024    20.501     6.507
    12   6 C        2.914    -0.069    29.713     8.938
    13   6 C        2.919    -0.046    29.140     8.852
    14   6 C        2.906    -0.046    29.153     8.853
    15   6 C        3.802    -0.065    21.752     6.640
    16   6 C        3.750     0.001    20.632     6.478
    17   7 N        2.727    -0.114    23.478     7.196
    18   6 C        3.751     0.002    20.607     6.474
    19   6 C        3.808    -0.073    21.883     6.659
    20   6 C        2.969     0.011    27.779     8.645
    21   6 C        2.922    -0.044    29.090     8.845
    22   6 C        2.913    -0.065    29.620     8.924
    23   6 C        2.864     0.135    25.039     8.202
    24   8 O        1.706    -0.214    17.560     5.658
    25   6 C        3.645     0.023    20.519     6.510
    26   6 C        2.862     0.136    25.030     8.201
    27   8 O        1.706    -0.217    17.605     5.665
    28   6 C        3.645     0.025    20.491     6.506
    29   6 C        2.919    -0.076    29.887     8.965
    30   6 C        3.702    -0.050    21.626     6.649
    31   6 C        3.858    -0.007    20.669     6.466
    32   6 C        3.755    -0.117    22.792     6.807
    33   6 C        3.754    -0.112    22.706     6.795
    34   1 H        0.926     0.052     2.301     2.372
    35   1 H        0.924     0.056     2.250     2.345
    36   1 H        0.925     0.084     1.939     2.178
    37   1 H        0.924     0.051     2.308     2.376
    38   1 H        0.924     0.059     2.213     2.326
    39   1 H        0.925     0.084     1.940     2.178
    40   1 H        0.924     0.053     2.280     2.361
    41   1 H        0.926     0.059     2.213     2.327
    42   1 H        0.926     0.074     2.040     2.234
    43   1 H        0.926     0.058     2.224     2.332
    44   1 H        0.924     0.022     2.708     2.573
    45   1 H        0.923     0.082     1.955     2.186
    46   1 H        0.924     0.069     2.093     2.262
    47   1 H        0.923     0.038     2.475     2.460
    48   1 H        0.924     0.051     2.314     2.379
    49   1 H        0.923     0.037     2.492     2.469
    50   1 H        0.924     0.050     2.315     2.379
    51   1 H        0.925     0.064     2.150     2.293
    52   1 H        0.925     0.055     2.264     2.353
    53   1 H        0.926     0.054     2.273     2.358
    54   1 H        0.926     0.061     2.182     2.310
    55   1 H        0.924     0.057     2.229     2.335
    56   1 H        0.924     0.060     2.201     2.320
    57   1 H        0.925     0.085     1.929     2.172
    58   1 H        0.925     0.084     1.936     2.176
    59   1 H        0.924     0.053     2.277     2.360
    60   1 H        0.924     0.057     2.234     2.338
    61   1 H        0.926     0.053     2.278     2.360
    62   1 H        0.924     0.057     2.237     2.339
    63   1 H        0.924     0.040     2.443     2.444
    64   1 H        0.925     0.061     2.189     2.314
    65   1 H        0.924     0.045     2.389     2.417
    66   1 H        0.925     0.061     2.182     2.310
    67   1 H        0.925     0.044     2.403     2.424
    68   1 H        0.925     0.056     2.249     2.345
    69   1 H        0.925     0.045     2.389     2.417
    70   1 H        0.925     0.042     2.428     2.437
    71   1 H        0.925     0.055     2.257     2.349
    72   1 H        0.860     0.162     1.321     1.800

Wiberg/Mayer (AO) data.
largest (>0.10) Wiberg bond orders for each atom

     #   Z sym  total        # sym  WBO       # sym  WBO       # sym  WBO
 ---------------------------------------------------------------------------
     1   7 N    3.008 --     2 C    1.934    72 H    0.938
     2   6 C    3.918 --     1 N    1.934     3 C    0.971    44 H    0.937
     3   6 C    3.970 --    14 C    1.033     2 C    0.971     4 C    0.939
                            31 C    0.913
     4   6 C    3.896 --    13 C    1.405     5 C    1.365     3 C    0.939
     5   6 C    3.948 --     6 C    1.400     4 C    1.365    34 H    0.958
     6   6 C    3.890 --     5 C    1.400     9 C    1.209     7 O    1.106
     7   8 O    2.248 --     6 C    1.106     8 C    0.977
     8   6 C    3.929 --     7 O    0.977    36 H    0.976    35 H    0.973
                            37 H    0.972
     9   6 C    3.881 --    12 C    1.382     6 C    1.209    10 O    1.112
    10   8 O    2.250 --     9 C    1.112    11 C    0.975
    11   6 C    3.927 --    39 H    0.976    10 O    0.975    40 H    0.972
                            38 H    0.972
    12   6 C    3.950 --    13 C    1.410     9 C    1.382    41 H    0.962
    13   6 C    3.925 --    12 C    1.410     4 C    1.405    42 H    0.950
    14   6 C    3.209 --    15 C    1.089     3 C    1.033    43 H    0.967
    15   6 C    3.971 --    14 C    1.089    16 C    0.973    46 H    0.963
                            45 H    0.905
    16   6 C    3.956 --    17 N    1.012    15 C    0.973    48 H    0.969
                            47 H    0.945
    17   7 N    3.107 --    30 C    1.015    16 C    1.012    18 C    1.005
    18   6 C    3.962 --    17 N    1.005    19 C    0.973    50 H    0.969
                            49 H    0.957
    19   6 C    3.978 --    20 C    1.014    18 C    0.973    52 H    0.968
                            51 H    0.968
    20   6 C    3.924 --    29 C    1.388    21 C    1.387    19 C    1.014
    21   6 C    3.925 --    22 C    1.428    20 C    1.387    53 H    0.967
    22   6 C    3.948 --    21 C    1.428    23 C    1.370    54 H    0.962
    23   6 C    3.870 --    22 C    1.370    26 C    1.209    24 O    1.118
    24   8 O    2.246 --    23 C    1.118    25 C    0.975
    25   6 C    3.924 --    57 H    0.976    24 O    0.975    55 H    0.971
                            56 H    0.971
    26   6 C    3.877 --    29 C    1.384    23 C    1.209    27 O    1.113
    27   8 O    2.248 --    26 C    1.113    28 C    0.976
    28   6 C    3.927 --    27 O    0.976    58 H    0.976    59 H    0.972
                            60 H    0.972
    29   6 C    3.950 --    20 C    1.388    26 C    1.384    61 H    0.961
    30   6 C    3.969 --    17 N    1.015    64 H    0.977    62 H    0.970
                            63 H    0.968
    31   6 C    3.975 --    32 C    1.012    33 C    1.008    65 H    0.957
                             3 C    0.913
    32   6 C    3.981 --    31 C    1.012    67 H    0.982    68 H    0.979
                            66 H    0.974
    33   6 C    3.985 --    31 C    1.008    69 H    0.982    71 H    0.981
                            70 H    0.981
    34   1 H    0.996 --     5 C    0.958
    35   1 H    0.991 --     8 C    0.973
    36   1 H    0.992 --     8 C    0.976
    37   1 H    0.991 --     8 C    0.972
    38   1 H    0.990 --    11 C    0.972
    39   1 H    0.992 --    11 C    0.976
    40   1 H    0.991 --    11 C    0.972
    41   1 H    0.994 --    12 C    0.962
    42   1 H    0.992 --    13 C    0.950
    43   1 H    0.994 --    14 C    0.967
    44   1 H    0.980 --     2 C    0.937
    45   1 H    0.936 --    15 C    0.905
    46   1 H    0.987 --    15 C    0.963
    47   1 H    0.979 --    16 C    0.945
    48   1 H    0.995 --    16 C    0.969
    49   1 H    0.978 --    18 C    0.957
    50   1 H    0.997 --    18 C    0.969
    51   1 H    0.992 --    19 C    0.968
    52   1 H    0.995 --    19 C    0.968
    53   1 H    0.996 --    21 C    0.967
    54   1 H    0.994 --    22 C    0.962
    55   1 H    0.989 --    25 C    0.971
    56   1 H    0.988 --    25 C    0.971
    57   1 H    0.992 --    25 C    0.976
    58   1 H    0.992 --    28 C    0.976
    59   1 H    0.990 --    28 C    0.972
    60   1 H    0.990 --    28 C    0.972
    61   1 H    0.995 --    29 C    0.961
    62   1 H    0.986 --    30 C    0.970
    63   1 H    0.984 --    30 C    0.968
    64   1 H    0.995 --    30 C    0.977
    65   1 H    0.993 --    31 C    0.957
    66   1 H    0.993 --    32 C    0.974
    67   1 H    0.996 --    32 C    0.982
    68   1 H    0.994 --    32 C    0.979
    69   1 H    0.996 --    33 C    0.982
    70   1 H    0.997 --    33 C    0.981
    71   1 H    0.994 --    33 C    0.981
    72   1 H    0.965 --     1 N    0.938
 ---------------------------------------------------------------------------

molecular dipole:
                 x           y           z       tot (Debye)
 q only:        0.450       0.125      -0.385
   full:        0.618       0.456      -0.377       2.174

           -------------------------------------------------
          | TOTAL ENERGY              -99.364659515894 Eh   |
          | GRADIENT NORM               0.003095905786 Eh/α |
          | HOMO-LUMO GAP               0.951812388441 eV   |
           -------------------------------------------------

 * finished run on 2024/04/06 at 11:15:11.262
