   * xtb version 6.6.1 (8d0f1dd) compiled by 'conda@1efc2f54142f' on 2023-08-01
          program call               : xtb struc.xyz --opt loose --input .xc1 --gfn2

   ID    Z sym.   atoms
    1    7 N      1, 17
    2    6 C      2-6, 8, 9, 11-16, 18-23, 25, 26, 28-33
    3    8 O      7, 10, 24, 27
    4    1 H      34-72
constraining bond 2 66 to    4.7133300 Å, actual value:    2.8227004 Å

          :  Hamiltonian                  GFN2-xTB          :
 * total energy  :  -100.0423659 Eh     change       -0.4035485E-08 Eh
 * total energy  :  -100.5291283 Eh     change       -0.4867624E+00 Eh
 * total energy  :  -101.1025832 Eh     change       -0.5734549E+00 Eh
 * total energy  :  -101.7492552 Eh     change       -0.6466720E+00 Eh
 * total energy  :   -98.6842270 Eh     change        0.3065028E+01 Eh
 * total energy  :  -101.7943171 Eh     change       -0.3110090E+01 Eh
 * total energy  :  -101.8291092 Eh     change       -0.3479208E-01 Eh
 * total energy  :  -101.8192264 Eh     change        0.9882732E-02 Eh
 * total energy  :  -101.9015256 Eh     change       -0.8229917E-01 Eh
 * total energy  :  -101.9358681 Eh     change       -0.3434247E-01 Eh
 * total energy  :  -102.0079506 Eh     change       -0.1043800E-02 Eh
 * total energy  :  -102.0086487 Eh     change       -0.6981069E-03 Eh
 * total energy  :  -102.0090973 Eh     change       -0.4486160E-03 Eh
 * total energy  :  -102.0094022 Eh     change       -0.3049137E-03 Eh
 * total energy  :  -102.0095784 Eh     change       -0.1761966E-03 Eh
 * total energy  :  -102.0096871 Eh     change       -0.1086972E-03 Eh
 * total energy  :  -102.0097540 Eh     change       -0.6688111E-04 Eh
 * total energy  :  -102.0098093 Eh     change       -0.5532694E-04 Eh
 * total energy  :  -102.0098466 Eh     change       -0.3732550E-04 Eh
   *** GEOMETRY OPTIMIZATION CONVERGED AFTER 34 ITERATIONS ***

 final structure:
================
72
 xtb: 6.6.1 (8d0f1dd)
N           -1.52664733008059        3.02761106471464        1.92236362157580
C           -2.60443278321063        2.39491334368053        1.77460010958757
C           -3.26399871634009        2.02123642880143        0.43212881309485
C           -3.69646488576457        0.56802963903320        0.46965139105635
C           -4.57375935268165        0.07251338898708       -0.49700611303607
C           -4.96915568344150       -1.25525176252367       -0.50772816959779
O           -5.82104298407444       -1.80586003886906       -1.39421502429271
C           -6.44501008297324       -0.98723479010961       -2.35551231959040
C           -4.45837750262778       -2.14513849163679        0.47708970015380
O           -4.89143309384463       -3.41688128360736        0.39217763658655
C           -4.45545574458587       -4.35675653657020        1.34699424607963
C           -3.57595199610550       -1.65023186563306        1.42498420846407
C           -3.20298829767424       -0.31355734012235        1.42187641906976
C           -2.40565892217927        2.28710738391870       -0.82194808139578
C           -1.44521259737111        1.16233453016166       -1.22265919643950
C           -0.29013417390835        0.94903665859966       -0.24125843897984
N            0.61125733865102       -0.07497069412815       -0.70526454381465
C            1.98576141561358       -0.00310556644502       -0.28530058572407
C            2.94266738820722       -0.42162676684209       -1.42088077054689
C            4.36413170638391       -0.20810381113770       -0.99342479706947
C            4.99690601604229        1.00734713431310       -1.22026658041948
C            6.29174669510193        1.22975160528644       -0.78272871625210
C            6.98763863202669        0.23967098771659       -0.10009662591731
O            8.23895905486476        0.34827355640296        0.37739179327254
C            8.94078252737018        1.55823285669442        0.20598504799434
C            6.35138256015735       -1.01384994462708        0.13265303283333
O            7.09579160694097       -1.91918533115933        0.79315242881381
C            6.56013879166861       -3.19368068602820        1.06137016512694
C            5.05317200533917       -1.21031316355906       -0.31610383289470
C            0.04242359834445       -1.39490396026992       -0.81931063521507
C           -4.54464261003455        2.95959686418569        0.41942209952656
C           -5.43798718381971        2.65027069884626        1.53758842697354
C           -4.19029595287696        4.44455780926642        0.36497811252635
H           -4.95313386665235        0.73548162300252       -1.25741833180073
H           -7.02924637695857       -0.19071001397686       -1.88420295675244
H           -7.11388615511580       -1.64370451509462       -2.90856664199118
H           -5.71694947256878       -0.55051211672519       -3.04638199165567
H           -4.74595926795621       -4.06368270131839        2.36039614744953
H           -4.95068098004149       -5.28986600487920        1.08570295457756
H           -3.37110210988671       -4.49761087185148        1.30365087984510
H           -3.17274553619555       -2.30001140000278        2.18461589092767
H           -2.51541516529564        0.02376587347322        2.18270697745903
H           -3.07847139732875        2.44823199621931       -1.66651446692119
H           -1.83843349753395        3.21029638522300       -0.68697215816376
H           -2.00494009079794        0.23446829806492       -1.33427454288405
H           -1.01722416865653        1.41224070153685       -2.19506798093016
H           -0.69359507244087        0.69110549490260        0.75047355129931
H            0.27675680315314        1.87709560236510       -0.14779869290631
H            2.17510846805203       -0.64027882505200        0.59182714950832
H            2.21817176984641        1.02582795694230       -0.00473698534210
H            2.71845517336661        0.18375416378757       -2.29928229957924
H            2.77773375188838       -1.46888415325761       -1.67428859444565
H            4.47830184546641        1.79055529768612       -1.75135368872546
H            6.75623579866322        2.18225112673058       -0.97892491746610
H            8.42456893941934        2.39154003916426        0.69189801263857
H            9.08968654341474        1.78804394000784       -0.85318537615022
H            9.90755459250908        1.40538686079770        0.68170001671097
H            7.33897913491066       -3.73107760438204        1.59901718345757
H            5.66611140385256       -3.12872565682189        1.68918041604947
H            6.32150541046870       -3.72978815150248        0.13773757180916
H            4.56399033080361       -2.15688768815818       -0.14776627512456
H           -0.36023897996160       -1.55043899857173       -1.82356195364844
H           -0.76971471813901       -1.53964539694805       -0.09793063516491
H            0.80316457842400       -2.15246590518059       -0.63856172919323
H           -5.06981489995464        2.70185287060327       -0.51381605728159
H           -3.00235576082680        2.21404343312835        2.37555601180297
H           -5.76424161468672        1.64150615510382        1.70633478672669
H           -5.77691460701271        3.41920964282488        2.20347754029579
H           -3.59653351783745        4.73831971704260        1.22766390805611
H           -3.63759003232688        4.68845331283410       -0.53754064286973
H           -5.10429513899726        5.03372431426206        0.36658387232835
H           -0.99043596318148        3.31144280317891        1.11018606910614

          :  Hamiltonian                  GFN2-xTB          :
         :: total energy            -102.009846649669 Eh    ::
         :: gradient norm              0.003229321182 Eh/a0 ::
         :: HOMO-LUMO gap              0.887949536176 eV    ::
         :: SCC energy              -100.746067608015 Eh    ::
         :: -> dispersion             -0.074171991413 Eh    ::
         :: repulsion energy           1.549522405298 Eh    ::

    * Orbital Energies and Occupations

         #    Occupation            Energy/Eh            Energy/eV
      -------------------------------------------------------------
         1        2.0000           -0.8145830             -22.1659
       ...           ...                  ...                  ...
        78        1.9980           -0.5362654             -14.5925
        79        1.9974           -0.5319488             -14.4751
        80        1.9974           -0.5317467             -14.4696
        81        1.9969           -0.5292222             -14.4009
        82        1.9963           -0.5262503             -14.3200
        83        1.9951           -0.5218653             -14.2007
        84        1.9943           -0.5195041             -14.1364
        85        1.9752           -0.4959301             -13.4949
        86        1.9626           -0.4893363             -13.3155
        87        1.9137           -0.4756991             -12.9444
        88        1.8383           -0.4651270             -12.6567
        89        1.7919           -0.4607244             -12.5369
        90        1.6997           -0.4540848             -12.3563 (HOMO)
        91        0.8378           -0.4214533             -11.4683 (LUMO)
        92        0.0111           -0.3444654              -9.3734
        93        0.0026           -0.3215657              -8.7502
        94        0.0022           -0.3187255              -8.6730
        95        0.0015           -0.3130000              -8.5172
        96        0.0013           -0.3110132              -8.4631
        97        0.0000           -0.1960990              -5.3361
        98        0.0000           -0.1886411              -5.1332
        99                         -0.1076406              -2.9290
       100                         -0.0791137              -2.1528
       101                         -0.0677420              -1.8434
       ...                                ...                  ...
       171                          1.4437473              39.2864
      -------------------------------------------------------------
                  HL-Gap            0.0326315 Eh            0.8879 eV

     #   Z          covCN         q      C6AA      α(0)
     1   7 N        1.773    -0.286    28.221     7.867
     2   6 C        2.830     0.070    26.422     8.423
     3   6 C        3.900    -0.005    20.607     6.453
     4   6 C        2.970     0.003    27.965     8.674
     5   6 C        2.920    -0.077    29.913     8.969
     6   6 C        2.862     0.132    25.100     8.212
     7   8 O        1.706    -0.225    17.725     5.684
     8   6 C        3.644     0.027    20.464     6.502
     9   6 C        2.864     0.132    25.103     8.213
    10   8 O        1.706    -0.222    17.691     5.679
    11   6 C        3.645     0.026    20.479     6.504
    12   6 C        2.913    -0.071    29.758     8.945
    13   6 C        2.921    -0.049    29.226     8.865
    14   6 C        3.803    -0.063    21.707     6.633
    15   6 C        3.801    -0.070    21.837     6.653
    16   6 C        3.748    -0.002    20.685     6.487
    17   7 N        2.728    -0.102    23.237     7.159
    18   6 C        3.748     0.001    20.633     6.479
    19   6 C        3.808    -0.073    21.892     6.660
    20   6 C        2.968     0.011    27.767     8.643
    21   6 C        2.922    -0.043    29.077     8.843
    22   6 C        2.913    -0.065    29.612     8.923
    23   6 C        2.864     0.136    25.030     8.201
    24   8 O        1.706    -0.213    17.548     5.656
    25   6 C        3.645     0.023    20.523     6.511
    26   6 C        2.862     0.136    25.024     8.200
    27   8 O        1.706    -0.217    17.597     5.664
    28   6 C        3.645     0.025    20.492     6.506
    29   6 C        2.919    -0.076    29.885     8.965
    30   6 C        3.699    -0.051    21.650     6.655
    31   6 C        3.857    -0.005    20.628     6.459
    32   6 C        2.839    -0.089    30.223     9.009
    33   6 C        3.756    -0.118    22.807     6.809
    34   1 H        0.926     0.051     2.305     2.374
    35   1 H        0.924     0.053     2.281     2.362
    36   1 H        0.925     0.083     1.945     2.181
    37   1 H        0.924     0.052     2.299     2.371
    38   1 H        0.924     0.057     2.238     2.339
    39   1 H        0.925     0.083     1.946     2.181
    40   1 H        0.924     0.052     2.295     2.369
    41   1 H        0.926     0.055     2.255     2.348
    42   1 H        0.926     0.044     2.400     2.423
    43   1 H        0.924     0.050     2.319     2.382
    44   1 H        0.924     0.049     2.330     2.387
    45   1 H        0.925     0.048     2.340     2.392
    46   1 H        0.924     0.055     2.260     2.351
    47   1 H        0.923     0.037     2.484     2.465
    48   1 H        0.924     0.050     2.316     2.380
    49   1 H        0.923     0.041     2.441     2.443
    50   1 H        0.924     0.053     2.281     2.362
    51   1 H        0.925     0.063     2.166     2.302
    52   1 H        0.925     0.056     2.248     2.345
    53   1 H        0.926     0.055     2.264     2.353
    54   1 H        0.926     0.062     2.176     2.307
    55   1 H        0.924     0.058     2.219     2.330
    56   1 H        0.924     0.060     2.201     2.320
    57   1 H        0.925     0.085     1.928     2.171
    58   1 H        0.925     0.084     1.936     2.176
    59   1 H        0.924     0.054     2.275     2.359
    60   1 H        0.924     0.057     2.235     2.338
    61   1 H        0.926     0.053     2.278     2.360
    62   1 H        0.924     0.060     2.202     2.321
    63   1 H        0.924     0.045     2.377     2.411
    64   1 H        0.925     0.058     2.219     2.330
    65   1 H        0.923     0.079     1.986     2.204
    66   1 H        0.932     0.110     1.695     2.036
    67   1 H        0.926     0.056     2.248     2.345
    68   1 H        0.926     0.071     2.077     2.254
    69   1 H        0.925     0.052     2.290     2.367
    70   1 H        0.925     0.048     2.339     2.392
    71   1 H        0.925     0.059     2.216     2.328
    72   1 H        0.860     0.159     1.341     1.814

Wiberg/Mayer (AO) data.
largest (>0.10) Wiberg bond orders for each atom

     #   Z sym  total        # sym  WBO       # sym  WBO       # sym  WBO
 ---------------------------------------------------------------------------
     1   7 N    3.012 --     2 C    1.960    72 H    0.932
     2   6 C    3.935 --     1 N    1.960    66 H    0.962     3 C    0.947
     3   6 C    3.908 --     4 C    0.984    14 C    0.977     2 C    0.947
                            31 C    0.872
     4   6 C    3.940 --    13 C    1.406     5 C    1.370     3 C    0.984
     5   6 C    3.954 --     6 C    1.397     4 C    1.370    34 H    0.956
     6   6 C    3.897 --     5 C    1.397     9 C    1.216     7 O    1.105
     7   8 O    2.253 --     6 C    1.105     8 C    0.977
     8   6 C    3.929 --     7 O    0.977    36 H    0.976    35 H    0.973
                            37 H    0.972
     9   6 C    3.892 --    12 C    1.386     6 C    1.216    10 O    1.109
    10   8 O    2.253 --     9 C    1.109    11 C    0.976
    11   6 C    3.928 --    39 H    0.977    10 O    0.976    40 H    0.973
                            38 H    0.972
    12   6 C    3.957 --    13 C    1.411     9 C    1.386    41 H    0.963
    13   6 C    3.944 --    12 C    1.411     4 C    1.406    42 H    0.960
    14   6 C    3.985 --    15 C    1.004     3 C    0.977    43 H    0.969
                            44 H    0.962
    15   6 C    3.979 --    14 C    1.004    16 C    0.996    46 H    0.973
                            45 H    0.969
    16   6 C    3.967 --    17 N    1.007    15 C    0.996    48 H    0.966
                            47 H    0.947
    17   7 N    3.099 --    30 C    1.017    18 C    1.013    16 C    1.007
    18   6 C    3.961 --    17 N    1.013    50 H    0.970    19 C    0.966
                            49 H    0.954
    19   6 C    3.973 --    20 C    1.015    51 H    0.970    52 H    0.968
                            18 C    0.966
    20   6 C    3.922 --    21 C    1.387    29 C    1.386    19 C    1.015
    21   6 C    3.924 --    22 C    1.427    20 C    1.387    53 H    0.967
    22   6 C    3.947 --    21 C    1.427    23 C    1.371    54 H    0.962
    23   6 C    3.868 --    22 C    1.371    26 C    1.207    24 O    1.119
    24   8 O    2.247 --    23 C    1.119    25 C    0.975
    25   6 C    3.924 --    57 H    0.976    24 O    0.975    55 H    0.971
                            56 H    0.971
    26   6 C    3.876 --    29 C    1.385    23 C    1.207    27 O    1.113
    27   8 O    2.248 --    26 C    1.113    28 C    0.976
    28   6 C    3.927 --    27 O    0.976    58 H    0.976    59 H    0.972
                            60 H    0.971
    29   6 C    3.949 --    20 C    1.386    26 C    1.385    61 H    0.961
    30   6 C    3.967 --    17 N    1.017    64 H    0.978    63 H    0.969
                            62 H    0.968
    31   6 C    3.972 --    32 C    1.121    33 C    1.007    65 H    0.894
                             3 C    0.872
    32   6 C    3.152 --    31 C    1.121    67 H    0.979    68 H    0.979
    33   6 C    3.987 --    31 C    1.007    70 H    0.983    69 H    0.982
                            71 H    0.981
    34   1 H    0.996 --     5 C    0.956
    35   1 H    0.992 --     8 C    0.973
    36   1 H    0.992 --     8 C    0.976
    37   1 H    0.992 --     8 C    0.972
    38   1 H    0.991 --    11 C    0.972
    39   1 H    0.992 --    11 C    0.977
    40   1 H    0.992 --    11 C    0.973
    41   1 H    0.995 --    12 C    0.963
    42   1 H    0.997 --    13 C    0.960
    43   1 H    0.994 --    14 C    0.969
    44   1 H    0.996 --    14 C    0.962
    45   1 H    0.997 --    15 C    0.969
    46   1 H    0.994 --    15 C    0.973
    47   1 H    0.972 --    16 C    0.947
    48   1 H    0.996 --    16 C    0.966
    49   1 H    0.975 --    18 C    0.954
    50   1 H    0.997 --    18 C    0.970
    51   1 H    0.993 --    19 C    0.970
    52   1 H    0.994 --    19 C    0.968
    53   1 H    0.996 --    21 C    0.967
    54   1 H    0.994 --    22 C    0.962
    55   1 H    0.989 --    25 C    0.971
    56   1 H    0.988 --    25 C    0.971
    57   1 H    0.992 --    25 C    0.976
    58   1 H    0.992 --    28 C    0.976
    59   1 H    0.990 --    28 C    0.972
    60   1 H    0.990 --    28 C    0.971
    61   1 H    0.995 --    29 C    0.961
    62   1 H    0.980 --    30 C    0.968
    63   1 H    0.983 --    30 C    0.969
    64   1 H    0.994 --    30 C    0.978
    65   1 H    0.940 --    31 C    0.894
    66   1 H    0.984 --     2 C    0.962
    67   1 H    0.996 --    32 C    0.979
    68   1 H    0.994 --    32 C    0.979
    69   1 H    0.995 --    33 C    0.982
    70   1 H    0.997 --    33 C    0.983
    71   1 H    0.995 --    33 C    0.981
    72   1 H    0.968 --     1 N    0.932
 ---------------------------------------------------------------------------

molecular dipole:
                 x           y           z       tot (Debye)
 q only:        0.041       0.253      -0.322
   full:       -0.206       0.212      -0.436       1.340

           -------------------------------------------------
          | TOTAL ENERGY             -102.009846649669 Eh   |
          | GRADIENT NORM               0.003229321182 Eh/α |
          | HOMO-LUMO GAP               0.887949536176 eV   |
           -------------------------------------------------

 * finished run on 2024/04/06 at 11:15:37.020
