   * xtb version 6.6.1 (8d0f1dd) compiled by 'conda@1efc2f54142f' on 2023-08-01
          program call               : xtb xtbopt.xyz --opt crude --input .xc2 --gfn2

   ID    Z sym.   atoms
    1    7 N      1, 17
    2    6 C      2-6, 8, 9, 11-16, 18-23, 25, 26, 28-33
    3    8 O      7, 10, 24, 27
    4    1 H      34-72
########################################################################
[WARNING] Please study the warnings concerning your input carefully
-1- readin_getIntValue: could not parse ''
########################################################################

          :  Hamiltonian                  GFN2-xTB          :
 * total energy  :   -99.1953681 Eh     change       -0.1500666E-10 Eh
 * total energy  :   -99.3544264 Eh     change       -0.1590583E+00 Eh
 * total energy  :   -99.3564421 Eh     change       -0.2015736E-02 Eh
 * total energy  :   -99.3571073 Eh     change       -0.6651942E-03 Eh
 * total energy  :   -99.3573532 Eh     change       -0.2458727E-03 Eh
   *** GEOMETRY OPTIMIZATION CONVERGED AFTER 5 ITERATIONS ***

 final structure:
================
72
 xtb: 6.6.1 (8d0f1dd)
N           -1.51926200250879        3.03714800374711        1.93792523215068
C           -2.58153633288946        2.41503822548111        1.72427858241843
C           -3.25597408404859        2.02552888645484        0.42314619663849
C           -3.68692493391248        0.57156876402388        0.46396549577384
C           -4.56605731374397        0.07648207642659       -0.50143107625623
C           -4.96470625277019       -1.25006347353849       -0.50868186016574
O           -5.81948010995948       -1.80247203795981       -1.39106946095530
C           -6.43964761267817       -0.98873510075120       -2.35881107460687
C           -4.45443275522279       -2.13959611034643        0.47744217808194
O           -4.88925502836526       -3.40969736565606        0.39195790143469
C           -4.45824844820775       -4.35116360198900        1.34748039137273
C           -3.57024329806485       -1.64457668157070        1.42350513762236
C           -3.19349623118789       -0.30882732373958        1.41635723465786
C           -2.40497810540769        2.28484810166814       -0.84189958260809
C           -1.44377523523856        1.15899625404871       -1.23904093721259
C           -0.29097123510923        0.94804882794684       -0.25483325730631
N            0.61057324165917       -0.07859618416734       -0.71420238552511
C            1.98305277222255       -0.00611567469175       -0.28587075082824
C            2.94260927676908       -0.42087644854521       -1.41971845345986
C            4.36314165667204       -0.20650936732905       -0.99071238309747
C            4.99457921342430        1.01002270745718       -1.21553782364015
C            6.28991491094972        1.23230558020342       -0.77944799630771
C            6.98667058619614        0.24100753341702       -0.09947342764392
O            8.23883453137152        0.34705621143868        0.37563015571182
C            8.94451967551850        1.55443926962147        0.20136658385393
C            6.35048893896068       -1.01262558771438        0.13345200443911
O            7.09647015395578       -1.91790392286261        0.79178881948522
C            6.56238419222081       -3.19289491848187        1.06004494714461
C            5.05193460545550       -1.20912261875184       -0.31404350238059
C            0.04035199563607       -1.40025494306412       -0.81557647075827
C           -4.54006945820043        2.95933243033456        0.41447240625088
C           -5.41892042959126        2.64642397226113        1.54277860059036
C           -4.19390509710740        4.44593266795295        0.35904917023920
H           -4.94480759065301        0.73806715839897       -1.26339376766251
H           -7.02469682145086       -0.18895119425861       -1.89425309608052
H           -7.10702564598178       -1.64852368914212       -2.90967518779562
H           -5.70929612654854       -0.55650111706616       -3.05012903611594
H           -4.75135541297245       -4.05810214879909        2.35988471720405
H           -4.95478261465652       -5.28282067486192        1.08356807957026
H           -3.37392535262891       -4.49471512721326        1.30754281854082
H           -3.16856147072673       -2.29409384174149        2.18428910791115
H           -2.50406678009688        0.03185652657791        2.17354852075035
H           -3.08432933650200        2.43474227614379       -1.68371674936986
H           -1.84037474787464        3.21177944486357       -0.71880441916661
H           -2.00344630430205        0.23038974462009       -1.34837140277255
H           -1.01411501158999        1.40522662565588       -2.21218290316986
H           -0.69714263431824        0.69393705658603        0.73687360215360
H            0.27721049906558        1.87652263906003       -0.16420626938178
H            2.16897138876433       -0.64383666330901        0.59159976629419
H            2.21286682077701        1.02263659947839       -0.00251415414096
H            2.71788744914427        0.18663064649155       -2.29663275241309
H            2.77830275844552       -1.46747989868009       -1.67607513082650
H            4.47456676812708        1.79398883508833       -1.74423016982221
H            6.75421839222536        2.18500013239701       -0.97517518348258
H            8.43261516871663        2.39011499325094        0.68796178165034
H            9.09145942504253        1.78259304100838       -0.85842433822400
H            9.91197407645475        1.39832535147156        0.67472276882384
H            7.34449303756131       -3.73122836040734        1.59193322018334
H            5.67198349026130       -3.12928732215333        1.69327416097936
H            6.31833126733793       -3.72699797176519        0.13666480822165
H            4.56293030009246       -2.15577533745500       -0.14571061795862
H           -0.37671381006922       -1.55831171179456       -1.81272545711460
H           -0.76082247138813       -1.54366912704190       -0.08243226095528
H            0.80384835381683       -2.15556338424830       -0.64464765190259
H           -5.06919139687081        2.69834725779322       -0.51504049754967
H           -3.17628079768516        2.16558040785221        2.59508318037979
H           -5.74670506504793        1.63809058808816        1.71397065951415
H           -5.75669913306458        3.41650676798071        2.20858662437924
H           -3.60259845464030        4.74060277478261        1.22244971730874
H           -3.64296146123530        4.69424893657788       -0.54353008468933
H           -5.11133860683056        5.02896127353493        0.36012566790191
H           -0.95754833849291        3.32169986341025        1.13676617631558

          :  Hamiltonian                  GFN2-xTB          :
         :: total energy             -99.357353207717 Eh    ::
         :: gradient norm              0.008163426754 Eh/a0 ::
         :: HOMO-LUMO gap              0.897598230602 eV    ::
         :: SCC energy              -100.720346772262 Eh    ::
         :: -> dispersion             -0.074190466544 Eh    ::
         :: repulsion energy           1.361810517949 Eh    ::

    * Orbital Energies and Occupations

         #    Occupation            Energy/Eh            Energy/eV
      -------------------------------------------------------------
         1        2.0000           -0.8148179             -22.1723
       ...           ...                  ...                  ...
        78        1.9980           -0.5361781             -14.5901
        79        1.9974           -0.5319221             -14.4743
        80        1.9974           -0.5316548             -14.4671
        81        1.9969           -0.5291230             -14.3982
        82        1.9963           -0.5261410             -14.3170
        83        1.9951           -0.5218404             -14.2000
        84        1.9943           -0.5195247             -14.1370
        85        1.9752           -0.4959647             -13.4959
        86        1.9626           -0.4893579             -13.3161
        87        1.9228           -0.4775518             -12.9948
        88        1.8382           -0.4651248             -12.6567
        89        1.7930           -0.4608301             -12.5398
        90        1.7011           -0.4541795             -12.3589 (HOMO)
        91        0.8296           -0.4211934             -11.4613 (LUMO)
        92        0.0078           -0.3389006              -9.2220
        93        0.0026           -0.3215064              -8.7486
        94        0.0022           -0.3185759              -8.6689
        95        0.0015           -0.3129741              -8.5165
        96        0.0013           -0.3110081              -8.4630
        97        0.0000           -0.1960607              -5.3351
        98        0.0000           -0.1886028              -5.1321
        99                         -0.1075397              -2.9263
       100                         -0.0776733              -2.1136
       101                         -0.0677683              -1.8441
       ...                                ...                  ...
       171                          0.5726654              15.5830
      -------------------------------------------------------------
                  HL-Gap            0.0329861 Eh            0.8976 eV

     #   Z          covCN         q      C6AA      α(0)
     1   7 N        1.771    -0.277    27.994     7.835
     2   6 C        2.830     0.091    25.972     8.351
     3   6 C        3.901     0.001    20.508     6.437
     4   6 C        2.971     0.004    27.940     8.670
     5   6 C        2.920    -0.077    29.913     8.969
     6   6 C        2.862     0.132    25.103     8.212
     7   8 O        1.706    -0.224    17.722     5.684
     8   6 C        3.644     0.027    20.466     6.503
     9   6 C        2.864     0.132    25.101     8.212
    10   8 O        1.706    -0.222    17.681     5.677
    11   6 C        3.645     0.025    20.482     6.504
    12   6 C        2.913    -0.070    29.756     8.945
    13   6 C        2.921    -0.049    29.213     8.863
    14   6 C        3.803    -0.062    21.688     6.630
    15   6 C        3.801    -0.069    21.827     6.652
    16   6 C        3.748    -0.001    20.668     6.484
    17   7 N        2.728    -0.103    23.268     7.164
    18   6 C        3.748     0.001    20.627     6.478
    19   6 C        3.809    -0.073    21.891     6.660
    20   6 C        2.968     0.011    27.766     8.643
    21   6 C        2.922    -0.043    29.076     8.843
    22   6 C        2.913    -0.065    29.612     8.923
    23   6 C        2.864     0.136    25.030     8.201
    24   8 O        1.706    -0.213    17.546     5.656
    25   6 C        3.645     0.023    20.524     6.511
    26   6 C        2.862     0.136    25.024     8.200
    27   8 O        1.706    -0.216    17.595     5.663
    28   6 C        3.645     0.025    20.492     6.506
    29   6 C        2.919    -0.075    29.884     8.965
    30   6 C        3.699    -0.050    21.648     6.654
    31   6 C        3.860    -0.004    20.616     6.457
    32   6 C        2.840    -0.087    30.179     9.003
    33   6 C        3.756    -0.117    22.801     6.808
    34   1 H        0.926     0.051     2.305     2.374
    35   1 H        0.924     0.053     2.281     2.362
    36   1 H        0.925     0.083     1.944     2.180
    37   1 H        0.924     0.052     2.300     2.371
    38   1 H        0.924     0.057     2.235     2.338
    39   1 H        0.925     0.083     1.944     2.181
    40   1 H        0.924     0.052     2.293     2.368
    41   1 H        0.926     0.056     2.251     2.346
    42   1 H        0.926     0.045     2.388     2.417
    43   1 H        0.924     0.050     2.325     2.384
    44   1 H        0.924     0.048     2.343     2.394
    45   1 H        0.925     0.048     2.345     2.395
    46   1 H        0.924     0.055     2.261     2.351
    47   1 H        0.923     0.037     2.492     2.469
    48   1 H        0.924     0.049     2.332     2.388
    49   1 H        0.923     0.040     2.444     2.445
    50   1 H        0.924     0.053     2.288     2.365
    51   1 H        0.925     0.063     2.166     2.301
    52   1 H        0.925     0.056     2.247     2.344
    53   1 H        0.926     0.054     2.264     2.353
    54   1 H        0.926     0.062     2.177     2.307
    55   1 H        0.924     0.058     2.219     2.330
    56   1 H        0.924     0.060     2.200     2.320
    57   1 H        0.925     0.085     1.928     2.171
    58   1 H        0.925     0.084     1.936     2.176
    59   1 H        0.924     0.054     2.274     2.358
    60   1 H        0.924     0.057     2.236     2.338
    61   1 H        0.926     0.053     2.278     2.360
    62   1 H        0.924     0.060     2.204     2.322
    63   1 H        0.924     0.045     2.384     2.415
    64   1 H        0.925     0.059     2.216     2.328
    65   1 H        0.923     0.079     1.989     2.206
    66   1 H        0.925     0.066     2.127     2.281
    67   1 H        0.926     0.056     2.240     2.341
    68   1 H        0.926     0.072     2.067     2.248
    69   1 H        0.925     0.053     2.286     2.364
    70   1 H        0.925     0.048     2.343     2.394
    71   1 H        0.925     0.059     2.211     2.325
    72   1 H        0.860     0.162     1.323     1.802

Wiberg/Mayer (AO) data.
largest (>0.10) Wiberg bond orders for each atom

     #   Z sym  total        # sym  WBO       # sym  WBO       # sym  WBO
 ---------------------------------------------------------------------------
     1   7 N    3.017 --     2 C    1.965    72 H    0.927
     2   6 C    3.930 --     1 N    1.965     3 C    0.966    66 H    0.935
     3   6 C    3.915 --     4 C    0.982    14 C    0.972     2 C    0.966
                            31 C    0.870
     4   6 C    3.940 --    13 C    1.407     5 C    1.370     3 C    0.982
     5   6 C    3.955 --     6 C    1.398     4 C    1.370    34 H    0.956
     6   6 C    3.896 --     5 C    1.398     9 C    1.215     7 O    1.106
     7   8 O    2.254 --     6 C    1.106     8 C    0.977
     8   6 C    3.929 --     7 O    0.977    36 H    0.976    35 H    0.973
                            37 H    0.972
     9   6 C    3.892 --    12 C    1.386     6 C    1.215    10 O    1.110
    10   8 O    2.254 --     9 C    1.110    11 C    0.976
    11   6 C    3.928 --    39 H    0.977    10 O    0.976    40 H    0.973
                            38 H    0.972
    12   6 C    3.957 --    13 C    1.410     9 C    1.386    41 H    0.963
    13   6 C    3.944 --    12 C    1.410     4 C    1.407    42 H    0.960
    14   6 C    3.985 --    15 C    1.005     3 C    0.972    43 H    0.970
                            44 H    0.965
    15   6 C    3.979 --    14 C    1.005    16 C    0.996    46 H    0.973
                            45 H    0.969
    16   6 C    3.967 --    17 N    1.007    15 C    0.996    48 H    0.966
                            47 H    0.947
    17   7 N    3.098 --    30 C    1.016    18 C    1.012    16 C    1.007
    18   6 C    3.961 --    17 N    1.012    50 H    0.970    19 C    0.967
                            49 H    0.955
    19   6 C    3.973 --    20 C    1.015    51 H    0.969    52 H    0.968
                            18 C    0.967
    20   6 C    3.922 --    21 C    1.387    29 C    1.386    19 C    1.015
    21   6 C    3.924 --    22 C    1.427    20 C    1.387    53 H    0.967
    22   6 C    3.947 --    21 C    1.427    23 C    1.371    54 H    0.962
    23   6 C    3.868 --    22 C    1.371    26 C    1.207    24 O    1.119
    24   8 O    2.247 --    23 C    1.119    25 C    0.975
    25   6 C    3.924 --    57 H    0.976    24 O    0.975    55 H    0.971
                            56 H    0.971
    26   6 C    3.876 --    29 C    1.386    23 C    1.207    27 O    1.113
    27   8 O    2.249 --    26 C    1.113    28 C    0.976
    28   6 C    3.927 --    27 O    0.976    58 H    0.976    59 H    0.972
                            60 H    0.971
    29   6 C    3.949 --    20 C    1.386    26 C    1.386    61 H    0.961
    30   6 C    3.967 --    17 N    1.016    64 H    0.978    62 H    0.969
                            63 H    0.968
    31   6 C    3.973 --    32 C    1.120    33 C    1.007    65 H    0.896
                             3 C    0.870
    32   6 C    3.160 --    31 C    1.120    67 H    0.979    68 H    0.979
    33   6 C    3.987 --    31 C    1.007    70 H    0.983    69 H    0.982
                            71 H    0.981
    34   1 H    0.996 --     5 C    0.956
    35   1 H    0.992 --     8 C    0.973
    36   1 H    0.992 --     8 C    0.976
    37   1 H    0.992 --     8 C    0.972
    38   1 H    0.991 --    11 C    0.972
    39   1 H    0.992 --    11 C    0.977
    40   1 H    0.992 --    11 C    0.973
    41   1 H    0.995 --    12 C    0.963
    42   1 H    0.997 --    13 C    0.960
    43   1 H    0.994 --    14 C    0.970
    44   1 H    0.996 --    14 C    0.965
    45   1 H    0.997 --    15 C    0.969
    46   1 H    0.994 --    15 C    0.973
    47   1 H    0.973 --    16 C    0.947
    48   1 H    0.996 --    16 C    0.966
    49   1 H    0.975 --    18 C    0.955
    50   1 H    0.997 --    18 C    0.970
    51   1 H    0.993 --    19 C    0.969
    52   1 H    0.994 --    19 C    0.968
    53   1 H    0.996 --    21 C    0.967
    54   1 H    0.994 --    22 C    0.962
    55   1 H    0.989 --    25 C    0.971
    56   1 H    0.988 --    25 C    0.971
    57   1 H    0.992 --    25 C    0.976
    58   1 H    0.992 --    28 C    0.976
    59   1 H    0.990 --    28 C    0.972
    60   1 H    0.990 --    28 C    0.971
    61   1 H    0.995 --    29 C    0.961
    62   1 H    0.981 --    30 C    0.969
    63   1 H    0.983 --    30 C    0.968
    64   1 H    0.994 --    30 C    0.978
    65   1 H    0.942 --    31 C    0.896
    66   1 H    0.988 --     2 C    0.935
    67   1 H    0.996 --    32 C    0.979
    68   1 H    0.994 --    32 C    0.979
    69   1 H    0.995 --    33 C    0.982
    70   1 H    0.997 --    33 C    0.983
    71   1 H    0.995 --    33 C    0.981
    72   1 H    0.967 --     1 N    0.927
 ---------------------------------------------------------------------------

molecular dipole:
                 x           y           z       tot (Debye)
 q only:        0.043       0.255      -0.370
   full:       -0.201       0.217      -0.475       1.423

           -------------------------------------------------
          | TOTAL ENERGY              -99.357353207717 Eh   |
          | GRADIENT NORM               0.008163426754 Eh/α |
          | HOMO-LUMO GAP               0.897598230602 eV   |
           -------------------------------------------------

 * finished run on 2024/04/06 at 11:15:38.143
