   * xtb version 6.6.1 (8d0f1dd) compiled by 'conda@1efc2f54142f' on 2023-08-01
          program call               : xtb struc.xyz --opt loose --input .xc1 --gfn2

   ID    Z sym.   atoms
    1    6 C      1, 3, 5-7, 10, 11, 14
    2    7 N      2, 4, 9, 13
    3    8 O      8, 12
    4    1 H      15-25
constraining bond 2 18 to    4.0600000 Å, actual value:    2.1303834 Å

          :  Hamiltonian                  GFN2-xTB          :
 * total energy  :   -28.9512866 Eh     change       -0.6650680E-10 Eh
 * total energy  :   -35.7159327 Eh     change       -0.6764646E+01 Eh
 * total energy  :   -39.7218707 Eh     change       -0.4005938E+01 Eh
 * total energy  :   -41.4920957 Eh     change       -0.1770225E+01 Eh
 * total energy  :   -41.8462011 Eh     change       -0.3541054E+00 Eh
 * total energy  :   -41.8613308 Eh     change       -0.1512971E-01 Eh
 * total energy  :   -41.8722310 Eh     change       -0.1090020E-01 Eh
 * total energy  :   -41.8971722 Eh     change       -0.2494111E-01 Eh
 * total energy  :   -41.9287339 Eh     change       -0.3156171E-01 Eh
 * total energy  :   -41.9453891 Eh     change       -0.1665524E-01 Eh
 * total energy  :   -42.0759470 Eh     change       -0.2078636E-02 Eh
 * total energy  :   -42.0779675 Eh     change       -0.2020471E-02 Eh
 * total energy  :   -42.0803061 Eh     change       -0.2338565E-02 Eh
 * total energy  :   -42.0815256 Eh     change       -0.1219589E-02 Eh
 * total energy  :   -42.0823637 Eh     change       -0.8380958E-03 Eh
 * total energy  :   -42.0827393 Eh     change       -0.3755892E-03 Eh
 * total energy  :   -42.0829382 Eh     change       -0.1988578E-03 Eh
 * total energy  :   -42.0830647 Eh     change       -0.1264993E-03 Eh
 * total energy  :   -42.0831080 Eh     change       -0.4328804E-04 Eh
   *** GEOMETRY OPTIMIZATION CONVERGED AFTER 34 ITERATIONS ***

 final structure:
================
25
 xtb: 6.6.1 (8d0f1dd)
C            3.09362255252184        1.73185204873239        0.03463379225780
N            2.35322181319687        0.56501479641966        0.03275951935978
C            2.62885388594164       -2.39277397658482       -0.03147174512709
N            1.35240236972859       -2.19402524237932       -0.00969101055940
C            0.58726010638207       -1.03346964283490        0.00101809919008
C            1.09855763567261        0.29974306230024        0.00806595858387
C            0.09940279273818        1.43437206879644       -0.01625926570121
O            0.45639387306534        2.58861915053658       -0.04118332916521
N           -1.21907549711851        1.07854010724104       -0.00261823652912
C           -2.23049431006415        2.13030337889172       -0.00559924782961
C           -1.71240245202747       -0.20648841659903        0.01075484302159
O           -2.89165578264895       -0.43533561134175        0.02489757821556
N           -0.76662491001449       -1.24242065645906        0.00201017417418
C           -1.34152143687243       -2.57992102241573       -0.00615494213225
H            3.63780726567344        1.79907070444753        0.98334051363496
H            3.84547120077717        1.65916723440802       -0.75921710973905
H            2.48355826746358        2.63765375769036       -0.10380157435423
H            2.97707329928245       -3.44186673593425       -0.04449228448084
H           -1.72795012639726        3.09394928824787        0.00502076138829
H           -2.85202359219090        2.03645564684467       -0.89563017237803
H           -2.86753729928613        2.02341197354661        0.87178304633550
H           -1.07010706736898       -3.14014740880399        0.89130546263249
H           -1.07723918564754       -3.12438525786178       -0.91533188262592
H           -2.42614875235891       -2.45419823918688        0.00006406812688
H            0.72958686365205       -3.01488246610104       -0.00303139839865

          :  Hamiltonian                  GFN2-xTB          :
         :: total energy             -42.083107977372 Eh    ::
         :: gradient norm              0.003682178456 Eh/a0 ::
         :: HOMO-LUMO gap              0.203503428714 eV    ::
         :: SCC energy               -42.590343572540 Eh    ::
         :: -> dispersion             -0.021930860436 Eh    ::
         :: repulsion energy           0.507060828985 Eh    ::

    * Orbital Energies and Occupations

         #    Occupation            Energy/Eh            Energy/eV
      -------------------------------------------------------------
         1        2.0000           -0.8921423             -24.2764
       ...           ...                  ...                  ...
        25        1.9999           -0.6739634             -18.3395
        26        1.9999           -0.6679306             -18.1753
        27        1.9995           -0.6440983             -17.5268
        28        1.9994           -0.6416592             -17.4604
        29        1.9992           -0.6371058             -17.3365
        30        1.9987           -0.6284170             -17.1001
        31        1.9972           -0.6163164             -16.7708
        32        1.9946           -0.6058558             -16.4862
        33        1.9919           -0.5993574             -16.3093
        34        1.9842           -0.5887568             -16.0209
        35        1.9706           -0.5787830             -15.7495
        36        1.6552           -0.5370622             -14.6142
        37        1.2970           -0.5219188             -14.2021 (HOMO)
        38        1.0699           -0.5144402             -13.9986 (LUMO)
        39        0.0407           -0.4508737             -12.2689
        40        0.0018           -0.4008243             -10.9070
        41        0.0005           -0.3809446             -10.3660
        42        0.0000           -0.2976583              -8.0997
        43                         -0.2099180              -5.7122
        44                         -0.1705082              -4.6398
        45                         -0.1474734              -4.0130
        46                         -0.1177067              -3.2030
        47                         -0.0902660              -2.4563
        48                         -0.0439237              -1.1952
       ...                                ...                  ...
        67                          0.5472683              14.8919
      -------------------------------------------------------------
                  HL-Gap            0.0074786 Eh            0.2035 eV

     #   Z          covCN         q      C6AA      α(0)
     1   6 C        3.688    -0.058    21.817     6.686
     2   7 N        1.833    -0.084    23.614     7.201
     3   6 C        1.841    -0.066    32.951     9.273
     4   7 N        2.688     0.008    21.123     6.826
     5   6 C        2.833     0.098    25.821     8.327
     6   6 C        2.883     0.053    26.798     8.487
     7   6 C        2.769     0.268    22.475     7.764
     8   8 O        0.859    -0.326    20.258     6.034
     9   7 N        2.738    -0.064    22.479     7.042
    10   6 C        3.710    -0.063    21.854     6.681
    11   6 C        2.727     0.318    21.595     7.608
    12   8 O        0.860    -0.352    20.748     6.107
    13   7 N        2.744    -0.051    22.235     7.003
    14   6 C        3.702    -0.082    22.221     6.740
    15   1 H        0.924     0.132     1.518     1.927
    16   1 H        0.924     0.132     1.521     1.929
    17   1 H        0.923     0.143     1.438     1.875
    18   1 H        0.922     0.118     1.631     1.997
    19   1 H        0.925     0.114     1.660     2.015
    20   1 H        0.925     0.106     1.734     2.059
    21   1 H        0.925     0.106     1.728     2.056
    22   1 H        0.924     0.091     1.871     2.139
    23   1 H        0.924     0.091     1.870     2.139
    24   1 H        0.924     0.142     1.448     1.882
    25   1 H        0.859     0.225     0.987     1.557

Wiberg/Mayer (AO) data.
largest (>0.10) Wiberg bond orders for each atom

     #   Z sym  total        # sym  WBO       # sym  WBO       # sym  WBO
 ---------------------------------------------------------------------------
     1   6 C    3.858 --     2 N    1.122    16 H    0.907    15 H    0.903
                            17 H    0.872
     2   7 N    2.841 --     6 C    1.576     1 C    1.122
     3   6 C    2.631 --     4 N    1.584    18 H    0.922
     4   7 N    3.657 --     3 C    1.584     5 C    1.125    25 H    0.856
     5   6 C    3.687 --    13 N    1.205     6 C    1.197     4 N    1.125
     6   6 C    3.918 --     2 N    1.576     5 C    1.197     7 C    0.929
     7   6 C    3.892 --     8 O    1.700     9 N    1.165     6 C    0.929
     8   8 O    2.021 --     7 C    1.700     9 N    0.138
     9   7 N    3.551 --     7 C    1.165    11 C    1.108    10 C    0.959
                             8 O    0.138    12 O    0.119
    10   6 C    3.894 --    19 H    0.968    21 H    0.960    20 H    0.960
                             9 N    0.959
    11   6 C    3.940 --    12 O    1.691     9 N    1.108    13 N    1.058
    12   8 O    2.010 --    11 C    1.691     9 N    0.119    13 N    0.111
    13   7 N    3.479 --     5 C    1.205    11 C    1.058    14 C    0.978
                            12 O    0.111
    14   6 C    3.915 --    13 N    0.978    23 H    0.959    22 H    0.958
                            24 H    0.948
    15   1 H    0.942 --     1 C    0.903
    16   1 H    0.941 --     1 C    0.907
    17   1 H    0.905 --     1 C    0.872
    18   1 H    0.942 --     3 C    0.922
    19   1 H    0.984 --    10 C    0.968
    20   1 H    0.980 --    10 C    0.960
    21   1 H    0.980 --    10 C    0.960
    22   1 H    0.982 --    14 C    0.958
    23   1 H    0.982 --    14 C    0.959
    24   1 H    0.977 --    14 C    0.948
    25   1 H    0.907 --     4 N    0.856
 ---------------------------------------------------------------------------

molecular dipole:
                 x           y           z       tot (Debye)
 q only:        1.535      -1.466       0.015
   full:        1.337      -1.822       0.019       5.746

           -------------------------------------------------
          | TOTAL ENERGY              -42.083107977372 Eh   |
          | GRADIENT NORM               0.003682178456 Eh/α |
          | HOMO-LUMO GAP               0.203503428714 eV   |
           -------------------------------------------------

 * finished run on 2024/06/05 at 19:59:08.370
