   * xtb version 6.6.1 (8d0f1dd) compiled by 'conda@1efc2f54142f' on 2023-08-01
          program call               : xtb xtbopt.xyz --opt crude --input .xc2 --gfn2

   ID    Z sym.   atoms
    1    6 C      1, 3, 5-7, 10, 11, 14
    2    7 N      2, 4, 9, 13
    3    8 O      8, 12
    4    1 H      15-25
########################################################################
[WARNING] Please study the warnings concerning your input carefully
-1- readin_getIntValue: could not parse ''
########################################################################

          :  Hamiltonian                  GFN2-xTB          :
 * total energy  :   -42.0831682 Eh     change       -0.1538325E-10 Eh
 * total energy  :   -42.0870973 Eh     change       -0.3929073E-02 Eh
 * total energy  :   -42.0935954 Eh     change       -0.6498057E-02 Eh
 * total energy  :   -42.1030098 Eh     change       -0.9414468E-02 Eh
 * total energy  :   -42.1297095 Eh     change       -0.2669962E-01 Eh
 * total energy  :   -42.2032802 Eh     change       -0.7357073E-01 Eh
 * total energy  :   -42.1587197 Eh     change        0.4456049E-01 Eh
 * total energy  :   -42.2316882 Eh     change       -0.7296849E-01 Eh
 * total energy  :   -42.2304998 Eh     change        0.1188353E-02 Eh
 * total energy  :   -42.2396715 Eh     change       -0.9171639E-02 Eh
 * total energy  :   -42.2438007 Eh     change       -0.4129247E-02 Eh
 * total energy  :   -42.2462108 Eh     change       -0.2410111E-02 Eh
 * total energy  :   -42.2473629 Eh     change       -0.1152040E-02 Eh
 * total energy  :   -42.2477063 Eh     change       -0.3434037E-03 Eh
 * total energy  :   -42.2478383 Eh     change       -0.1320702E-03 Eh
   *** GEOMETRY OPTIMIZATION CONVERGED AFTER 15 ITERATIONS ***

 final structure:
================
25
 xtb: 6.6.1 (8d0f1dd)
C            3.22384345395312        1.14648686236865        0.01815544826319
N            2.26953749167741        0.07077728984196        0.00172308369622
C            2.54299409762883       -1.22597584318577        0.00525024781115
N            1.39520552460544       -1.94413288318564       -0.00164757038257
C            0.35317989656360       -1.06241018533882        0.00089261764576
C            0.90621462825058        0.20895021359502        0.00492430728953
C            0.06928884052331        1.39849249525909       -0.00252827696645
O            0.46746097749890        2.53767877436493       -0.01402410752814
N           -1.28309278515966        1.05974375164109       -0.00001198622437
C           -2.24624502304693        2.15500836426694       -0.00460244032910
C           -1.85293476055789       -0.20126702676903        0.00105794087048
O           -3.03751917394166       -0.37650811925789        0.00220808182383
N           -0.96503092165557       -1.30273138524177       -0.00042691637915
C           -1.50423663159172       -2.64750236008335       -0.00555285592055
H            3.77195069187186        1.15175090783354        0.96011986064195
H            3.93419171072893        1.03474309345564       -0.80004015225895
H            2.68919368942789        2.08841756308213       -0.08708664743285
H            3.52600292408448       -1.65199824500970       -0.00039263181299
H           -1.69537337452454        3.09189503519666        0.00971386225693
H           -2.86823632884404        2.09596449897123       -0.89709664358691
H           -2.89145451140731        2.08087821282742        0.86988344507681
H           -1.18931701914472       -3.18830426361381        0.88733917543951
H           -1.18816438034185       -3.18181103068568       -0.90191543308923
H           -2.58986206416413       -2.56304966209368       -0.00581315305482
H            1.32283456166573       -2.95685751663877       -0.00895763794898

          :  Hamiltonian                  GFN2-xTB          :
         :: total energy             -42.247838345741 Eh    ::
         :: gradient norm              0.008035089631 Eh/a0 ::
         :: HOMO-LUMO gap              3.300152980107 eV    ::
         :: SCC energy               -42.776176047412 Eh    ::
         :: -> dispersion             -0.022646162887 Eh    ::
         :: repulsion energy           0.528224337491 Eh    ::

    * Orbital Energies and Occupations

         #    Occupation            Energy/Eh            Energy/eV
      -------------------------------------------------------------
         1        2.0000           -0.9178934             -24.9772
       ...           ...                  ...                  ...
        25        2.0000           -0.6690625             -18.2061
        26        2.0000           -0.6655940             -18.1117
        27        1.9999           -0.6571511             -17.8820
        28        1.9998           -0.6366162             -17.3232
        29        1.9997           -0.6314136             -17.1816
        30        1.9996           -0.6261207             -17.0376
        31        1.9996           -0.6231938             -16.9580
        32        1.9994           -0.6193126             -16.8524
        33        1.9977           -0.5971400             -16.2490
        34        1.9928           -0.5786677             -15.7463
        35        1.9808           -0.5631522             -15.3242
        36        1.9761           -0.5595881             -15.2272
        37        1.9740           -0.5582534             -15.1908 (HOMO)
        38        0.0691           -0.4369750             -11.8907 (LUMO)
        39        0.0101           -0.4061190             -11.0511
        40        0.0013           -0.3729198             -10.1477
        41        0.0000           -0.2891034              -7.8669
        42                         -0.2063198              -5.6142
        43                         -0.2023277              -5.5056
        44                         -0.1468476              -3.9959
        45                         -0.1328823              -3.6159
        46                         -0.0833459              -2.2680
        47                         -0.0485236              -1.3204
        48                         -0.0369548              -1.0056
       ...                                ...                  ...
        67                          0.5586245              15.2009
      -------------------------------------------------------------
                  HL-Gap            0.1212784 Eh            3.3002 eV

     #   Z          covCN         q      C6AA      α(0)
     1   6 C        3.692    -0.096    22.526     6.791
     2   7 N        2.830     0.090    19.684     6.589
     3   6 C        3.070     0.052    26.772     8.484
     4   7 N        2.795    -0.059    22.378     7.026
     5   6 C        3.045     0.116    25.417     8.269
     6   6 C        3.134    -0.024    28.382     8.721
     7   6 C        2.764     0.274    22.374     7.746
     8   8 O        0.858    -0.362    20.945     6.136
     9   7 N        2.745    -0.085    22.891     7.106
    10   6 C        3.710    -0.062    21.838     6.678
    11   6 C        2.728     0.318    21.592     7.607
    12   8 O        0.859    -0.353    20.763     6.109
    13   7 N        2.738    -0.058    22.355     7.022
    14   6 C        3.697    -0.072    22.058     6.718
    15   1 H        0.925     0.111     1.692     2.034
    16   1 H        0.925     0.108     1.713     2.047
    17   1 H        0.925     0.138     1.472     1.897
    18   1 H        0.926     0.127     1.558     1.952
    19   1 H        0.925     0.113     1.667     2.019
    20   1 H        0.925     0.099     1.792     2.093
    21   1 H        0.925     0.100     1.787     2.090
    22   1 H        0.924     0.082     1.954     2.186
    23   1 H        0.924     0.082     1.955     2.186
    24   1 H        0.925     0.129     1.544     1.943
    25   1 H        0.860     0.232     0.956     1.532

Wiberg/Mayer (AO) data.
largest (>0.10) Wiberg bond orders for each atom

     #   Z sym  total        # sym  WBO       # sym  WBO       # sym  WBO
 ---------------------------------------------------------------------------
     1   6 C    3.912 --     2 N    0.984    16 H    0.961    17 H    0.961
                            15 H    0.956
     2   7 N    3.698 --     3 C    1.403     6 C    1.170     1 C    0.984
     3   6 C    3.869 --     2 N    1.403     4 N    1.272    18 H    0.952
     4   7 N    3.592 --     3 C    1.272     5 C    1.190    25 H    0.917
     5   6 C    3.952 --     6 C    1.351    13 N    1.223     4 N    1.190
     6   6 C    3.914 --     5 C    1.351     2 N    1.170     7 C    1.059
     7   6 C    3.951 --     8 O    1.693     9 N    1.108     6 C    1.059
     8   8 O    2.042 --     7 C    1.693     9 N    0.151
     9   7 N    3.556 --    11 C    1.123     7 C    1.108    10 C    0.968
                             8 O    0.151    12 O    0.136
    10   6 C    3.910 --     9 N    0.968    19 H    0.968    21 H    0.963
                            20 H    0.963
    11   6 C    3.957 --    12 O    1.714     9 N    1.123    13 N    1.029
    12   8 O    2.064 --    11 C    1.714     9 N    0.136    13 N    0.122
    13   7 N    3.553 --     5 C    1.223    11 C    1.029    14 C    0.974
                            12 O    0.122
    14   6 C    3.923 --    13 N    0.974    22 H    0.970    23 H    0.970
                            24 H    0.963
    15   1 H    0.985 --     1 C    0.956
    16   1 H    0.986 --     1 C    0.961
    17   1 H    0.980 --     1 C    0.961
    18   1 H    0.983 --     3 C    0.952
    19   1 H    0.985 --    10 C    0.968
    20   1 H    0.984 --    10 C    0.963
    21   1 H    0.984 --    10 C    0.963
    22   1 H    0.990 --    14 C    0.970
    23   1 H    0.990 --    14 C    0.970
    24   1 H    0.983 --    14 C    0.963
    25   1 H    0.946 --     4 N    0.917
 ---------------------------------------------------------------------------

molecular dipole:
                 x           y           z       tot (Debye)
 q only:        2.610      -2.008       0.011
   full:        2.900      -2.530       0.013       9.783

           -------------------------------------------------
          | TOTAL ENERGY              -42.247838345741 Eh   |
          | GRADIENT NORM               0.008035089631 Eh/α |
          | HOMO-LUMO GAP               3.300152980107 eV   |
           -------------------------------------------------

 * finished run on 2024/06/05 at 19:59:08.959
