   * xtb version 6.6.1 (8d0f1dd) compiled by 'conda@1efc2f54142f' on 2023-08-01
          program call               : xtb xtbopt.xyz --opt crude --input .xc2 --gfn2

   ID    Z sym.   atoms
    1    7 N      1, 17
    2    6 C      2-6, 8, 9, 11-16, 18-23, 25, 26, 28-33
    3    8 O      7, 10, 24, 27
    4    1 H      34-72
########################################################################
[WARNING] Please study the warnings concerning your input carefully
-1- readin_getIntValue: could not parse ''
########################################################################

          :  Hamiltonian                  GFN2-xTB          :
 * total energy  :   -99.3895768 Eh     change       -0.2050626E-10 Eh
   *** GEOMETRY OPTIMIZATION CONVERGED AFTER 1 ITERATIONS ***

 final structure:
================
72
 xtb: 6.6.1 (8d0f1dd)
N           -1.73387856527882        2.70430489458210        2.14270168401359
C           -1.72166979062332        1.81188914144225        1.26666892927872
C           -2.73559865384281        1.70219322752819        0.16090550797577
C           -3.48264717162164        0.38755458874145        0.28263057857199
C           -4.26735646013495       -0.06621436170142       -0.77815201086560
C           -4.97918752887920       -1.25259427339647       -0.69664632445695
O           -5.74327491372487       -1.77043178526543       -1.67687980836177
C           -5.86496760204579       -1.07891805102182       -2.89773457402344
C           -4.92292973319554       -2.02233376446844        0.49968769313092
O           -5.64530108444051       -3.15624630927215        0.49135474647614
C           -5.67399409954610       -3.96460428963343        1.64519452993472
C           -4.15105772233104       -1.55694454231844        1.55477944620076
C           -3.44200544727831       -0.36964315945652        1.44607116330309
C           -1.92360904796320        1.76381884600415       -1.16686428628766
C           -1.27487348609610        0.46407856042669       -1.66835623666192
C            0.18083328181952        0.21479858492944       -1.25409829850202
N            0.35988689934133       -0.13661954532424        0.14183951087576
C            1.64698037762497        0.22960186403298        0.70855104389199
C            2.80693455964860       -0.59566712272149        0.25414265291412
C            4.12401552894488       -0.18587514445002        0.14397298607051
C            4.56581212606393        1.13976531806146        0.39993048630438
C            5.88235483248888        1.49300965349465        0.24305415300697
C            6.84029416008293        0.56157242230690       -0.16743136309528
O            8.13704997322747        0.81002567183222       -0.35959447908229
C            8.64457687763229        2.10866986995035       -0.14796347543979
C            6.42965406011033       -0.78912405415778       -0.41405526673406
O            7.42210805183244       -1.61768697240970       -0.78945135462354
C            7.12601590289144       -2.97347758071645       -1.04083794028488
C            5.11044382689844       -1.13336891399576       -0.26102846306988
C           -0.11044831511926       -1.45802090060175        0.48901607276949
C           -3.79310292454179        2.84709669186617        0.18288644965589
C           -4.63927996521204        2.80876559115118        1.45303372841610
C           -3.18142734988734        4.23501734933429        0.01769409889912
H           -4.31948004815348        0.51904010335046       -1.68103548010235
H           -6.32150201136702       -0.09452101848816       -2.75695636300506
H           -6.51648163694922       -1.69225810478092       -3.51705409186435
H           -4.89552164179758       -0.96658320606512       -3.39329719066255
H           -6.08477008203893       -3.42348716318671        2.50249455456586
H           -6.32597131227687       -4.80058960398260        1.39967146569561
H           -4.67759870262290       -4.34228504004625        1.89408939907002
H           -4.09825345926159       -2.11365485293524        2.47619267118604
H           -2.86779409785796       -0.02952280130036        2.29352331115907
H           -2.60615802069077        2.11190749735956       -1.94314840177180
H           -1.15122138293843        2.52692942849683       -1.05878933498759
H           -1.88462802503064       -0.39591933066246       -1.39576741223497
H           -1.26056553259741        0.51184869052912       -2.75958496535011
H           -0.93749478319348        1.04769860218306        1.17814902680123
H            0.76544178500670        1.11529252812536       -1.45512998803803
H            1.55611879293027        0.12821955591186        1.80118186838716
H            1.81462777247085        1.28847937471129        0.49476699577484
H            0.56177186311494       -0.58710644472691       -1.90681634141881
H            2.58442858814945       -1.63006203579536        0.03663660975883
H            3.85979643183464        1.88792221833528        0.72126600002176
H            6.17837050501622        2.51102686431936        0.44035670621262
H            8.51192328415252        2.42505908874511        0.89037041788589
H            8.17304625997484        2.83543007051562       -0.81575143338366
H            9.70723503644842        2.04645932649122       -0.37401506880645
H            8.06996215397119       -3.42882763549504       -1.33188082860311
H            6.74344331527206       -3.46947999395588       -0.14417891512707
H            6.40483571212234       -3.07988121178895       -1.85619404471138
H            4.78722986132778       -2.14539099772603       -0.44482590525979
H            0.33620027724770       -2.24457384532275       -0.13165062418165
H           -1.19227048799115       -1.50297882647649        0.36289809784406
H            0.12008353566822       -1.66257946154739        1.53278700854177
H           -4.46007048094382        2.66525131363872       -0.66851663955219
H           -4.01807764024427        3.01339192401000        2.31989848844380
H           -5.11688423730022        1.84020580150434        1.58081696648862
H           -5.41527100165668        3.56790199944769        1.39844406342947
H           -2.49450001450752        4.44065431881922        0.83330648219657
H           -2.65553403776746        4.33857229867418       -0.92738678459491
H           -3.97284306485726        4.97984497874931        0.04354743778672
H           -0.98545847248535        2.71831360807971        2.82782550481771

          :  Hamiltonian                  GFN2-xTB          :
         :: total energy             -99.389576773079 Eh    ::
         :: gradient norm              0.003024008303 Eh/a0 ::
         :: HOMO-LUMO gap              1.026832130784 eV    ::
         :: SCC energy              -100.757335162394 Eh    ::
         :: -> dispersion             -0.075811365918 Eh    ::
         :: repulsion energy           1.366465775447 Eh    ::

    * Orbital Energies and Occupations

         #    Occupation            Energy/Eh            Energy/eV
      -------------------------------------------------------------
         1        2.0000           -0.8213956             -22.3513
       ...           ...                  ...                  ...
        78        1.9967           -0.5290601             -14.3965
        79        1.9966           -0.5285312             -14.3821
        80        1.9962           -0.5265943             -14.3294
        81        1.9948           -0.5215962             -14.1934
        82        1.9920           -0.5148820             -14.0107
        83        1.9907           -0.5124782             -13.9452
        84        1.9885           -0.5091284             -13.8541
        85        1.9868           -0.5069644             -13.7952
        86        1.9650           -0.4913140             -13.3693
        87        1.9241           -0.4787006             -13.0261
        88        1.9124           -0.4763339             -12.9617
        89        1.7813           -0.4607262             -12.5370
        90        1.7322           -0.4570797             -12.4378 (HOMO)
        91        0.7475           -0.4193443             -11.4109 (LUMO)
        92        0.0062           -0.3361735              -9.1477
        93        0.0019           -0.3176584              -8.6439
        94        0.0019           -0.3174068              -8.6371
        95        0.0016           -0.3150172              -8.5721
        96        0.0005           -0.2952503              -8.0342
        97        0.0000           -0.1924716              -5.2374
        98        0.0000           -0.1877908              -5.1100
        99                         -0.1028208              -2.7979
       100                         -0.0703019              -1.9130
       101                         -0.0680623              -1.8521
       ...                                ...                  ...
       171                          0.5847961              15.9131
      -------------------------------------------------------------
                  HL-Gap            0.0377354 Eh            1.0268 eV

     #   Z          covCN         q      C6AA      α(0)
     1   7 N        1.774    -0.259    27.552     7.773
     2   6 C        2.828     0.093    25.917     8.342
     3   6 C        3.907     0.008    20.386     6.418
     4   6 C        2.975     0.011    27.770     8.644
     5   6 C        2.920    -0.076    29.894     8.966
     6   6 C        2.862     0.133    25.092     8.211
     7   8 O        1.706    -0.221    17.669     5.675
     8   6 C        3.645     0.025    20.486     6.506
     9   6 C        2.864     0.133    25.088     8.210
    10   8 O        1.706    -0.218    17.627     5.669
    11   6 C        3.645     0.024    20.500     6.507
    12   6 C        2.913    -0.069    29.732     8.941
    13   6 C        2.921    -0.046    29.137     8.852
    14   6 C        3.808    -0.066    21.753     6.639
    15   6 C        3.798    -0.070    21.844     6.655
    16   6 C        3.748    -0.000    20.652     6.482
    17   7 N        2.725    -0.123    23.672     7.226
    18   6 C        3.750     0.000    20.637     6.479
    19   6 C        2.903    -0.050    29.253     8.868
    20   6 C        2.960     0.014    27.706     8.634
    21   6 C        2.917    -0.038    28.944     8.822
    22   6 C        2.907    -0.062    29.533     8.911
    23   6 C        2.864     0.143    24.874     8.175
    24   8 O        1.706    -0.198    17.303     5.616
    25   6 C        3.645     0.020    20.573     6.519
    26   6 C        2.856     0.138    24.985     8.193
    27   8 O        1.706    -0.224    17.723     5.684
    28   6 C        3.645     0.024    20.503     6.508
    29   6 C        2.922    -0.076    29.903     8.968
    30   6 C        3.700    -0.044    21.526     6.635
    31   6 C        3.854    -0.008    20.675     6.467
    32   6 C        3.756    -0.118    22.809     6.810
    33   6 C        3.755    -0.119    22.835     6.814
    34   1 H        0.926     0.058     2.219     2.330
    35   1 H        0.924     0.057     2.237     2.339
    36   1 H        0.925     0.084     1.940     2.178
    37   1 H        0.924     0.052     2.292     2.368
    38   1 H        0.924     0.059     2.216     2.328
    39   1 H        0.925     0.084     1.937     2.176
    40   1 H        0.924     0.054     2.265     2.353
    41   1 H        0.926     0.058     2.224     2.332
    42   1 H        0.926     0.048     2.340     2.392
    43   1 H        0.924     0.055     2.262     2.352
    44   1 H        0.924     0.050     2.315     2.379
    45   1 H        0.925     0.051     2.312     2.378
    46   1 H        0.924     0.051     2.309     2.376
    47   1 H        0.923     0.052     2.290     2.366
    48   1 H        0.924     0.048     2.345     2.395
    49   1 H        0.923     0.067     2.121     2.278
    50   1 H        0.924     0.060     2.202     2.321
    51   1 H        0.923     0.035     2.517     2.481
    52   1 H        0.926     0.052     2.289     2.366
    53   1 H        0.926     0.052     2.292     2.368
    54   1 H        0.926     0.062     2.174     2.305
    55   1 H        0.924     0.063     2.165     2.301
    56   1 H        0.924     0.062     2.172     2.305
    57   1 H        0.925     0.089     1.890     2.150
    58   1 H        0.925     0.085     1.930     2.173
    59   1 H        0.924     0.056     2.251     2.346
    60   1 H        0.924     0.055     2.264     2.353
    61   1 H        0.926     0.057     2.236     2.338
    62   1 H        0.924     0.039     2.459     2.452
    63   1 H        0.925     0.055     2.261     2.351
    64   1 H        0.925     0.054     2.276     2.359
    65   1 H        0.924     0.040     2.449     2.447
    66   1 H        0.925     0.069     2.099     2.265
    67   1 H        0.925     0.036     2.505     2.475
    68   1 H        0.925     0.053     2.287     2.365
    69   1 H        0.925     0.065     2.138     2.286
    70   1 H        0.925     0.039     2.466     2.455
    71   1 H        0.925     0.055     2.259     2.351
    72   1 H        0.860     0.159     1.343     1.815

Wiberg/Mayer (AO) data.
largest (>0.10) Wiberg bond orders for each atom

     #   Z sym  total        # sym  WBO       # sym  WBO       # sym  WBO
 ---------------------------------------------------------------------------
     1   7 N    3.000 --     2 C    1.950    72 H    0.938
     2   6 C    3.915 --     1 N    1.950     3 C    0.990    47 H    0.899
     3   6 C    3.962 --     2 C    0.990     4 C    0.976    14 C    0.949
                            31 C    0.941
     4   6 C    3.928 --    13 C    1.395     5 C    1.372     3 C    0.976
     5   6 C    3.951 --     6 C    1.392     4 C    1.372    34 H    0.958
     6   6 C    3.885 --     5 C    1.392     9 C    1.210     7 O    1.109
     7   8 O    2.250 --     6 C    1.109     8 C    0.977
     8   6 C    3.928 --     7 O    0.977    36 H    0.976    37 H    0.972
                            35 H    0.972
     9   6 C    3.879 --    12 C    1.379     6 C    1.210    10 O    1.113
    10   8 O    2.249 --     9 C    1.113    11 C    0.975
    11   6 C    3.926 --    39 H    0.976    10 O    0.975    40 H    0.972
                            38 H    0.972
    12   6 C    3.951 --    13 C    1.416     9 C    1.379    41 H    0.963
    13   6 C    3.933 --    12 C    1.416     4 C    1.395    42 H    0.961
    14   6 C    3.983 --    15 C    1.005    44 H    0.971    43 H    0.968
                             3 C    0.949
    15   6 C    3.982 --    14 C    1.005    16 C    0.997    46 H    0.972
                            45 H    0.963
    16   6 C    3.970 --    17 N    1.000    15 C    0.997    48 H    0.970
                            51 H    0.957
    17   7 N    3.123 --    30 C    1.015    16 C    1.000    18 C    0.996
    18   6 C    3.970 --    19 C    1.030    17 N    0.996    50 H    0.954
                            49 H    0.931
    19   6 C    3.542 --    20 C    1.442    18 C    1.030    52 H    0.963
    20   6 C    3.976 --    19 C    1.442    21 C    1.221    29 C    1.207
    21   6 C    3.818 --    22 C    1.515    20 C    1.221    53 H    0.964
    22   6 C    3.966 --    21 C    1.515    23 C    1.318    54 H    0.961
    23   6 C    3.780 --    22 C    1.318    26 C    1.171    24 O    1.150
    24   8 O    2.266 --    23 C    1.150    25 C    0.970
    25   6 C    3.921 --    57 H    0.976    56 H    0.971    55 H    0.971
                            24 O    0.970
    26   6 C    3.913 --    29 C    1.474    23 C    1.171    27 O    1.107
    27   8 O    2.258 --    26 C    1.107    28 C    0.975
    28   6 C    3.927 --    58 H    0.976    27 O    0.975    59 H    0.973
                            60 H    0.973
    29   6 C    3.855 --    26 C    1.474    20 C    1.207    61 H    0.961
    30   6 C    3.970 --    17 N    1.015    64 H    0.981    63 H    0.970
                            62 H    0.964
    31   6 C    3.964 --    33 C    1.008    32 C    1.008    65 H    0.955
                             3 C    0.941
    32   6 C    3.971 --    31 C    1.008    67 H    0.980    68 H    0.980
                            66 H    0.970
    33   6 C    3.972 --    31 C    1.008    70 H    0.981    71 H    0.978
                            69 H    0.971
    34   1 H    0.995 --     5 C    0.958
    35   1 H    0.991 --     8 C    0.972
    36   1 H    0.992 --     8 C    0.976
    37   1 H    0.991 --     8 C    0.972
    38   1 H    0.990 --    11 C    0.972
    39   1 H    0.992 --    11 C    0.976
    40   1 H    0.990 --    11 C    0.972
    41   1 H    0.994 --    12 C    0.963
    42   1 H    0.996 --    13 C    0.961
    43   1 H    0.995 --    14 C    0.968
    44   1 H    0.996 --    14 C    0.971
    45   1 H    0.996 --    15 C    0.963
    46   1 H    0.995 --    15 C    0.972
    47   1 H    0.964 --     2 C    0.899
    48   1 H    0.997 --    16 C    0.970
    49   1 H    0.965 --    18 C    0.931
    50   1 H    0.988 --    18 C    0.954
    51   1 H    0.981 --    16 C    0.957
    52   1 H    0.996 --    19 C    0.963
    53   1 H    0.996 --    21 C    0.964
    54   1 H    0.994 --    22 C    0.961
    55   1 H    0.989 --    25 C    0.971
    56   1 H    0.989 --    25 C    0.971
    57   1 H    0.991 --    25 C    0.976
    58   1 H    0.992 --    28 C    0.976
    59   1 H    0.992 --    28 C    0.973
    60   1 H    0.992 --    28 C    0.973
    61   1 H    0.995 --    29 C    0.961
    62   1 H    0.981 --    30 C    0.964
    63   1 H    0.991 --    30 C    0.970
    64   1 H    0.997 --    30 C    0.981
    65   1 H    0.986 --    31 C    0.955
    66   1 H    0.988 --    32 C    0.970
    67   1 H    0.995 --    32 C    0.980
    68   1 H    0.992 --    32 C    0.980
    69   1 H    0.989 --    33 C    0.971
    70   1 H    0.995 --    33 C    0.981
    71   1 H    0.991 --    33 C    0.978
    72   1 H    0.964 --     1 N    0.938
 ---------------------------------------------------------------------------

molecular dipole:
                 x           y           z       tot (Debye)
 q only:        1.102       0.013      -0.044
   full:        1.465      -0.304      -0.062       3.806

           -------------------------------------------------
          | TOTAL ENERGY              -99.389576773079 Eh   |
          | GRADIENT NORM               0.003024008303 Eh/α |
          | HOMO-LUMO GAP               1.026832130784 eV   |
           -------------------------------------------------

 * finished run on 2024/04/06 at 11:14:01.418
