   * xtb version 6.6.1 (8d0f1dd) compiled by 'conda@1efc2f54142f' on 2023-08-01
          program call               : xtb struc.xyz --opt loose --input .xc1 --gfn2

   ID    Z sym.   atoms
    1    7 N      1, 17
    2    6 C      2-6, 8, 9, 11-16, 18-23, 25, 26, 28-33
    3    8 O      7, 10, 24, 27
    4    1 H      34-72
constraining bond 17 52 to    3.6866700 Å, actual value:    2.7458883 Å

          :  Hamiltonian                  GFN2-xTB          :
 * total energy  :   -99.5621630 Eh     change       -0.4035485E-08 Eh
 * total energy  :   -99.8188487 Eh     change       -0.2566857E+00 Eh
 * total energy  :  -100.1432942 Eh     change       -0.3244454E+00 Eh
 * total energy  :  -100.5303523 Eh     change       -0.3870581E+00 Eh
 * total energy  :   -98.6173941 Eh     change        0.1912958E+01 Eh
 * total energy  :  -100.5946991 Eh     change       -0.1977305E+01 Eh
 * total energy  :  -100.6497156 Eh     change       -0.5501654E-01 Eh
 * total energy  :  -100.6133253 Eh     change        0.3639026E-01 Eh
 * total energy  :  -100.6854389 Eh     change       -0.7211351E-01 Eh
 * total energy  :  -100.6917226 Eh     change       -0.6283767E-02 Eh
 * total energy  :  -100.7394538 Eh     change       -0.2035631E-03 Eh
 * total energy  :  -100.7396735 Eh     change       -0.2196301E-03 Eh
 * total energy  :  -100.7398392 Eh     change       -0.1657152E-03 Eh
 * total energy  :  -100.7400270 Eh     change       -0.1877950E-03 Eh
 * total energy  :  -100.7401072 Eh     change       -0.8019647E-04 Eh
 * total energy  :  -100.7401773 Eh     change       -0.7017023E-04 Eh
 * total energy  :  -100.7402515 Eh     change       -0.7410739E-04 Eh
 * total energy  :  -100.7403043 Eh     change       -0.5283251E-04 Eh
 * total energy  :  -100.7403503 Eh     change       -0.4598190E-04 Eh
   *** GEOMETRY OPTIMIZATION CONVERGED AFTER 39 ITERATIONS ***

 final structure:
================
72
 xtb: 6.6.1 (8d0f1dd)
N           -1.69036728177114        2.64409936505353        2.15573577354258
C           -1.75690245764041        1.94453329148058        1.12906735350474
C           -2.93236482163894        1.81780011227794        0.20745158918360
C           -3.45094511460029        0.39027058586974        0.26849536022639
C           -4.38253725841992       -0.05800440236331       -0.66850542051772
C           -4.88869057606011       -1.34660072237468       -0.62420464405726
O           -5.79391320868600       -1.85847764665910       -1.48571146776415
C           -6.37542402823318       -1.01604041476868       -2.45266996153907
C           -4.44901527352770       -2.23760205746107        0.39094320714973
O           -4.99067965780974       -3.47323095450340        0.35601676660504
C           -4.68116414812005       -4.38257858768964        1.38582565935179
C           -3.52760583670706       -1.78454319842925        1.32084090023760
C           -3.03945109591111       -0.48614291943550        1.26035041758457
C           -2.36159014623218        2.12480247146332       -1.20360699935840
C           -1.43057284122582        1.03284043350255       -1.75328335435577
C           -0.18634445900963        0.91414051903126       -0.92013365943502
N            0.60718767633380       -0.34274432614256       -1.08969866677881
C            1.82104727109848       -0.27920323179040       -0.20137685947402
C            2.86840609414294        0.63235845517385       -0.73585921986847
C            4.23477194241739        0.48133252910675       -0.55459747822138
C            5.10872002356335        1.49428370310515       -1.03382757333855
C            6.46478871120138        1.43007357130537       -0.83928706584259
C            7.04242850060711        0.34792613195725       -0.17428001181383
O            8.34868687825987        0.18823868988981        0.07860843433529
C            9.26048110095394        1.19790095037604       -0.29283869867536
C            6.19437617864874       -0.70125666900554        0.29720894424755
O            6.84717701950180       -1.70796703086779        0.91681694820873
C            6.11337785689702       -2.79760999445705        1.41850429385689
C            4.83494676416278       -0.62386557100929        0.11081082610036
C           -0.19389806610249       -1.53095986606165       -0.71651444886900
C           -4.10319782208872        2.78645442489808        0.54525446814432
C           -4.69892090179779        2.47632381446898        1.91592230549057
C           -3.70156725656154        4.25671438792602        0.47819501929976
H           -4.72536353379703        0.61670331486345       -1.43538243656851
H           -6.88217952900936       -0.16430375195575       -1.98922577735688
H           -7.10722651124462       -1.63083483764513       -2.97298536792995
H           -5.63303457506669       -0.65423028870476       -3.17181833952832
H           -4.96389511750483       -3.98873925334769        2.36665531500598
H           -5.26613622056092       -5.27516753786970        1.17344241253724
H           -3.61689965967933       -4.64005444111501        1.38880579780577
H           -3.19155386511986       -2.43184778175987        2.11476287126066
H           -2.35099085344212       -0.15556329022940        2.02312149714609
H           -3.18861771591333        2.25993379818057       -1.89972811840604
H           -1.81077666252601        3.06496462760752       -1.15749767090108
H           -1.98706003207478        0.09558233371689       -1.77720601585555
H           -1.19288642950039        1.30107963204973       -2.79447817532974
H           -0.89105160869002        1.36021150587417        0.65843816867204
H            0.46974739442982        1.76996522574990       -1.01982320750297
H            2.22112985537774       -1.28975352667680       -0.10875204777359
H            1.46593826629244        0.04311787763850        0.78638119869052
H            2.53239310425976        1.53432978964867       -1.21964557228878
H            0.83648927400612       -0.41138172573342       -1.81498357367791
H            4.68416535906573        2.34192041671693       -1.54783509916683
H            7.08799057656341        2.23018136515614       -1.20580959857854
H            9.02854352639346        2.14588472784391        0.20165041343977
H            9.27710494973706        1.34357565397699       -1.37795699180296
H           10.23607309658517        0.84512711169734        0.03853336217717
H            6.84871482491639       -3.46922579788522        1.85625581629902
H            5.40685853603001       -2.48210273848676        2.19210905042012
H            5.57546322681586       -3.32008069673042        0.62131638344958
H            4.20914454803055       -1.41396837892653        0.49160096906946
H           -1.03190781699366       -1.65372352826935       -1.39822276079433
H           -0.58544283146172       -1.41368557676657        0.29220816558843
H            0.42494246195504       -2.42554654065695       -0.77143782840390
H           -4.87789787231729        2.60964739669751       -0.20966591842186
H           -3.96341631999257        2.66247397279892        2.69246998731190
H           -5.02396096092644        1.44059267417413        1.97825504209453
H           -5.55872407410864        3.11661265021649        2.09449288490055
H           -2.89372192818471        4.46023406265365        1.17479510946729
H           -3.39376584067391        4.54780177918552       -0.52238400037235
H           -4.55257268092456        4.87274400076467        0.75667049483148
H           -0.82034452937710        2.68839945417772        2.67448566594694

          :  Hamiltonian                  GFN2-xTB          :
         :: total energy            -100.740350270183 Eh    ::
         :: gradient norm              0.002932832044 Eh/a0 ::
         :: HOMO-LUMO gap              0.191473307558 eV    ::
         :: SCC energy              -100.704017243907 Eh    ::
         :: -> dispersion             -0.075721965494 Eh    ::
         :: repulsion energy           1.487883981393 Eh    ::

    * Orbital Energies and Occupations

         #    Occupation            Energy/Eh            Energy/eV
      -------------------------------------------------------------
         1        2.0000           -0.8306968             -22.6044
       ...           ...                  ...                  ...
        78        1.9985           -0.5269759             -14.3397
        79        1.9984           -0.5255892             -14.3020
        80        1.9977           -0.5198849             -14.1468
        81        1.9974           -0.5179261             -14.0935
        82        1.9963           -0.5124696             -13.9450
        83        1.9962           -0.5119520             -13.9309
        84        1.9945           -0.5063583             -13.7787
        85        1.9900           -0.4967175             -13.5164
        86        1.9822           -0.4875806             -13.2677
        87        1.9755           -0.4824321             -13.1276
        88        1.9463           -0.4697588             -12.7828
        89        1.8812           -0.4566587             -12.4263
        90        1.2237           -0.4201242             -11.4322 (HOMO)
        91        1.0053           -0.4130876             -11.2407 (LUMO)
        92        0.0144           -0.3349561              -9.1146
        93        0.0037           -0.3133041              -8.5254
        94        0.0031           -0.3103668              -8.4455
        95        0.0025           -0.3070586              -8.3555
        96        0.0007           -0.2878140              -7.8318
        97        0.0000           -0.1875912              -5.1046
        98        0.0000           -0.1853193              -5.0428
        99        0.0000           -0.1727570              -4.7010
       100                         -0.1161497              -3.1606
       101                         -0.1095912              -2.9821
       ...                                ...                  ...
       171                          0.7034650              19.1423
      -------------------------------------------------------------
                  HL-Gap            0.0070365 Eh            0.1915 eV

     #   Z          covCN         q      C6AA      α(0)
     1   7 N        1.773    -0.249    27.317     7.740
     2   6 C        2.823     0.088    26.033     8.360
     3   6 C        3.908     0.007    20.395     6.419
     4   6 C        2.976     0.005    27.901     8.664
     5   6 C        2.920    -0.078    29.959     8.976
     6   6 C        2.863     0.128    25.188     8.226
     7   8 O        1.706    -0.233    17.858     5.706
     8   6 C        3.644     0.028    20.433     6.497
     9   6 C        2.865     0.127    25.212     8.231
    10   8 O        1.706    -0.232    17.838     5.702
    11   6 C        3.645     0.027    20.445     6.498
    12   6 C        2.914    -0.076    29.897     8.966
    13   6 C        2.922    -0.055    29.364     8.886
    14   6 C        3.816    -0.063    21.692     6.629
    15   6 C        3.800    -0.062    21.690     6.631
    16   6 C        2.831    -0.127    31.237     9.159
    17   7 N        3.577     0.035    20.622     6.745
    18   6 C        3.751    -0.021    21.011     6.537
    19   6 C        2.903    -0.097    30.440     9.046
    20   6 C        2.960     0.013    27.721     8.636
    21   6 C        2.926    -0.045    29.118     8.849
    22   6 C        2.907    -0.062    29.550     8.914
    23   6 C        2.864     0.136    25.024     8.200
    24   8 O        1.706    -0.210    17.496     5.647
    25   6 C        3.645     0.023    20.525     6.512
    26   6 C        2.858     0.135    25.053     8.204
    27   8 O        1.706    -0.232    17.843     5.703
    28   6 C        3.645     0.029    20.421     6.495
    29   6 C        2.915    -0.089    30.236     9.017
    30   6 C        3.699    -0.084    22.267     6.748
    31   6 C        3.852    -0.007    20.670     6.466
    32   6 C        3.756    -0.118    22.813     6.810
    33   6 C        3.755    -0.118    22.807     6.809
    34   1 H        0.926     0.052     2.292     2.368
    35   1 H        0.924     0.053     2.279     2.361
    36   1 H        0.925     0.080     1.980     2.200
    37   1 H        0.924     0.046     2.367     2.406
    38   1 H        0.924     0.054     2.267     2.355
    39   1 H        0.925     0.080     1.977     2.199
    40   1 H        0.924     0.046     2.372     2.409
    41   1 H        0.926     0.049     2.327     2.386
    42   1 H        0.926     0.037     2.486     2.466
    43   1 H        0.925     0.052     2.290     2.366
    44   1 H        0.924     0.050     2.315     2.379
    45   1 H        0.924     0.037     2.491     2.468
    46   1 H        0.923     0.037     2.489     2.467
    47   1 H        0.917     0.056     2.248     2.345
    48   1 H        0.925     0.037     2.489     2.467
    49   1 H        0.924     0.073     2.054     2.241
    50   1 H        0.923     0.080     1.975     2.198
    51   1 H        0.926     0.041     2.433     2.439
    52   1 H        0.863     0.222     0.998     1.565
    53   1 H        0.926     0.050     2.319     2.381
    54   1 H        0.926     0.059     2.210     2.325
    55   1 H        0.924     0.059     2.213     2.326
    56   1 H        0.924     0.059     2.214     2.327
    57   1 H        0.925     0.084     1.936     2.176
    58   1 H        0.925     0.081     1.971     2.196
    59   1 H        0.924     0.048     2.349     2.397
    60   1 H        0.924     0.046     2.369     2.407
    61   1 H        0.926     0.037     2.493     2.469
    62   1 H        0.925     0.089     1.889     2.149
    63   1 H        0.925     0.097     1.810     2.104
    64   1 H        0.925     0.081     1.972     2.196
    65   1 H        0.924     0.039     2.467     2.456
    66   1 H        0.925     0.066     2.135     2.285
    67   1 H        0.925     0.035     2.510     2.478
    68   1 H        0.925     0.050     2.314     2.379
    69   1 H        0.925     0.058     2.224     2.332
    70   1 H        0.925     0.036     2.497     2.471
    71   1 H        0.925     0.054     2.275     2.359
    72   1 H        0.860     0.163     1.318     1.799

Wiberg/Mayer (AO) data.
largest (>0.10) Wiberg bond orders for each atom

     #   Z sym  total        # sym  WBO       # sym  WBO       # sym  WBO
 ---------------------------------------------------------------------------
     1   7 N    3.041 --     2 C    1.963    72 H    0.935
     2   6 C    3.824 --     1 N    1.963     3 C    0.993    47 H    0.781
     3   6 C    3.965 --     2 C    0.993     4 C    0.970    14 C    0.953
                            31 C    0.938
     4   6 C    3.952 --    13 C    1.414     5 C    1.371     3 C    0.970
     5   6 C    3.964 --     6 C    1.401     4 C    1.371    34 H    0.958
     6   6 C    3.907 --     5 C    1.401     9 C    1.226     7 O    1.096
     7   8 O    2.252 --     6 C    1.096     8 C    0.979
     8   6 C    3.933 --     7 O    0.979    36 H    0.977    35 H    0.974
                            37 H    0.974
     9   6 C    3.903 --    12 C    1.393     6 C    1.226    10 O    1.097
    10   8 O    2.250 --     9 C    1.097    11 C    0.979
    11   6 C    3.933 --    10 O    0.979    39 H    0.977    40 H    0.974
                            38 H    0.974
    12   6 C    3.964 --    13 C    1.406     9 C    1.393    41 H    0.964
    13   6 C    3.955 --     4 C    1.414    12 C    1.406    42 H    0.961
    14   6 C    3.981 --    15 C    0.995    44 H    0.973    43 H    0.969
                             3 C    0.953
    15   6 C    3.983 --    16 C    1.035    14 C    0.995    45 H    0.963
                            46 H    0.946
    16   6 C    3.147 --    15 C    1.035    48 H    0.960    17 N    0.887
                            47 H    0.154
    17   7 N    3.733 --    30 C    0.964    52 H    0.925    18 C    0.916
                            16 C    0.887
    18   6 C    3.924 --    19 C    1.039    49 H    0.958    50 H    0.950
                            17 N    0.916
    19   6 C    3.525 --    20 C    1.428    18 C    1.039    51 H    0.960
    20   6 C    3.974 --    19 C    1.428    21 C    1.221    29 C    1.218
    21   6 C    3.812 --    22 C    1.510    20 C    1.221    53 H    0.968
    22   6 C    3.967 --    21 C    1.510    23 C    1.326    54 H    0.962
    23   6 C    3.771 --    22 C    1.326    26 C    1.182    24 O    1.130
    24   8 O    2.245 --    23 C    1.130    25 C    0.973
    25   6 C    3.926 --    57 H    0.977    24 O    0.973    55 H    0.972
                            56 H    0.972
    26   6 C    3.911 --    29 C    1.471    23 C    1.182    27 O    1.095
    27   8 O    2.255 --    26 C    1.095    28 C    0.981
    28   6 C    3.936 --    27 O    0.981    58 H    0.977    60 H    0.974
                            59 H    0.974
    29   6 C    3.865 --    26 C    1.471    20 C    1.218    61 H    0.959
    30   6 C    3.932 --    63 H    0.978    64 H    0.977    62 H    0.972
                            17 N    0.964
    31   6 C    3.965 --    33 C    1.010    32 C    1.009    65 H    0.959
                             3 C    0.938
    32   6 C    3.980 --    31 C    1.009    67 H    0.982    68 H    0.981
                            66 H    0.975
    33   6 C    3.984 --    31 C    1.010    70 H    0.983    71 H    0.980
                            69 H    0.977
    34   1 H    0.996 --     5 C    0.958
    35   1 H    0.994 --     8 C    0.974
    36   1 H    0.993 --     8 C    0.977
    37   1 H    0.994 --     8 C    0.974
    38   1 H    0.993 --    11 C    0.974
    39   1 H    0.993 --    11 C    0.977
    40   1 H    0.994 --    11 C    0.974
    41   1 H    0.996 --    12 C    0.964
    42   1 H    0.998 --    13 C    0.961
    43   1 H    0.996 --    14 C    0.969
    44   1 H    0.996 --    14 C    0.973
    45   1 H    0.997 --    15 C    0.963
    46   1 H    0.963 --    15 C    0.946
    47   1 H    0.972 --     2 C    0.781    16 C    0.154
    48   1 H    0.992 --    16 C    0.960
    49   1 H    0.990 --    18 C    0.958
    50   1 H    0.971 --    18 C    0.950
    51   1 H    0.997 --    19 C    0.960
    52   1 H    0.944 --    17 N    0.925
    53   1 H    0.997 --    21 C    0.968
    54   1 H    0.995 --    22 C    0.962
    55   1 H    0.990 --    25 C    0.972
    56   1 H    0.989 --    25 C    0.972
    57   1 H    0.992 --    25 C    0.977
    58   1 H    0.993 --    28 C    0.977
    59   1 H    0.995 --    28 C    0.974
    60   1 H    0.995 --    28 C    0.974
    61   1 H    0.997 --    29 C    0.959
    62   1 H    0.991 --    30 C    0.972
    63   1 H    0.990 --    30 C    0.978
    64   1 H    0.993 --    30 C    0.977
    65   1 H    0.991 --    31 C    0.959
    66   1 H    0.992 --    32 C    0.975
    67   1 H    0.997 --    32 C    0.982
    68   1 H    0.994 --    32 C    0.981
    69   1 H    0.994 --    33 C    0.977
    70   1 H    0.997 --    33 C    0.983
    71   1 H    0.994 --    33 C    0.980
    72   1 H    0.963 --     1 N    0.935
 ---------------------------------------------------------------------------

molecular dipole:
                 x           y           z       tot (Debye)
 q only:        1.099      -0.567      -0.689
   full:        1.384      -0.708      -1.143       4.905

           -------------------------------------------------
          | TOTAL ENERGY             -100.740350270183 Eh   |
          | GRADIENT NORM               0.002932832044 Eh/α |
          | HOMO-LUMO GAP               0.191473307558 eV   |
           -------------------------------------------------

 * finished run on 2024/04/06 at 11:16:48.034
