   * xtb version 6.6.1 (8d0f1dd) compiled by 'conda@1efc2f54142f' on 2023-08-01
          program call               : xtb xtbopt.xyz --opt crude --input .xc2 --gfn2

   ID    Z sym.   atoms
    1    7 N      1, 17
    2    6 C      2-6, 8, 9, 11-16, 18-23, 25, 26, 28-33
    3    8 O      7, 10, 24, 27
    4    1 H      34-72
########################################################################
[WARNING] Please study the warnings concerning your input carefully
-1- readin_getIntValue: could not parse ''
########################################################################

          :  Hamiltonian                  GFN2-xTB          :
 * total energy  :   -99.2148978 Eh     change       -0.6153300E-11 Eh
 * total energy  :   -99.3105065 Eh     change       -0.9560868E-01 Eh
 * total energy  :   -99.3115576 Eh     change       -0.1051084E-02 Eh
 * total energy  :   -99.3118034 Eh     change       -0.2458563E-03 Eh
 * total energy  :   -99.3119132 Eh     change       -0.1097583E-03 Eh
   *** GEOMETRY OPTIMIZATION CONVERGED AFTER 5 ITERATIONS ***

 final structure:
================
72
 xtb: 6.6.1 (8d0f1dd)
N           -1.69879217660390        2.64498636671207        2.16399160975847
C           -1.76251403377619        1.94476148978700        1.13757494445734
C           -2.93509080761955        1.81782084465078        0.21247012255164
C           -3.45372124061156        0.39000088482591        0.27125247377910
C           -4.38246385826803       -0.05794030818946       -0.66877745861407
C           -4.88918134447656       -1.34635752001217       -0.62677020531498
O           -5.79287941342457       -1.85756808142347       -1.49019076590218
C           -6.37303651555198       -1.01537502096951       -2.45806052548462
C           -4.45184857083160       -2.23831055597885        0.38849612263840
O           -4.99171010385897       -3.47474064977577        0.35003563574129
C           -4.68556927620453       -4.38479238885263        1.38026792373748
C           -3.53364773815431       -1.78539459432661        1.32159602447961
C           -3.04543266243868       -0.48681674531886        1.26384881144487
C           -2.36071228913867        2.12514637539562       -1.19694848353494
C           -1.42563408130824        1.03486388419666       -1.74195899741036
C           -0.18313373333864        0.91427375812275       -0.90586680786228
N            0.60113213267577       -0.33260990270281       -1.04877548730060
C            1.82150094569920       -0.26904874516842       -0.18293329808529
C            2.86972755257950        0.63282455924413       -0.73424376927460
C            4.23551863920442        0.48294426588404       -0.55007642338728
C            5.11013130577488        1.48871772241763       -1.04277415140828
C            6.46631198470855        1.42439544376948       -0.84880706650692
C            7.04295576215821        0.34755536639538       -0.17326067738904
O            8.34957592422872        0.18898859830357        0.08174532783769
C            9.25904511639645        1.19383177935752       -0.30561896954797
C            6.19371337727350       -0.69817741378508        0.30406696574282
O            6.84587826351806       -1.70626537432777        0.92213383881419
C            6.11268153723505       -2.79620052236560        1.42471843328183
C            4.83441770541664       -0.61819214627915        0.12339905315495
C           -0.19272765481435       -1.52749577318749       -0.70438870116654
C           -4.10689814703141        2.78611406936191        0.54784851985486
C           -4.70595944062647        2.47486768883363        1.91684818629023
C           -3.70508680910324        4.25654599777494        0.48301402000562
H           -4.72294001710796        0.61679496872724       -1.43669239138160
H           -6.88009784804507       -0.16318891726397       -1.99572540930028
H           -7.10457634392147       -1.63026887687422       -2.97860799193497
H           -5.62994364974246       -0.65421215637697       -3.17663902800434
H           -4.97049183482887       -3.99127581399472        2.36050818376744
H           -5.27069257255616       -5.27685548747042        1.16597427570596
H           -3.62153375179452       -4.64316829067446        1.38567195754622
H           -3.20058550020364       -2.43350396218719        2.11602429531724
H           -2.35930391760342       -0.15724306465672        2.02917763038933
H           -3.18578835179884        2.25677020576391       -1.89622877756193
H           -1.81225432335623        3.06639213239290       -1.15013055934933
H           -1.97996732992579        0.09660536859592       -1.76973221538359
H           -1.18078461712206        1.30321586357725       -2.78144954443720
H           -0.89436875766264        1.36140132705765        0.67039655011518
H            0.47040829524053        1.77373383539902       -0.99809655686107
H            2.21809964053037       -1.28136597045806       -0.07894705788902
H            1.47837252188816        0.06376797906799        0.80697829978538
H            2.53362587146139        1.52669488205546       -1.23401477044295
H            0.92202128904182       -0.43262240470424       -2.02315290807175
H            4.68731423304742        2.33209635056022       -1.56606261105370
H            7.08929445410647        2.21988070247198       -1.22455534930418
H            9.02762848061521        2.14791150227496        0.17726932267619
H            9.27206904124776        1.32696018894692       -1.39123667045387
H           10.23558161343084        0.84759211407030        0.02730636882414
H            6.84966094895324       -3.46676937063632        1.86226004503633
H            5.40505968037065       -2.48218802601636        2.19895711585801
H            5.57621153452667       -3.32088913967426        0.62719010757038
H            4.20699356764906       -1.40548914543966        0.50675615531644
H           -1.02212411144651       -1.65409286501422       -1.39503570493524
H           -0.59926177696433       -1.41396632744491        0.30057278694308
H            0.43149580392315       -2.41853654745398       -0.74767438421474
H           -4.87949834043938        2.60994143613925       -0.20930737173816
H           -3.97234414600275        2.66076581788316        2.69523485064409
H           -5.03085311365014        1.43901828191297        1.97779233213724
H           -5.56640477323972        3.11473716046653        2.09383603141654
H           -2.89854994951447        4.45943171299908        1.18135653904348
H           -3.39536687914516        4.54846837183796       -0.51677431814454
H           -4.55656978270416        4.87244883083771        0.76049191123079
H           -0.82957003993104        2.69179350343080        2.68371747837233

          :  Hamiltonian                  GFN2-xTB          :
         :: total energy             -99.311913184711 Eh    ::
         :: gradient norm              0.004646784933 Eh/a0 ::
         :: HOMO-LUMO gap              0.199621769041 eV    ::
         :: SCC energy              -100.676648175812 Eh    ::
         :: -> dispersion             -0.075718972655 Eh    ::
         :: repulsion energy           1.363498001220 Eh    ::

    * Orbital Energies and Occupations

         #    Occupation            Energy/Eh            Energy/eV
      -------------------------------------------------------------
         1        2.0000           -0.8202539             -22.3202
       ...           ...                  ...                  ...
        78        1.9985           -0.5268177             -14.3354
        79        1.9984           -0.5254020             -14.2969
        80        1.9977           -0.5196912             -14.1415
        81        1.9974           -0.5178395             -14.0911
        82        1.9963           -0.5123104             -13.9407
        83        1.9962           -0.5117766             -13.9262
        84        1.9946           -0.5061795             -13.7738
        85        1.9901           -0.4965546             -13.5119
        86        1.9823           -0.4873481             -13.2614
        87        1.9755           -0.4821229             -13.1192
        88        1.9467           -0.4695995             -12.7785
        89        1.8819           -0.4564651             -12.4210
        90        1.2275           -0.4199557             -11.4276 (HOMO)
        91        0.9999           -0.4126197             -11.2280 (LUMO)
        92        0.0146           -0.3348135              -9.1107
        93        0.0037           -0.3130871              -8.5195
        94        0.0031           -0.3101283              -8.4390
        95        0.0025           -0.3068123              -8.3488
        96        0.0007           -0.2876656              -7.8278
        97        0.0000           -0.1873638              -5.0984
        98        0.0000           -0.1868762              -5.0852
        99        0.0000           -0.1734892              -4.7209
       100                         -0.1052686              -2.8645
       101                         -0.0967794              -2.6335
       ...                                ...                  ...
       171                          0.5872063              15.9787
      -------------------------------------------------------------
                  HL-Gap            0.0073360 Eh            0.1996 eV

     #   Z          covCN         q      C6AA      α(0)
     1   7 N        1.773    -0.250    27.328     7.741
     2   6 C        2.823     0.088    26.025     8.359
     3   6 C        3.908     0.008    20.394     6.419
     4   6 C        2.976     0.005    27.900     8.664
     5   6 C        2.920    -0.078    29.959     8.976
     6   6 C        2.862     0.128    25.188     8.226
     7   8 O        1.706    -0.233    17.859     5.706
     8   6 C        3.644     0.028    20.433     6.497
     9   6 C        2.864     0.127    25.213     8.231
    10   8 O        1.706    -0.232    17.841     5.703
    11   6 C        3.645     0.028    20.443     6.498
    12   6 C        2.914    -0.076    29.896     8.966
    13   6 C        2.922    -0.055    29.359     8.886
    14   6 C        3.816    -0.063    21.691     6.628
    15   6 C        3.800    -0.062    21.695     6.632
    16   6 C        2.833    -0.122    31.085     9.136
    17   7 N        3.576     0.054    20.286     6.689
    18   6 C        3.751    -0.019    20.969     6.530
    19   6 C        2.903    -0.097    30.439     9.046
    20   6 C        2.961     0.013    27.724     8.636
    21   6 C        2.926    -0.045    29.122     8.850
    22   6 C        2.907    -0.062    29.553     8.914
    23   6 C        2.865     0.136    25.031     8.201
    24   8 O        1.706    -0.210    17.496     5.647
    25   6 C        3.645     0.023    20.519     6.510
    26   6 C        2.857     0.135    25.050     8.204
    27   8 O        1.706    -0.232    17.846     5.704
    28   6 C        3.644     0.029    20.422     6.496
    29   6 C        2.915    -0.089    30.235     9.017
    30   6 C        3.699    -0.080    22.207     6.740
    31   6 C        3.852    -0.007    20.670     6.466
    32   6 C        3.756    -0.118    22.811     6.810
    33   6 C        3.755    -0.118    22.806     6.809
    34   1 H        0.926     0.052     2.294     2.369
    35   1 H        0.924     0.053     2.280     2.361
    36   1 H        0.925     0.080     1.980     2.201
    37   1 H        0.924     0.046     2.368     2.406
    38   1 H        0.924     0.054     2.268     2.355
    39   1 H        0.925     0.080     1.978     2.200
    40   1 H        0.924     0.046     2.373     2.409
    41   1 H        0.926     0.049     2.329     2.386
    42   1 H        0.926     0.037     2.490     2.468
    43   1 H        0.925     0.053     2.288     2.366
    44   1 H        0.924     0.051     2.313     2.378
    45   1 H        0.925     0.037     2.490     2.468
    46   1 H        0.923     0.037     2.495     2.470
    47   1 H        0.917     0.055     2.258     2.350
    48   1 H        0.925     0.037     2.492     2.469
    49   1 H        0.924     0.072     2.065     2.247
    50   1 H        0.923     0.080     1.976     2.198
    51   1 H        0.926     0.041     2.439     2.442
    52   1 H        0.859     0.200     1.109     1.649
    53   1 H        0.926     0.050     2.322     2.383
    54   1 H        0.926     0.059     2.209     2.324
    55   1 H        0.924     0.058     2.217     2.328
    56   1 H        0.924     0.059     2.215     2.328
    57   1 H        0.925     0.084     1.938     2.177
    58   1 H        0.925     0.081     1.971     2.196
    59   1 H        0.924     0.048     2.350     2.397
    60   1 H        0.924     0.046     2.371     2.408
    61   1 H        0.926     0.037     2.492     2.468
    62   1 H        0.925     0.088     1.896     2.153
    63   1 H        0.925     0.097     1.813     2.106
    64   1 H        0.925     0.080     1.980     2.200
    65   1 H        0.924     0.039     2.468     2.457
    66   1 H        0.925     0.065     2.136     2.285
    67   1 H        0.925     0.035     2.511     2.478
    68   1 H        0.925     0.050     2.315     2.379
    69   1 H        0.925     0.058     2.225     2.333
    70   1 H        0.925     0.036     2.498     2.471
    71   1 H        0.925     0.054     2.275     2.359
    72   1 H        0.860     0.162     1.320     1.800

Wiberg/Mayer (AO) data.
largest (>0.10) Wiberg bond orders for each atom

     #   Z sym  total        # sym  WBO       # sym  WBO       # sym  WBO
 ---------------------------------------------------------------------------
     1   7 N    3.040 --     2 C    1.963    72 H    0.935
     2   6 C    3.825 --     1 N    1.963     3 C    0.993    47 H    0.782
     3   6 C    3.965 --     2 C    0.993     4 C    0.970    14 C    0.953
                            31 C    0.938
     4   6 C    3.952 --    13 C    1.414     5 C    1.371     3 C    0.970
     5   6 C    3.964 --     6 C    1.401     4 C    1.371    34 H    0.958
     6   6 C    3.907 --     5 C    1.401     9 C    1.226     7 O    1.096
     7   8 O    2.252 --     6 C    1.096     8 C    0.979
     8   6 C    3.933 --     7 O    0.979    36 H    0.977    35 H    0.974
                            37 H    0.974
     9   6 C    3.903 --    12 C    1.393     6 C    1.226    10 O    1.097
    10   8 O    2.250 --     9 C    1.097    11 C    0.979
    11   6 C    3.933 --    10 O    0.979    39 H    0.977    40 H    0.974
                            38 H    0.974
    12   6 C    3.964 --    13 C    1.406     9 C    1.393    41 H    0.964
    13   6 C    3.955 --     4 C    1.414    12 C    1.406    42 H    0.961
    14   6 C    3.981 --    15 C    0.996    44 H    0.973    43 H    0.969
                             3 C    0.953
    15   6 C    3.983 --    16 C    1.035    14 C    0.996    45 H    0.963
                            46 H    0.946
    16   6 C    3.164 --    15 C    1.035    48 H    0.960    17 N    0.907
                            47 H    0.152
    17   7 N    3.753 --    30 C    0.971    18 C    0.924    52 H    0.912
                            16 C    0.907
    18   6 C    3.926 --    19 C    1.037    49 H    0.958    50 H    0.947
                            17 N    0.924
    19   6 C    3.526 --    20 C    1.428    18 C    1.037    51 H    0.960
    20   6 C    3.975 --    19 C    1.428    21 C    1.221    29 C    1.218
    21   6 C    3.812 --    22 C    1.510    20 C    1.221    53 H    0.968
    22   6 C    3.967 --    21 C    1.510    23 C    1.326    54 H    0.962
    23   6 C    3.771 --    22 C    1.326    26 C    1.182    24 O    1.129
    24   8 O    2.245 --    23 C    1.129    25 C    0.973
    25   6 C    3.926 --    57 H    0.977    24 O    0.973    55 H    0.972
                            56 H    0.972
    26   6 C    3.912 --    29 C    1.472    23 C    1.182    27 O    1.095
    27   8 O    2.255 --    26 C    1.095    28 C    0.981
    28   6 C    3.936 --    27 O    0.981    58 H    0.977    60 H    0.974
                            59 H    0.974
    29   6 C    3.865 --    26 C    1.472    20 C    1.218    61 H    0.959
    30   6 C    3.934 --    64 H    0.977    63 H    0.975    62 H    0.972
                            17 N    0.971
    31   6 C    3.966 --    33 C    1.009    32 C    1.009    65 H    0.959
                             3 C    0.938
    32   6 C    3.980 --    31 C    1.009    67 H    0.982    68 H    0.981
                            66 H    0.975
    33   6 C    3.984 --    31 C    1.009    70 H    0.983    71 H    0.980
                            69 H    0.977
    34   1 H    0.996 --     5 C    0.958
    35   1 H    0.994 --     8 C    0.974
    36   1 H    0.993 --     8 C    0.977
    37   1 H    0.994 --     8 C    0.974
    38   1 H    0.993 --    11 C    0.974
    39   1 H    0.993 --    11 C    0.977
    40   1 H    0.994 --    11 C    0.974
    41   1 H    0.996 --    12 C    0.964
    42   1 H    0.998 --    13 C    0.961
    43   1 H    0.996 --    14 C    0.969
    44   1 H    0.996 --    14 C    0.973
    45   1 H    0.997 --    15 C    0.963
    46   1 H    0.964 --    15 C    0.946
    47   1 H    0.973 --     2 C    0.782    16 C    0.152
    48   1 H    0.992 --    16 C    0.960
    49   1 H    0.990 --    18 C    0.958
    50   1 H    0.972 --    18 C    0.947
    51   1 H    0.997 --    19 C    0.960
    52   1 H    0.941 --    17 N    0.912
    53   1 H    0.997 --    21 C    0.968
    54   1 H    0.995 --    22 C    0.962
    55   1 H    0.990 --    25 C    0.972
    56   1 H    0.990 --    25 C    0.972
    57   1 H    0.992 --    25 C    0.977
    58   1 H    0.993 --    28 C    0.977
    59   1 H    0.995 --    28 C    0.974
    60   1 H    0.995 --    28 C    0.974
    61   1 H    0.997 --    29 C    0.959
    62   1 H    0.991 --    30 C    0.972
    63   1 H    0.990 --    30 C    0.975
    64   1 H    0.993 --    30 C    0.977
    65   1 H    0.991 --    31 C    0.959
    66   1 H    0.992 --    32 C    0.975
    67   1 H    0.997 --    32 C    0.982
    68   1 H    0.994 --    32 C    0.981
    69   1 H    0.994 --    33 C    0.977
    70   1 H    0.997 --    33 C    0.983
    71   1 H    0.994 --    33 C    0.980
    72   1 H    0.963 --     1 N    0.935
 ---------------------------------------------------------------------------

molecular dipole:
                 x           y           z       tot (Debye)
 q only:        1.103      -0.567      -0.735
   full:        1.390      -0.712      -1.180       4.975

           -------------------------------------------------
          | TOTAL ENERGY              -99.311913184711 Eh   |
          | GRADIENT NORM               0.004646784933 Eh/α |
          | HOMO-LUMO GAP               0.199621769041 eV   |
           -------------------------------------------------

 * finished run on 2024/04/06 at 11:16:49.143
