   * xtb version 6.6.1 (8d0f1dd) compiled by 'conda@1efc2f54142f' on 2023-08-01
          program call               : xtb struc.xyz --opt loose --input .xc1 --gfn2

   ID    Z sym.   atoms
    1    7 N      1, 17
    2    6 C      2-6, 8, 9, 11-16, 18-23, 25, 26, 28-33
    3    8 O      7, 10, 24, 27
    4    1 H      34-72
constraining bond 21 61 to    3.7133300 Å, actual value:    3.3676411 Å

          :  Hamiltonian                  GFN2-xTB          :
 * total energy  :   -99.4254682 Eh     change       -0.4035485E-08 Eh
 * total energy  :   -99.4619418 Eh     change       -0.3647361E-01 Eh
 * total energy  :   -99.4886118 Eh     change       -0.2667001E-01 Eh
 * total energy  :   -99.5205896 Eh     change       -0.3197782E-01 Eh
 * total energy  :   -99.5916439 Eh     change       -0.7105434E-01 Eh
 * total energy  :   -99.6507326 Eh     change       -0.5908869E-01 Eh
 * total energy  :   -99.9079820 Eh     change       -0.2572493E+00 Eh
 * total energy  :  -100.2004263 Eh     change       -0.2924443E+00 Eh
 * total energy  :  -100.2733401 Eh     change       -0.7291376E-01 Eh
 * total energy  :  -100.3020703 Eh     change       -0.2873028E-01 Eh
 * total energy  :  -100.7271820 Eh     change       -0.2900493E-03 Eh
 * total energy  :  -100.7274229 Eh     change       -0.2408069E-03 Eh
 * total energy  :  -100.7275993 Eh     change       -0.1764351E-03 Eh
 * total energy  :  -100.7277787 Eh     change       -0.1794569E-03 Eh
 * total energy  :  -100.7278794 Eh     change       -0.1006524E-03 Eh
 * total energy  :  -100.7279938 Eh     change       -0.1144243E-03 Eh
 * total energy  :  -100.7280766 Eh     change       -0.8279368E-04 Eh
 * total energy  :  -100.7281451 Eh     change       -0.6845035E-04 Eh
 * total energy  :  -100.7281796 Eh     change       -0.3456988E-04 Eh
   *** GEOMETRY OPTIMIZATION CONVERGED AFTER 42 ITERATIONS ***

 final structure:
================
72
 xtb: 6.6.1 (8d0f1dd)
N           -1.88063110521998        2.77924109629173        2.34439400322391
C           -1.81408624235845        2.09132805765110        1.30405960585674
C           -2.94561541543493        1.90383161979278        0.33125400774591
C           -3.43127912435632        0.46304230252002        0.38786130247757
C           -4.35075381102291        0.00634712118524       -0.55882852442255
C           -4.83207725167239       -1.29150656513212       -0.53344850904359
O           -5.73045701187449       -1.80602197733759       -1.39975138995780
C           -6.33934909654805       -0.95718048151116       -2.34403598485496
C           -4.36996273638372       -2.18967301597716        0.46570596657532
O           -4.87930602967537       -3.43706254523266        0.40503924186880
C           -4.53264139779080       -4.36726716766004        1.40386989115522
C           -3.46080180067791       -1.72947460268885        1.40424844471987
C           -3.00176371177082       -0.41838751518975        1.36714054174889
C           -2.35719473584254        2.20517992213584       -1.07218256352488
C           -1.43364632249217        1.10478549664772       -1.62398870613758
C           -0.09670319765659        1.07358506523630       -0.99059605823924
N            0.56112203876918       -0.02411223587209       -0.62901977798538
C            1.96956840296050        0.03177148589946       -0.32405290808036
C            2.82325967222314       -0.40875331396228       -1.52838059696017
C            4.27672549561102       -0.42549535223812       -1.16355570372821
C            5.26030453958396        0.36541950439702       -2.01483288409547
C            6.41592049261254        0.82917977118335       -1.14912856306006
C            6.75271830769019        0.24806032628243        0.02302139715586
O            7.75190275502330        0.58651208044650        0.85685124635524
C            8.55636016974610        1.69724143597786        0.52703481420696
C            6.03149951983858       -0.97906035964254        0.37918577847507
O            6.66077809099941       -1.83233441470349        1.17660688450784
C            6.02618459812251       -3.07451409910953        1.39867270877296
C            4.75877617947709       -1.10804738004391       -0.11746072425328
C           -0.05495946531011       -1.32846548684448       -0.66195123247590
C           -4.15852771856090        2.84073381228172        0.60769706537312
C           -4.83470691789375        2.50522552516616        1.93495042998143
C           -3.79398397453183        4.32239391089249        0.57564222892357
H           -4.70509507339925        0.68184480919058       -1.31938040315942
H           -6.85000635591303       -0.11959826717612       -1.85926380471255
H           -7.07149758670409       -1.57402038478526       -2.86149621788307
H           -5.61414175051879       -0.57466794993270       -3.06990295029421
H           -4.82200182305640       -4.01448424985177        2.39817328648677
H           -5.08907161400776       -5.27164537346693        1.16587210278974
H           -3.46047383116235       -4.58868545109241        1.39225747252055
H           -3.10871858521896       -2.38205818921817        2.18660528702694
H           -2.31982050819093       -0.08843634663814        2.13538728663329
H           -3.17949983156283        2.33988283780277       -1.77374484494697
H           -1.80464298838376        3.14441700216458       -1.02835397266123
H           -1.93358531350338        0.14010148997711       -1.55792967667020
H           -1.28167658577714        1.32690689103507       -2.68868247838981
H           -0.89494732604856        1.57543680617289        0.96376323485800
H            0.46033907399972        1.99830947544235       -0.95638922379740
H            2.19162881234551       -0.62517860468196        0.52020294629563
H            2.24180410987663        1.05183025816788       -0.04526685869788
H            2.64289668029517        0.26485708901985       -2.36790957206848
H            2.51412556997628       -1.41321779436036       -1.82924192285774
H            4.71437333784793        1.27855173332441       -2.31378032935221
H            7.00572835696648        1.63173264278298       -1.56371346341634
H            7.95691680736292        2.61110413983867        0.45643205769906
H            9.09016583737285        1.53871350672566       -0.41496394004180
H            9.27217856260631        1.79255026148210        1.34005001365160
H            6.62183091461322       -3.59471827373496        2.14801669223400
H            5.00337639175890       -2.91932495387317        1.76099057474613
H            5.98984765157750       -3.66254458580235        0.47618297546153
H            5.52191126545732       -0.02437640587726       -2.64559569503985
H           -0.22101559058607       -1.66640429229097       -1.68788157619497
H           -1.01505141496543       -1.30786068014866       -0.14105821499920
H            0.59508216705955       -2.04326020622220       -0.16279355352992
H           -4.88233278757996        2.65460116807761       -0.19401627972318
H           -4.15693348689730        2.70456746485940        2.75842078219003
H           -5.13572959602670        1.46108967651337        1.96997513740558
H           -5.72141721107450        3.12153050018899        2.05756865186328
H           -3.06382538967875        4.54790135601562        1.34651046525661
H           -3.40015720973503        4.62351246005383       -0.39138219012546
H           -4.68574890973878        4.91245755692827        0.76976119452390
H           -1.04497236797446        2.85620038504416        2.91582041721487

          :  Hamiltonian                  GFN2-xTB          :
         :: total energy            -100.728179639118 Eh    ::
         :: gradient norm              0.003475709333 Eh/a0 ::
         :: HOMO-LUMO gap              1.150434768173 eV    ::
         :: SCC energy              -100.692138007389 Eh    ::
         :: -> dispersion             -0.074408716343 Eh    ::
         :: repulsion energy           1.492362150990 Eh    ::

    * Orbital Energies and Occupations

         #    Occupation            Energy/Eh            Energy/eV
      -------------------------------------------------------------
         1        2.0000           -0.8165250             -22.2188
       ...           ...                  ...                  ...
        78        1.9991           -0.5336508             -14.5214
        79        1.9984           -0.5253616             -14.2958
        80        1.9984           -0.5249369             -14.2843
        81        1.9977           -0.5191874             -14.1278
        82        1.9962           -0.5116255             -13.9220
        83        1.9955           -0.5089700             -13.8498
        84        1.9947           -0.5062971             -13.7770
        85        1.9904           -0.4967999             -13.5186
        86        1.9821           -0.4869232             -13.2499
        87        1.9615           -0.4746262             -12.9152
        88        1.9407           -0.4676001             -12.7240
        89        1.8806           -0.4560401             -12.4095
        90        1.5894           -0.4338130             -11.8047 (HOMO)
        91        0.4228           -0.3915353             -10.6542 (LUMO)
        92        0.2357           -0.3805075             -10.3541
        93        0.0150           -0.3349967              -9.1157
        94        0.0037           -0.3129398              -8.5155
        95        0.0031           -0.3097892              -8.4298
        96        0.0014           -0.2969423              -8.0802
        97        0.0000           -0.2255340              -6.1371
        98        0.0000           -0.1871156              -5.0917
        99                         -0.1328424              -3.6148
       100                         -0.0652893              -1.7766
       101                         -0.0618395              -1.6827
       ...                                ...                  ...
       171                          1.1072602              30.1301
      -------------------------------------------------------------
                  HL-Gap            0.0422777 Eh            1.1504 eV

     #   Z          covCN         q      C6AA      α(0)
     1   7 N        1.774    -0.270    27.823     7.811
     2   6 C        2.826     0.102    25.743     8.314
     3   6 C        3.908     0.006    20.415     6.422
     4   6 C        2.974     0.002    27.971     8.675
     5   6 C        2.921    -0.080    30.000     8.982
     6   6 C        2.862     0.129    25.174     8.224
     7   8 O        1.706    -0.232    17.843     5.703
     8   6 C        3.644     0.028    20.437     6.498
     9   6 C        2.864     0.128    25.194     8.228
    10   8 O        1.706    -0.230    17.818     5.699
    11   6 C        3.645     0.027    20.448     6.499
    12   6 C        2.914    -0.075    29.869     8.962
    13   6 C        2.921    -0.054    29.332     8.881
    14   6 C        3.812    -0.065    21.730     6.635
    15   6 C        3.802    -0.069    21.813     6.649
    16   6 C        2.843     0.004    27.936     8.662
    17   7 N        2.729     0.010    21.083     6.820
    18   6 C        3.756    -0.019    20.971     6.529
    19   6 C        3.806    -0.068    21.804     6.647
    20   6 C        2.959     0.009    27.824     8.652
    21   6 C        3.815    -0.091    22.230     6.711
    22   6 C        2.905    -0.086    30.165     9.006
    23   6 C        2.855     0.132    25.116     8.214
    24   8 O        1.705    -0.232    17.853     5.705
    25   6 C        3.648     0.025    20.476     6.502
    26   6 C        2.887     0.155    24.639     8.138
    27   8 O        1.705    -0.193    17.228     5.604
    28   6 C        3.661     0.022    20.484     6.493
    29   6 C        1.987    -0.157    35.520     9.625
    30   6 C        3.700    -0.071    22.027     6.712
    31   6 C        3.853    -0.007    20.673     6.467
    32   6 C        3.756    -0.118    22.824     6.812
    33   6 C        3.755    -0.118    22.818     6.811
    34   1 H        0.926     0.051     2.303     2.373
    35   1 H        0.924     0.053     2.282     2.362
    36   1 H        0.925     0.080     1.977     2.199
    37   1 H        0.924     0.047     2.363     2.404
    38   1 H        0.924     0.054     2.265     2.354
    39   1 H        0.925     0.080     1.976     2.198
    40   1 H        0.924     0.047     2.355     2.400
    41   1 H        0.926     0.051     2.303     2.373
    42   1 H        0.926     0.039     2.468     2.457
    43   1 H        0.925     0.059     2.214     2.327
    44   1 H        0.924     0.052     2.293     2.368
    45   1 H        0.925     0.066     2.132     2.283
    46   1 H        0.923     0.077     2.007     2.216
    47   1 H        0.922     0.005     2.965     2.693
    48   1 H        0.926     0.066     2.131     2.283
    49   1 H        0.924     0.078     2.004     2.214
    50   1 H        0.924     0.066     2.129     2.282
    51   1 H        0.924     0.048     2.341     2.393
    52   1 H        0.924     0.065     2.146     2.291
    53   1 H        0.922     0.069     2.095     2.264
    54   1 H        0.926     0.061     2.187     2.313
    55   1 H        0.924     0.050     2.315     2.379
    56   1 H        0.924     0.053     2.277     2.360
    57   1 H        0.925     0.082     1.957     2.188
    58   1 H        0.925     0.083     1.946     2.182
    59   1 H        0.924     0.062     2.171     2.304
    60   1 H        0.924     0.063     2.166     2.302
    61   1 H        0.930     0.121     1.607     1.982
    62   1 H        0.924     0.074     2.044     2.236
    63   1 H        0.924     0.080     1.982     2.202
    64   1 H        0.925     0.081     1.967     2.193
    65   1 H        0.924     0.036     2.499     2.472
    66   1 H        0.925     0.069     2.098     2.265
    67   1 H        0.925     0.035     2.513     2.479
    68   1 H        0.925     0.050     2.319     2.381
    69   1 H        0.925     0.060     2.197     2.318
    70   1 H        0.925     0.034     2.537     2.491
    71   1 H        0.925     0.053     2.278     2.360
    72   1 H        0.860     0.156     1.362     1.828

Wiberg/Mayer (AO) data.
largest (>0.10) Wiberg bond orders for each atom

     #   Z sym  total        # sym  WBO       # sym  WBO       # sym  WBO
 ---------------------------------------------------------------------------
     1   7 N    3.038 --     2 C    1.956    72 H    0.942
     2   6 C    3.929 --     1 N    1.956     3 C    0.995    47 H    0.902
     3   6 C    3.976 --     2 C    0.995     4 C    0.969    14 C    0.957
                            31 C    0.943
     4   6 C    3.951 --    13 C    1.416     5 C    1.367     3 C    0.969
     5   6 C    3.963 --     6 C    1.403     4 C    1.367    34 H    0.958
     6   6 C    3.907 --     5 C    1.403     9 C    1.224     7 O    1.097
     7   8 O    2.253 --     6 C    1.097     8 C    0.978
     8   6 C    3.933 --     7 O    0.978    36 H    0.977    35 H    0.974
                            37 H    0.974
     9   6 C    3.904 --    12 C    1.394     6 C    1.224    10 O    1.099
    10   8 O    2.252 --     9 C    1.099    11 C    0.978
    11   6 C    3.932 --    10 O    0.978    39 H    0.977    40 H    0.974
                            38 H    0.974
    12   6 C    3.964 --    13 C    1.402     9 C    1.394    41 H    0.964
    13   6 C    3.956 --     4 C    1.416    12 C    1.402    42 H    0.963
    14   6 C    3.974 --    15 C    0.983    44 H    0.972    43 H    0.969
                             3 C    0.957
    15   6 C    3.986 --    16 C    1.059    14 C    0.983    45 H    0.961
                            46 H    0.927
    16   6 C    3.577 --    17 N    1.392    15 C    1.059    48 H    0.958
    17   7 N    3.472 --    16 C    1.392    30 C    0.999    18 C    0.990
    18   6 C    3.950 --    17 N    0.990    50 H    0.968    19 C    0.965
                            49 H    0.961
    19   6 C    3.969 --    20 C    1.013    51 H    0.975    18 C    0.965
                            52 H    0.957
    20   6 C    3.821 --    29 C    1.691    19 C    1.013    21 C    0.975
    21   6 C    3.933 --    22 C    1.019    20 C    0.975    61 H    0.938
                            53 H    0.931
    22   6 C    3.862 --    23 C    1.638    21 C    1.019    54 H    0.956
                            24 O    0.118
    23   6 C    3.895 --    22 C    1.638    24 O    1.099    26 C    1.041
    24   8 O    2.260 --    23 C    1.099    25 C    0.972    22 C    0.118
    25   6 C    3.928 --    57 H    0.977    55 H    0.975    56 H    0.974
                            24 O    0.972
    26   6 C    3.754 --    29 C    1.404    27 O    1.166    23 C    1.041
    27   8 O    2.308 --    26 C    1.166    28 C    0.967
    28   6 C    3.920 --    58 H    0.978    60 H    0.973    59 H    0.970
                            27 O    0.967
    29   6 C    3.321 --    20 C    1.691    26 C    1.404
    30   6 C    3.958 --    17 N    0.999    64 H    0.977    62 H    0.966
                            63 H    0.962
    31   6 C    3.974 --    33 C    1.009    32 C    1.008    65 H    0.960
                             3 C    0.943
    32   6 C    3.980 --    31 C    1.008    67 H    0.982    68 H    0.982
                            66 H    0.974
    33   6 C    3.984 --    31 C    1.009    70 H    0.983    71 H    0.981
                            69 H    0.977
    34   1 H    0.996 --     5 C    0.958
    35   1 H    0.994 --     8 C    0.974
    36   1 H    0.993 --     8 C    0.977
    37   1 H    0.994 --     8 C    0.974
    38   1 H    0.993 --    11 C    0.974
    39   1 H    0.993 --    11 C    0.977
    40   1 H    0.994 --    11 C    0.974
    41   1 H    0.996 --    12 C    0.964
    42   1 H    0.998 --    13 C    0.963
    43   1 H    0.995 --    14 C    0.969
    44   1 H    0.996 --    14 C    0.972
    45   1 H    0.995 --    15 C    0.961
    46   1 H    0.969 --    15 C    0.927
    47   1 H    0.987 --     2 C    0.902
    48   1 H    0.995 --    16 C    0.958
    49   1 H    0.990 --    18 C    0.961
    50   1 H    0.994 --    18 C    0.968
    51   1 H    0.997 --    19 C    0.975
    52   1 H    0.990 --    19 C    0.957
    53   1 H    0.983 --    21 C    0.931
    54   1 H    0.991 --    22 C    0.956
    55   1 H    0.995 --    25 C    0.975
    56   1 H    0.995 --    25 C    0.974
    57   1 H    0.992 --    25 C    0.977
    58   1 H    0.992 --    28 C    0.978
    59   1 H    0.993 --    28 C    0.970
    60   1 H    0.991 --    28 C    0.973
    61   1 H    0.973 --    21 C    0.938
    62   1 H    0.984 --    30 C    0.966
    63   1 H    0.988 --    30 C    0.962
    64   1 H    0.993 --    30 C    0.977
    65   1 H    0.993 --    31 C    0.960
    66   1 H    0.991 --    32 C    0.974
    67   1 H    0.997 --    32 C    0.982
    68   1 H    0.994 --    32 C    0.982
    69   1 H    0.994 --    33 C    0.977
    70   1 H    0.997 --    33 C    0.983
    71   1 H    0.994 --    33 C    0.981
    72   1 H    0.971 --     1 N    0.942
 ---------------------------------------------------------------------------

molecular dipole:
                 x           y           z       tot (Debye)
 q only:        1.276      -0.154      -1.116
   full:        1.801      -0.043      -1.477       5.922

           -------------------------------------------------
          | TOTAL ENERGY             -100.728179639118 Eh   |
          | GRADIENT NORM               0.003475709333 Eh/α |
          | HOMO-LUMO GAP               1.150434768173 eV   |
           -------------------------------------------------

 * finished run on 2024/04/06 at 11:17:00.863
