   * xtb version 6.6.1 (8d0f1dd) compiled by 'conda@1efc2f54142f' on 2023-08-01
          program call               : xtb xtbopt.xyz --opt crude --input .xc2 --gfn2

   ID    Z sym.   atoms
    1    7 N      1, 17
    2    6 C      2-6, 8, 9, 11-16, 18-23, 25, 26, 28-33
    3    8 O      7, 10, 24, 27
    4    1 H      34-72
########################################################################
[WARNING] Please study the warnings concerning your input carefully
-1- readin_getIntValue: could not parse ''
########################################################################

          :  Hamiltonian                  GFN2-xTB          :
 * total energy  :   -99.1984063 Eh     change        0.1676881E-11 Eh
 * total energy  :   -99.3083035 Eh     change       -0.1098972E+00 Eh
 * total energy  :   -99.3096450 Eh     change       -0.1341491E-02 Eh
 * total energy  :   -99.3105563 Eh     change       -0.9112750E-03 Eh
 * total energy  :   -99.3106195 Eh     change       -0.6328061E-04 Eh
   *** GEOMETRY OPTIMIZATION CONVERGED AFTER 5 ITERATIONS ***

 final structure:
================
72
 xtb: 6.6.1 (8d0f1dd)
N           -1.87413163336924        2.77843410805344        2.34052202186228
C           -1.81283893560705        2.09104979651378        1.29960744481717
C           -2.94760334680642        1.90427386129284        0.33075871646233
C           -3.43200615438753        0.46301929091417        0.38738981830429
C           -4.35220462737252        0.00579889459156       -0.55831877536541
C           -4.83262930324313       -1.29239285980364       -0.53279226962288
O           -5.72996068466746       -1.80791092035408       -1.39942040749445
C           -6.33526465094789       -0.96105315661675       -2.34765986239377
C           -4.37052426504683       -2.18996041111158        0.46689174594668
O           -4.88068453894407       -3.43707868238898        0.40761635595434
C           -4.53349283230111       -4.36658432016215        1.40705806353899
C           -3.46028016661726       -1.72934811694539        1.40424699625785
C           -3.00071020039272       -0.41845677688114        1.36594831866835
C           -2.36390447535143        2.20813144895866       -1.07403665588770
C           -1.43921981317739        1.11085212656140       -1.62854533726820
C           -0.10359785732738        1.07570040882138       -0.99116922658129
N            0.55068437485262       -0.02495827839745       -0.63396049386726
C            1.95761359994579        0.02866069930899       -0.32158464212644
C            2.81979725417055       -0.41188688274531       -1.52130229829840
C            4.27184988769281       -0.41083012382854       -1.14797734950555
C            5.24040962030809        0.41201810343511       -1.95410593512515
C            6.40691482025569        0.85373599218091       -1.12468381955791
C            6.74904333973895        0.25742384700968        0.04021228497783
O            7.76007610595494        0.58305517868365        0.86576686238241
C            8.56978512894395        1.68875697791759        0.53208705643429
C            6.02904165074285       -0.96892306153516        0.39013533701316
O            6.66000188339872       -1.82247835651963        1.18681341708111
C            6.02978830082264       -3.06780306893971        1.39890411824789
C            4.75556443148923       -1.10867007853330       -0.10877176186828
C           -0.06790299372312       -1.32854279505745       -0.66635252633162
C           -4.16003127126460        2.84046214117043        0.61218122053262
C           -4.83131657252416        2.50369020677272        1.94141763429438
C           -3.79551459071901        4.32210894322268        0.57978190920846
H           -4.70803630270845        0.68124366761592       -1.31830516101733
H           -6.84852792341185       -0.12296918393209       -1.86662390881306
H           -7.06469863655237       -1.57923218725451       -2.86724830892149
H           -5.60707721605824       -0.57931004549080       -3.07089009801241
H           -4.82225458637028       -4.01284059110463        2.40119582631886
H           -5.09013970526426       -5.27115887084230        1.17028128769306
H           -3.46137450467908       -4.58800274646693        1.39487135326567
H           -3.10764583764900       -2.38156524628510        2.18665665133397
H           -2.31701737478811       -0.08859912290505        2.13278955291064
H           -3.18860395544355        2.34119662264207       -1.77327969584367
H           -1.81398173651115        3.14906405196247       -1.03107682288613
H           -1.93904181565086        0.14565314373460       -1.56859720448058
H           -1.28290823357730        1.33845802270330       -2.69164916631544
H           -0.89489034766966        1.57540851674953        0.95432583568592
H            0.45510465185694        1.99946651188818       -0.95547460069403
H            2.17379137578665       -0.62967933005030        0.52330829453800
H            2.22964443802364        1.04782386272239       -0.04075655113167
H            2.63844180114133        0.25572173119242       -2.36496614022015
H            2.52024427044735       -1.42062685298117       -1.81675729340136
H            4.71647051756052        1.29165864057963       -2.33948267858905
H            6.99556739016973        1.65876863363699       -1.53351375494861
H            7.97560021830781        2.60433219257254        0.45551153556687
H            9.10425760763807        1.52063891819955       -0.40733673600250
H            9.28668360511882        1.78589961701776        1.34457489213138
H            6.61206001769826       -3.58389620164746        2.15858661397336
H            5.00057845231325       -2.91940280213522        1.73938719601552
H            6.01415729706922       -3.65718601292394        0.47803412232951
H            5.61064994264761       -0.13635414206997       -2.83066134073462
H           -0.23922033780239       -1.66418648743479       -1.69174018563121
H           -1.02519080262880       -1.30735139524639       -0.14055330597147
H            0.58425906067687       -2.04405490139095       -0.17143614523739
H           -4.88636656193209        2.65461128469122       -0.18731381027772
H           -4.14925980499722        2.69873257191470        2.76252774253545
H           -5.13558059418029        1.46039084248288        1.97493825377504
H           -5.71555135215353        3.12253073163449        2.06957884060490
H           -3.06066092076145        4.54668835107048        1.34659976568538
H           -3.40735858623778        4.62435433185834       -0.38934958046166
H           -4.68605522117366        4.91220680489933        0.77973221967707
H           -1.03630417578624        2.85541245530183        2.90871938746159

          :  Hamiltonian                  GFN2-xTB          :
         :: total energy             -99.310619541386 Eh    ::
         :: gradient norm              0.002041549850 Eh/a0 ::
         :: HOMO-LUMO gap              1.134040930074 eV    ::
         :: SCC energy              -100.668617095149 Eh    ::
         :: -> dispersion             -0.074422800502 Eh    ::
         :: repulsion energy           1.356626064286 Eh    ::

    * Orbital Energies and Occupations

         #    Occupation            Energy/Eh            Energy/eV
      -------------------------------------------------------------
         1        2.0000           -0.8162257             -22.2106
       ...           ...                  ...                  ...
        78        1.9991           -0.5337431             -14.5239
        79        1.9984           -0.5254855             -14.2992
        80        1.9984           -0.5250275             -14.2867
        81        1.9977           -0.5192683             -14.1300
        82        1.9962           -0.5117265             -13.9248
        83        1.9955           -0.5090595             -13.8522
        84        1.9947           -0.5063984             -13.7798
        85        1.9897           -0.4957100             -13.4890
        86        1.9821           -0.4869927             -13.2517
        87        1.9606           -0.4742885             -12.9060
        88        1.9411           -0.4677591             -12.7284
        89        1.8808           -0.4560997             -12.4111
        90        1.5772           -0.4332630             -11.7897 (HOMO)
        91        0.4231           -0.3915877             -10.6556 (LUMO)
        92        0.2483           -0.3814818             -10.3806
        93        0.0151           -0.3351610              -9.1202
        94        0.0037           -0.3130017              -8.5172
        95        0.0031           -0.3098677              -8.4319
        96        0.0014           -0.2973112              -8.0903
        97        0.0000           -0.2263104              -6.1582
        98        0.0000           -0.1871800              -5.0934
        99                         -0.1328156              -3.6141
       100                         -0.0651158              -1.7719
       101                         -0.0614679              -1.6726
       ...                                ...                  ...
       171                          0.5761506              15.6779
      -------------------------------------------------------------
                  HL-Gap            0.0416752 Eh            1.1340 eV

     #   Z          covCN         q      C6AA      α(0)
     1   7 N        1.774    -0.270    27.820     7.811
     2   6 C        2.827     0.101    25.744     8.314
     3   6 C        3.908     0.006    20.415     6.422
     4   6 C        2.974     0.002    27.972     8.675
     5   6 C        2.921    -0.080    30.001     8.982
     6   6 C        2.862     0.129    25.174     8.224
     7   8 O        1.706    -0.232    17.842     5.703
     8   6 C        3.644     0.028    20.437     6.498
     9   6 C        2.864     0.128    25.194     8.228
    10   8 O        1.706    -0.230    17.817     5.699
    11   6 C        3.645     0.027    20.448     6.499
    12   6 C        2.914    -0.075    29.869     8.962
    13   6 C        2.921    -0.054    29.332     8.881
    14   6 C        3.812    -0.065    21.729     6.635
    15   6 C        3.802    -0.069    21.812     6.649
    16   6 C        2.843     0.004    27.931     8.661
    17   7 N        2.729     0.010    21.082     6.819
    18   6 C        3.756    -0.019    20.964     6.528
    19   6 C        3.806    -0.068    21.804     6.647
    20   6 C        2.960     0.013    27.729     8.637
    21   6 C        3.815    -0.065    21.734     6.635
    22   6 C        2.906    -0.082    30.044     8.988
    23   6 C        2.855     0.132    25.109     8.213
    24   8 O        1.705    -0.232    17.851     5.704
    25   6 C        3.648     0.025    20.473     6.501
    26   6 C        2.887     0.155    24.642     8.138
    27   8 O        1.705    -0.193    17.226     5.604
    28   6 C        3.663     0.021    20.482     6.492
    29   6 C        1.988    -0.158    35.541     9.628
    30   6 C        3.700    -0.071    22.031     6.713
    31   6 C        3.853    -0.007    20.673     6.467
    32   6 C        3.756    -0.118    22.823     6.812
    33   6 C        3.755    -0.118    22.817     6.811
    34   1 H        0.926     0.051     2.303     2.373
    35   1 H        0.924     0.053     2.282     2.362
    36   1 H        0.925     0.080     1.976     2.198
    37   1 H        0.924     0.047     2.364     2.404
    38   1 H        0.924     0.054     2.265     2.354
    39   1 H        0.925     0.080     1.976     2.198
    40   1 H        0.924     0.047     2.354     2.399
    41   1 H        0.926     0.051     2.303     2.373
    42   1 H        0.926     0.038     2.469     2.457
    43   1 H        0.925     0.059     2.213     2.326
    44   1 H        0.924     0.052     2.292     2.368
    45   1 H        0.925     0.066     2.133     2.284
    46   1 H        0.923     0.077     2.008     2.216
    47   1 H        0.922     0.006     2.962     2.691
    48   1 H        0.926     0.066     2.129     2.282
    49   1 H        0.924     0.077     2.005     2.215
    50   1 H        0.924     0.066     2.131     2.283
    51   1 H        0.924     0.048     2.342     2.393
    52   1 H        0.924     0.065     2.143     2.289
    53   1 H        0.924     0.072     2.067     2.249
    54   1 H        0.926     0.062     2.181     2.309
    55   1 H        0.924     0.051     2.313     2.379
    56   1 H        0.924     0.054     2.276     2.359
    57   1 H        0.925     0.082     1.958     2.188
    58   1 H        0.925     0.083     1.946     2.182
    59   1 H        0.924     0.063     2.166     2.302
    60   1 H        0.924     0.063     2.166     2.301
    61   1 H        0.923     0.081     1.972     2.196
    62   1 H        0.924     0.074     2.041     2.234
    63   1 H        0.924     0.080     1.981     2.201
    64   1 H        0.925     0.081     1.965     2.192
    65   1 H        0.924     0.036     2.499     2.472
    66   1 H        0.925     0.069     2.099     2.266
    67   1 H        0.925     0.035     2.513     2.479
    68   1 H        0.925     0.050     2.318     2.381
    69   1 H        0.925     0.060     2.198     2.318
    70   1 H        0.925     0.034     2.537     2.491
    71   1 H        0.925     0.053     2.277     2.360
    72   1 H        0.860     0.156     1.361     1.828

Wiberg/Mayer (AO) data.
largest (>0.10) Wiberg bond orders for each atom

     #   Z sym  total        # sym  WBO       # sym  WBO       # sym  WBO
 ---------------------------------------------------------------------------
     1   7 N    3.039 --     2 C    1.956    72 H    0.942
     2   6 C    3.928 --     1 N    1.956     3 C    0.995    47 H    0.901
     3   6 C    3.976 --     2 C    0.995     4 C    0.969    14 C    0.957
                            31 C    0.943
     4   6 C    3.951 --    13 C    1.416     5 C    1.367     3 C    0.969
     5   6 C    3.963 --     6 C    1.403     4 C    1.367    34 H    0.958
     6   6 C    3.907 --     5 C    1.403     9 C    1.224     7 O    1.097
     7   8 O    2.253 --     6 C    1.097     8 C    0.978
     8   6 C    3.933 --     7 O    0.978    36 H    0.977    35 H    0.974
                            37 H    0.974
     9   6 C    3.904 --    12 C    1.394     6 C    1.224    10 O    1.099
    10   8 O    2.252 --     9 C    1.099    11 C    0.978
    11   6 C    3.932 --    10 O    0.978    39 H    0.977    40 H    0.974
                            38 H    0.974
    12   6 C    3.964 --    13 C    1.402     9 C    1.394    41 H    0.964
    13   6 C    3.956 --     4 C    1.416    12 C    1.402    42 H    0.963
    14   6 C    3.974 --    15 C    0.983    44 H    0.972    43 H    0.969
                             3 C    0.957
    15   6 C    3.986 --    16 C    1.058    14 C    0.983    45 H    0.961
                            46 H    0.927
    16   6 C    3.579 --    17 N    1.393    15 C    1.058    48 H    0.958
    17   7 N    3.472 --    16 C    1.393    30 C    0.999    18 C    0.991
    18   6 C    3.950 --    17 N    0.991    50 H    0.968    19 C    0.965
                            49 H    0.961
    19   6 C    3.969 --    20 C    1.013    51 H    0.975    18 C    0.965
                            52 H    0.958
    20   6 C    3.816 --    29 C    1.675    19 C    1.013    21 C    0.990
    21   6 C    3.943 --    22 C    1.035    20 C    0.990    53 H    0.939
                            61 H    0.917
    22   6 C    3.861 --    23 C    1.626    21 C    1.035    54 H    0.956
                            24 O    0.116
    23   6 C    3.895 --    22 C    1.626    24 O    1.099    26 C    1.049
    24   8 O    2.259 --    23 C    1.099    25 C    0.972    22 C    0.116
    25   6 C    3.928 --    57 H    0.977    55 H    0.975    56 H    0.974
                            24 O    0.972
    26   6 C    3.751 --    29 C    1.394    27 O    1.165    23 C    1.049
    27   8 O    2.307 --    26 C    1.165    28 C    0.967
    28   6 C    3.920 --    58 H    0.978    60 H    0.972    59 H    0.970
                            27 O    0.967
    29   6 C    3.296 --    20 C    1.675    26 C    1.394
    30   6 C    3.958 --    17 N    0.999    64 H    0.977    62 H    0.966
                            63 H    0.962
    31   6 C    3.974 --    33 C    1.009    32 C    1.008    65 H    0.960
                             3 C    0.943
    32   6 C    3.980 --    31 C    1.008    67 H    0.982    68 H    0.982
                            66 H    0.975
    33   6 C    3.984 --    31 C    1.009    70 H    0.983    71 H    0.981
                            69 H    0.977
    34   1 H    0.996 --     5 C    0.958
    35   1 H    0.994 --     8 C    0.974
    36   1 H    0.993 --     8 C    0.977
    37   1 H    0.994 --     8 C    0.974
    38   1 H    0.993 --    11 C    0.974
    39   1 H    0.993 --    11 C    0.977
    40   1 H    0.994 --    11 C    0.974
    41   1 H    0.996 --    12 C    0.964
    42   1 H    0.998 --    13 C    0.963
    43   1 H    0.995 --    14 C    0.969
    44   1 H    0.996 --    14 C    0.972
    45   1 H    0.995 --    15 C    0.961
    46   1 H    0.969 --    15 C    0.927
    47   1 H    0.987 --     2 C    0.901
    48   1 H    0.995 --    16 C    0.958
    49   1 H    0.990 --    18 C    0.961
    50   1 H    0.994 --    18 C    0.968
    51   1 H    0.997 --    19 C    0.975
    52   1 H    0.990 --    19 C    0.958
    53   1 H    0.983 --    21 C    0.939
    54   1 H    0.990 --    22 C    0.956
    55   1 H    0.995 --    25 C    0.975
    56   1 H    0.995 --    25 C    0.974
    57   1 H    0.992 --    25 C    0.977
    58   1 H    0.992 --    28 C    0.978
    59   1 H    0.993 --    28 C    0.970
    60   1 H    0.991 --    28 C    0.972
    61   1 H    0.966 --    21 C    0.917
    62   1 H    0.985 --    30 C    0.966
    63   1 H    0.987 --    30 C    0.962
    64   1 H    0.993 --    30 C    0.977
    65   1 H    0.993 --    31 C    0.960
    66   1 H    0.991 --    32 C    0.975
    67   1 H    0.997 --    32 C    0.982
    68   1 H    0.994 --    32 C    0.982
    69   1 H    0.994 --    33 C    0.977
    70   1 H    0.997 --    33 C    0.983
    71   1 H    0.994 --    33 C    0.981
    72   1 H    0.971 --     1 N    0.942
 ---------------------------------------------------------------------------

molecular dipole:
                 x           y           z       tot (Debye)
 q only:        1.256      -0.141      -1.091
   full:        1.790      -0.025      -1.488       5.918

           -------------------------------------------------
          | TOTAL ENERGY              -99.310619541386 Eh   |
          | GRADIENT NORM               0.002041549850 Eh/α |
          | HOMO-LUMO GAP               1.134040930074 eV   |
           -------------------------------------------------

 * finished run on 2024/04/06 at 11:17:01.994
