   * xtb version 6.6.1 (8d0f1dd) compiled by 'conda@1efc2f54142f' on 2023-08-01
          program call               : xtb xtbopt.xyz --opt crude --input .xc2 --gfn2

   ID    Z sym.   atoms
    1    6 C      1, 3, 5-7, 10, 11, 14
    2    7 N      2, 4, 9, 13
    3    8 O      8, 12
    4    1 H      15-25
########################################################################
[WARNING] Please study the warnings concerning your input carefully
-1- readin_getIntValue: could not parse ''
########################################################################

          :  Hamiltonian                  GFN2-xTB          :
 * total energy  :   -39.8327430 Eh     change       -0.7744916E-12 Eh
 * total energy  :   -42.1080328 Eh     change       -0.2275290E+01 Eh
 * total energy  :   -42.1177536 Eh     change       -0.9720756E-02 Eh
 * total energy  :   -42.1227843 Eh     change       -0.5030715E-02 Eh
 * total energy  :   -42.1256746 Eh     change       -0.2890305E-02 Eh
 * total energy  :   -42.1264438 Eh     change       -0.7691639E-03 Eh
 * total energy  :   -42.1277590 Eh     change       -0.1315220E-02 Eh
 * total energy  :   -42.1288041 Eh     change       -0.1045159E-02 Eh
 * total energy  :   -42.1295245 Eh     change       -0.7203164E-03 Eh
 * total energy  :   -42.1299918 Eh     change       -0.4673299E-03 Eh
   *** GEOMETRY OPTIMIZATION CONVERGED AFTER 10 ITERATIONS ***

 final structure:
================
25
 xtb: 6.6.1 (8d0f1dd)
C            3.28767743661515        1.01356966538180        0.21866386370806
N            2.40445529687312        0.01906701769644        0.14877083798554
C            2.62368287982684       -1.30061960170382        0.38891646584321
N            1.45855992059380       -1.97860698707877        0.28768380850705
C            0.46989248374727       -1.08289530457701       -0.03248984348590
C            1.06157090363948        0.15089653626813       -0.13980161084015
C            0.28411509062809        1.41294747169863       -0.43426975691533
O            0.71609302579385        2.48517063531123        0.12404527565712
N           -1.14864712724147        1.06314645694780       -0.09461171939958
C           -2.00936486524600        2.20059082838419        0.10228295691620
C           -1.72572431069437       -0.16815578425218       -0.11412600762676
O           -2.91605848747717       -0.34126316932685       -0.05599766964287
N           -0.85793043049404       -1.29438743019079       -0.15682617683371
C           -1.43736058524733       -2.61905988600599       -0.16519893887777
H            4.31284645172445        0.79809740190667        0.45232437130757
H            0.25318722114247        1.51909715163460       -1.55848439816581
H            2.92221828247568        2.01849053390284        0.08335231963131
H            3.57593554562777       -1.73419402121237        0.61810342132665
H           -1.39614048692178        3.01029413036459        0.50115477427683
H           -2.45832679503946        2.52382333284405       -0.84201264666370
H           -2.81177389704383        1.93869865432536        0.79025908493869
H           -1.30113581166927       -3.11814627150437        0.79663178085765
H           -0.99693404015897       -3.21807582052897       -0.96269995318178
H           -2.50637074482644       -2.50587263634599       -0.34603232359652
H            1.35596455747229       -2.97437436234201        0.42153370217944

          :  Hamiltonian                  GFN2-xTB          :
         :: total energy             -42.129991793281 Eh    ::
         :: gradient norm              0.009961335449 Eh/a0 ::
         :: HOMO-LUMO gap              0.306899995679 eV    ::
         :: SCC energy               -42.632460397075 Eh    ::
         :: -> dispersion             -0.022873376922 Eh    ::
         :: repulsion energy           0.502318981956 Eh    ::

    * Orbital Energies and Occupations

         #    Occupation            Energy/Eh            Energy/eV
      -------------------------------------------------------------
         1        2.0000           -0.9152861             -24.9062
       ...           ...                  ...                  ...
        25        1.9999           -0.6715695             -18.2743
        26        1.9998           -0.6638077             -18.0631
        27        1.9998           -0.6569690             -17.8770
        28        1.9993           -0.6408146             -17.4375
        29        1.9990           -0.6342232             -17.2581
        30        1.9984           -0.6267517             -17.0548
        31        1.9976           -0.6204272             -16.8827
        32        1.9918           -0.6010317             -16.3549
        33        1.9725           -0.5817840             -15.8311
        34        1.9039           -0.5614185             -15.2770
        35        1.8618           -0.5553098             -15.1107
        36        1.7955           -0.5485319             -14.9263
        37        1.4050           -0.5277384             -14.3605 (HOMO)
        38        1.0733           -0.5164601             -14.0536 (LUMO)
        39        0.0023           -0.4071084             -11.0780
        40        0.0004           -0.3800321             -10.3412
        41        0.0000           -0.3372163              -9.1761
        42                         -0.2103914              -5.7250
        43                         -0.1985649              -5.4032
        44                         -0.1626848              -4.4269
        45                         -0.1433070              -3.8996
        46                         -0.0904941              -2.4625
        47                         -0.0676547              -1.8410
        48                         -0.0426593              -1.1608
       ...                                ...                  ...
        67                          0.5093639              13.8605
      -------------------------------------------------------------
                  HL-Gap            0.0112784 Eh            0.3069 eV

     #   Z          covCN         q      C6AA      α(0)
     1   6 C        2.790    -0.056    29.386     8.880
     2   7 N        2.819     0.130    19.028     6.479
     3   6 C        3.041     0.032    27.245     8.561
     4   7 N        2.786    -0.054    22.290     7.012
     5   6 C        3.021     0.112    25.502     8.284
     6   6 C        3.109    -0.020    28.359     8.725
     7   6 C        3.660     0.219    17.425     5.990
     8   8 O        0.856    -0.416    21.996     6.288
     9   7 N        2.733    -0.100    23.196     7.153
    10   6 C        3.704    -0.058    21.774     6.672
    11   6 C        2.721     0.317    21.613     7.610
    12   8 O        0.860    -0.351    20.732     6.105
    13   7 N        2.738    -0.060    22.399     7.029
    14   6 C        3.695    -0.071    22.038     6.716
    15   1 H        0.926     0.119     1.625     1.993
    16   1 H        0.918     0.099     1.796     2.096
    17   1 H        0.926     0.153     1.374     1.833
    18   1 H        0.926     0.128     1.554     1.949
    19   1 H        0.924     0.125     1.571     1.960
    20   1 H        0.924     0.107     1.720     2.051
    21   1 H        0.925     0.113     1.672     2.022
    22   1 H        0.924     0.087     1.910     2.161
    23   1 H        0.924     0.086     1.922     2.168
    24   1 H        0.925     0.129     1.543     1.943
    25   1 H        0.860     0.232     0.956     1.531

Wiberg/Mayer (AO) data.
largest (>0.10) Wiberg bond orders for each atom

     #   Z sym  total        # sym  WBO       # sym  WBO       # sym  WBO
 ---------------------------------------------------------------------------
     1   6 C    3.328 --     2 N    1.314    15 H    0.964    17 H    0.948
     2   7 N    3.763 --     1 C    1.314     3 C    1.225     6 C    1.124
     3   6 C    3.643 --     4 N    1.282     2 N    1.225    18 H    0.953
     4   7 N    3.520 --     3 C    1.282     5 C    1.162    25 H    0.918
     5   6 C    3.927 --     6 C    1.411    13 N    1.190     4 N    1.162
     6   6 C    3.748 --     5 C    1.411     2 N    1.124     7 C    0.937
     7   6 C    3.932 --     8 O    1.256     6 C    0.937     9 N    0.860
                            16 H    0.818
     8   8 O    1.417 --     7 C    1.256
     9   7 N    3.319 --    11 C    1.194    10 C    1.002     7 C    0.860
                            12 O    0.138
    10   6 C    3.871 --     9 N    1.002    21 H    0.952    19 H    0.947
                            20 H    0.928
    11   6 C    3.952 --    12 O    1.667     9 N    1.194    13 N    1.007
    12   8 O    1.983 --    11 C    1.667     9 N    0.138    13 N    0.102
    13   7 N    3.442 --     5 C    1.190    11 C    1.007    14 C    0.982
                            12 O    0.102
    14   6 C    3.914 --    13 N    0.982    23 H    0.967    24 H    0.961
                            22 H    0.961
    15   1 H    0.984 --     1 C    0.964
    16   1 H    0.842 --     7 C    0.818
    17   1 H    0.975 --     1 C    0.948
    18   1 H    0.983 --     3 C    0.953
    19   1 H    0.970 --    10 C    0.947
    20   1 H    0.943 --    10 C    0.928
    21   1 H    0.968 --    10 C    0.952
    22   1 H    0.977 --    14 C    0.961
    23   1 H    0.981 --    14 C    0.967
    24   1 H    0.982 --    14 C    0.961
    25   1 H    0.945 --     4 N    0.918
 ---------------------------------------------------------------------------

molecular dipole:
                 x           y           z       tot (Debye)
 q only:        2.391      -2.084      -0.081
   full:        2.625      -2.531      -0.194       9.283

           -------------------------------------------------
          | TOTAL ENERGY              -42.129991793281 Eh   |
          | GRADIENT NORM               0.009961335449 Eh/α |
          | HOMO-LUMO GAP               0.306899995679 eV   |
           -------------------------------------------------

 * finished run on 2024/06/05 at 20:00:25.227
