   * xtb version 6.6.1 (8d0f1dd) compiled by 'conda@1efc2f54142f' on 2023-08-01
          program call               : xtb struc.xyz --opt loose --input .xc1 --gfn2

   ID    Z sym.   atoms
    1    6 C      1, 3, 5-7, 10, 11, 14
    2    7 N      2, 4, 9, 13
    3    8 O      8, 12
    4    1 H      15-25
constraining bond 6 16 to    5.1400000 Å, actual value:    3.2546852 Å

          :  Hamiltonian                  GFN2-xTB          :
 * total energy  :   -35.9013423 Eh     change       -0.6650680E-10 Eh
 * total energy  :   -38.8943421 Eh     change       -0.2993000E+01 Eh
 * total energy  :   -40.8504500 Eh     change       -0.1956108E+01 Eh
 * total energy  :   -41.7020611 Eh     change       -0.8516111E+00 Eh
 * total energy  :   -41.8904770 Eh     change       -0.1884158E+00 Eh
 * total energy  :   -41.9201736 Eh     change       -0.2969659E-01 Eh
 * total energy  :   -41.9382843 Eh     change       -0.1811076E-01 Eh
 * total energy  :   -41.9733019 Eh     change       -0.3501758E-01 Eh
 * total energy  :   -41.9854877 Eh     change       -0.1218578E-01 Eh
 * total energy  :   -41.9955299 Eh     change       -0.1004227E-01 Eh
 * total energy  :   -42.1088719 Eh     change       -0.1932406E-03 Eh
 * total energy  :   -42.1090417 Eh     change       -0.1697331E-03 Eh
 * total energy  :   -42.1091689 Eh     change       -0.1271846E-03 Eh
 * total energy  :   -42.1092574 Eh     change       -0.8854768E-04 Eh
 * total energy  :   -42.1093552 Eh     change       -0.9777240E-04 Eh
 * total energy  :   -42.1094279 Eh     change       -0.7275877E-04 Eh
 * total energy  :   -42.1095055 Eh     change       -0.7757474E-04 Eh
 * total energy  :   -42.1095496 Eh     change       -0.4404876E-04 Eh
 * total energy  :   -42.1095805 Eh     change       -0.3097348E-04 Eh
   *** GEOMETRY OPTIMIZATION CONVERGED AFTER 41 ITERATIONS ***

 final structure:
================
25
 xtb: 6.6.1 (8d0f1dd)
C            3.02395429623864        1.17274918829216       -0.01531032542062
N            2.18254859077821        0.14671576032721       -0.01069960229835
C            2.47792679540478       -1.17480212340626       -0.02219983730383
N            1.32966335337265       -1.90609902921838       -0.01150636794728
C            0.27680629906484       -1.04577194849463        0.00609182761775
C            0.78886807276915        0.24045796773073        0.00721601097487
C           -0.06141143623044        1.40789076331841        0.01447544123507
O            0.31080996329746        2.55647766501922        0.02094769029072
N           -1.41094744888736        1.04650185633099        0.00984846881773
C           -2.39197129651391        2.12205268073729        0.01218804590548
C           -1.94789168830958       -0.22660667927645        0.02080196970298
O           -3.12978698211085       -0.42680098837507        0.03119684268241
N           -1.03905101795196       -1.30942225429176        0.01593058234468
C           -1.55916225174586       -2.66120983434593        0.03693702787998
H            4.10595635718157        1.00790936550178       -0.03991942213474
H            5.86392692974332        1.03050123179153       -0.14908411744757
H            2.61532951779261        2.16818346738983       -0.00757387380547
H            3.46518483014275       -1.58911372816154       -0.03722289219679
H           -1.85751912472652        3.06863583432596        0.01642996780676
H           -3.02468415471046        2.04761167909594       -0.87248974014378
H           -3.02794210188223        2.04101990761445        0.89374743616813
H           -1.23881428722274       -3.17984367838796        0.94080926937504
H           -1.23420030495270       -3.21033509457165       -0.84691951843822
H           -2.64677430394373       -2.59366124086002        0.03309241124985
H            1.28961290750216       -2.91480222648623       -0.01561567701515

          :  Hamiltonian                  GFN2-xTB          :
         :: total energy             -42.109580540326 Eh    ::
         :: gradient norm              0.001841901620 Eh/a0 ::
         :: HOMO-LUMO gap              0.209458529033 eV    ::
         :: SCC energy               -42.630103958201 Eh    ::
         :: -> dispersion             -0.022826245966 Eh    ::
         :: repulsion energy           0.520449334856 Eh    ::

    * Orbital Energies and Occupations

         #    Occupation            Energy/Eh            Energy/eV
      -------------------------------------------------------------
         1        2.0000           -0.9133252             -24.8528
       ...           ...                  ...                  ...
        25        1.9999           -0.6703125             -18.2401
        26        1.9999           -0.6699618             -18.2306
        27        1.9999           -0.6608852             -17.9836
        28        1.9995           -0.6402022             -17.4208
        29        1.9993           -0.6345306             -17.2665
        30        1.9991           -0.6288937             -17.1131
        31        1.9985           -0.6215190             -16.9124
        32        1.9950           -0.6022946             -16.3893
        33        1.9839           -0.5837566             -15.8848
        34        1.9541           -0.5669120             -15.4265
        35        1.9472           -0.5646401             -15.3646
        36        1.9416           -0.5629846             -15.3196
        37        1.2068           -0.5141552             -13.9909 (HOMO)
        38        0.9668           -0.5064577             -13.7814 (LUMO)
        39        0.0053           -0.4135963             -11.2545
        40        0.0029           -0.4041132             -10.9965
        41        0.0004           -0.3711047             -10.0983
        42        0.0000           -0.2891190              -7.8673
        43                         -0.2096981              -5.7062
        44                         -0.1890371              -5.1440
        45                         -0.1470920              -4.0026
        46                         -0.1180172              -3.2114
        47                         -0.0856072              -2.3295
        48                         -0.0531194              -1.4455
       ...                                ...                  ...
        67                          0.5526853              15.0393
      -------------------------------------------------------------
                  HL-Gap            0.0076975 Eh            0.2095 eV

     #   Z          covCN         q      C6AA      α(0)
     1   6 C        2.787    -0.065    29.591     8.910
     2   7 N        2.807     0.131    19.008     6.475
     3   6 C        3.034     0.026    27.383     8.583
     4   7 N        2.779    -0.057    22.350     7.021
     5   6 C        3.020     0.120    25.334     8.256
     6   6 C        3.106    -0.038    28.800     8.793
     7   6 C        2.764     0.275    22.350     7.742
     8   8 O        0.858    -0.354    20.784     6.112
     9   7 N        2.746    -0.080    22.786     7.090
    10   6 C        3.710    -0.063    21.846     6.680
    11   6 C        2.728     0.318    21.593     7.607
    12   8 O        0.860    -0.348    20.667     6.095
    13   7 N        2.739    -0.052    22.248     7.005
    14   6 C        3.697    -0.073    22.081     6.722
    15   1 H        0.924     0.118     1.632     1.998
    16   1 H        0.000     0.019     6.848     4.785
    17   1 H        0.926     0.143     1.443     1.878
    18   1 H        0.926     0.122     1.595     1.975
    19   1 H        0.925     0.117     1.636     2.000
    20   1 H        0.925     0.104     1.746     2.067
    21   1 H        0.925     0.105     1.743     2.065
    22   1 H        0.924     0.087     1.913     2.163
    23   1 H        0.925     0.086     1.918     2.166
    24   1 H        0.925     0.130     1.537     1.939
    25   1 H        0.860     0.229     0.970     1.543

Wiberg/Mayer (AO) data.
largest (>0.10) Wiberg bond orders for each atom

     #   Z sym  total        # sym  WBO       # sym  WBO       # sym  WBO
 ---------------------------------------------------------------------------
     1   6 C    3.337 --     2 N    1.339    17 H    0.951    15 H    0.903
     2   7 N    3.764 --     1 C    1.339     3 C    1.245     6 C    1.083
     3   6 C    3.636 --     2 N    1.245     4 N    1.242    18 H    0.955
     4   7 N    3.526 --     3 C    1.242     5 C    1.193    25 H    0.919
     5   6 C    3.938 --     6 C    1.350    13 N    1.219     4 N    1.193
     6   6 C    3.839 --     5 C    1.350     7 C    1.085     2 N    1.083
     7   6 C    3.959 --     8 O    1.687     9 N    1.092     6 C    1.085
     8   8 O    2.020 --     7 C    1.687     9 N    0.138
     9   7 N    3.530 --    11 C    1.127     7 C    1.092    10 C    0.972
                             8 O    0.138    12 O    0.133
    10   6 C    3.896 --     9 N    0.972    19 H    0.965    20 H    0.957
                            21 H    0.957
    11   6 C    3.958 --    12 O    1.707     9 N    1.127    13 N    1.034
    12   8 O    2.046 --    11 C    1.707     9 N    0.133    13 N    0.117
    13   7 N    3.531 --     5 C    1.219    11 C    1.034    14 C    0.975
                            12 O    0.117
    14   6 C    3.918 --    13 N    0.975    23 H    0.968    22 H    0.967
                            24 H    0.962
    15   1 H    0.985 --     1 C    0.903
    16   1 H    0.070
    17   1 H    0.976 --     1 C    0.951
    18   1 H    0.984 --     3 C    0.955
    19   1 H    0.983 --    10 C    0.965
    20   1 H    0.976 --    10 C    0.957
    21   1 H    0.976 --    10 C    0.957
    22   1 H    0.986 --    14 C    0.967
    23   1 H    0.986 --    14 C    0.968
    24   1 H    0.982 --    14 C    0.962
    25   1 H    0.947 --     4 N    0.919
 ---------------------------------------------------------------------------

molecular dipole:
                 x           y           z       tot (Debye)
 q only:        2.145      -1.932      -0.023
   full:        2.437      -2.390      -0.027       8.677

           -------------------------------------------------
          | TOTAL ENERGY              -42.109580540326 Eh   |
          | GRADIENT NORM               0.001841901620 Eh/α |
          | HOMO-LUMO GAP               0.209458529033 eV   |
           -------------------------------------------------

 * finished run on 2024/06/05 at 20:00:11.418
