   * xtb version 6.6.1 (8d0f1dd) compiled by 'conda@1efc2f54142f' on 2023-08-01
          program call               : xtb struc.xyz --opt loose --input .xc1 --gfn2

   ID    Z sym.   atoms
    1    7 N      1, 17
    2    6 C      2-6, 8, 9, 11-16, 18-23, 25, 26, 28-33
    3    8 O      7, 10, 24, 27
    4    1 H      34-72
constraining bond 65 67 to    4.2800000 Å, actual value:    2.4809785 Å

          :  Hamiltonian                  GFN2-xTB          :
 * total energy  :   -98.8262473 Eh     change       -0.4035485E-08 Eh
 * total energy  :   -99.0881135 Eh     change       -0.2618662E+00 Eh
 * total energy  :   -99.2281232 Eh     change       -0.1400097E+00 Eh
 * total energy  :   -99.2668700 Eh     change       -0.3874681E-01 Eh
 * total energy  :   -99.2725992 Eh     change       -0.5729169E-02 Eh
 * total energy  :   -99.2749371 Eh     change       -0.2337939E-02 Eh
 * total energy  :   -99.2779365 Eh     change       -0.2999435E-02 Eh
 * total energy  :   -99.2802383 Eh     change       -0.2301787E-02 Eh
 * total energy  :   -99.2815712 Eh     change       -0.1332900E-02 Eh
 * total energy  :   -99.2823127 Eh     change       -0.7415081E-03 Eh
 * total energy  :   -99.3051528 Eh     change       -0.1000486E-02 Eh
 * total energy  :   -99.3057732 Eh     change       -0.6204604E-03 Eh
 * total energy  :   -99.3059022 Eh     change       -0.1289664E-03 Eh
 * total energy  :   -99.3061149 Eh     change       -0.2127207E-03 Eh
 * total energy  :   -99.3063723 Eh     change       -0.2573723E-03 Eh
 * total energy  :   -99.3064747 Eh     change       -0.1024729E-03 Eh
 * total energy  :   -99.3065689 Eh     change       -0.9411580E-04 Eh
 * total energy  :   -99.3066502 Eh     change       -0.8129393E-04 Eh
 * total energy  :   -99.3066911 Eh     change       -0.4094549E-04 Eh
   *** GEOMETRY OPTIMIZATION CONVERGED AFTER 34 ITERATIONS ***

 final structure:
================
72
 xtb: 6.6.1 (8d0f1dd)
N           -1.86648627683358        2.72928591764608        2.21741947538060
C           -1.83185620999027        2.09813087648534        1.14134943150109
C           -2.99478128004737        1.92165269190560        0.20144967425994
C           -3.50415426427507        0.48851098039405        0.30015484507945
C           -4.47489706489984        0.03375309412786       -0.59381899577986
C           -4.96065551573459       -1.26199921064314       -0.53887982105826
O           -5.89876161724407       -1.77881701796319       -1.35856008628375
C           -6.51627350226530       -0.94767184368423       -2.31325145797432
C           -4.45630787926474       -2.15704341262643        0.44325987035803
O           -4.97644078207753       -3.40097739848350        0.41956146631879
C           -4.56857624920842       -4.32974030677543        1.39668964422695
C           -3.49798429221020       -1.69742403117697        1.33162575443918
C           -3.02939996338614       -0.39143594944763        1.25988070290685
C           -2.43148039330167        2.15933953733263       -1.22583719397628
C           -1.48760103093756        1.05342651869243       -1.73143463241177
C           -0.15386042406151        1.06296179147466       -1.08794285695082
N            0.51790297542861       -0.01452280875158       -0.69526070434086
C            1.89765921028603        0.09431459242261       -0.28333162649641
C            2.86679293165023       -0.36047674597549       -1.39113039472251
C            4.28433466066511       -0.14646513884686       -0.93961879575992
C            4.91764563028373        1.06650118776918       -1.15475570235148
C            6.21313602745435        1.27926766502185       -0.70986151062496
C            6.90117092896012        0.28180081139948       -0.03387873860124
O            8.15785507732244        0.37833491916817        0.43886568263560
C            8.88116041098803        1.56912052704649        0.22726870567609
C            6.25750571602059       -0.96548418578969        0.19577105725026
O            6.99523587828177       -1.88071339560084        0.85596442651251
C            6.45090585523410       -3.15534186657411        1.10165531592297
C            4.96136646720736       -1.15420370512689       -0.25726409791919
C           -0.06805310741537       -1.33337527334317       -0.71496955700152
C           -4.17049809949442        2.89572656024926        0.50596274861906
C           -4.80065201877474        2.49470085965896        1.98374866610086
C           -3.74546724875131        4.35442654668354        0.61046154268935
H           -4.87265465771349        0.71167490977868       -1.32970193111889
H           -7.02090461417550       -0.09966715663562       -1.84063745465964
H           -7.25428675862711       -1.57419572932299       -2.81056571278591
H           -5.79747899241596       -0.58151706928318       -3.05364839110328
H           -4.80393288317617       -3.97921356604974        2.40601258095205
H           -5.13120255806543       -5.23789588162774        1.19003630659633
H           -3.49718057290763       -4.54339120569331        1.32456881131710
H           -3.11288087743081       -2.34694796444914        2.10076000867871
H           -2.30355924479767       -0.06350523271695        1.98757462403944
H           -3.26558053221538        2.22103110585190       -1.92418758094948
H           -1.91098155057720        3.11737749857654       -1.25054653594668
H           -1.97574445647364        0.08501379018824       -1.63273153879184
H           -1.33244349799783        1.23963905974311       -2.80282000506814
H           -0.91580639633859        1.61851786346553        0.73816785558239
H            0.39384747218942        1.99418017469335       -1.09613741452009
H            2.05536140517212       -0.51609220119840        0.60985339721043
H            2.11745026401458        1.13322788429352       -0.02918102948000
H            2.66998672649232        0.22351440368463       -2.29172578975165
H            2.69752538013675       -1.41366948687229       -1.61777107451267
H            4.40789199113364        1.85649853319543       -1.68513651555550
H            6.68235938025005        2.23056154355236       -0.89938454699699
H            8.40151667076106        2.42187982350302        0.71744297256664
H            9.00116618418342        1.78019998266144       -0.83952272727671
H            9.85905544521935        1.40009464690561        0.67382637461203
H            7.23028594084724       -3.71158347574909        1.61867785586924
H            5.56451375130865       -3.09672240535075        1.74163884050295
H            6.19718769027992       -3.66991070052721        0.16962349926174
H            4.46690642118973       -2.09912995967493       -0.09493134561303
H           -0.23612439821199       -1.67578372651923       -1.73830403494828
H           -1.02278380340022       -1.33533537943246       -0.18302453525363
H            0.60476073979528       -2.03061237920092       -0.22251876749633
H           -4.82045764473529        2.89672464330799       -0.70778759716221
H           -5.61825498709634        3.19091488047725        2.14479548988700
H           -4.22314488485268        2.46625651676875        3.11074788941431
H           -5.22967560406992        1.49820746486668        1.89514942174237
H           -3.12116789346882        4.50138597428720        1.48729193093987
H           -3.20635252226478        4.69273759085582       -0.27189453842981
H           -4.63026286041223        4.97704310313257        0.71836697659716
H           -1.00892222415666        2.79706886234600        2.75759623662513

          :  Hamiltonian                  GFN2-xTB          :
         :: total energy             -99.306691125946 Eh    ::
         :: gradient norm              0.002512351965 Eh/a0 ::
         :: HOMO-LUMO gap              1.680680418668 eV    ::
         :: SCC energy              -100.676879043876 Eh    ::
         :: -> dispersion             -0.075132084977 Eh    ::
         :: repulsion energy           1.341623793423 Eh    ::

    * Orbital Energies and Occupations

         #    Occupation            Energy/Eh            Energy/eV
      -------------------------------------------------------------
         1        2.0000           -0.8079754             -21.9861
       ...           ...                  ...                  ...
        78        1.9984           -0.5285019             -14.3813
        79        1.9983           -0.5278840             -14.3645
        80        1.9978           -0.5235218             -14.2458
        81        1.9976           -0.5220743             -14.2064
        82        1.9971           -0.5194305             -14.1344
        83        1.9960           -0.5142407             -13.9932
        84        1.9946           -0.5093387             -13.8598
        85        1.9899           -0.4994722             -13.5913
        86        1.9812           -0.4895614             -13.3216
        87        1.9790           -0.4878369             -13.2747
        88        1.9376           -0.4702273             -12.7955
        89        1.8734           -0.4584933             -12.4762
        90        1.8470           -0.4552660             -12.3884 (HOMO)
        91        0.3925           -0.3935021             -10.7077 (LUMO)
        92        0.0163           -0.3397828              -9.2460
        93        0.0035           -0.3153955              -8.5823
        94        0.0029           -0.3125765              -8.5056
        95        0.0028           -0.3117178              -8.4823
        96        0.0024           -0.3093717              -8.4184
        97        0.0000           -0.2315879              -6.3018
        98        0.0000           -0.1895660              -5.1584
        99        0.0000           -0.1868331              -5.0840
       100                         -0.1359194              -3.6986
       101                         -0.1184302              -3.2227
       ...                                ...                  ...
       171                          0.5769005              15.6983
      -------------------------------------------------------------
                  HL-Gap            0.0617639 Eh            1.6807 eV

     #   Z          covCN         q      C6AA      α(0)
     1   7 N        1.773    -0.265    27.708     7.795
     2   6 C        2.826     0.099    25.787     8.321
     3   6 C        3.905     0.006    20.423     6.424
     4   6 C        2.974     0.004    27.920     8.667
     5   6 C        2.921    -0.079    29.968     8.977
     6   6 C        2.862     0.130    25.150     8.220
     7   8 O        1.706    -0.229    17.802     5.697
     8   6 C        3.644     0.027    20.452     6.500
     9   6 C        2.864     0.128    25.186     8.226
    10   8 O        1.706    -0.229    17.790     5.695
    11   6 C        3.646     0.027    20.453     6.499
    12   6 C        2.914    -0.075    29.874     8.963
    13   6 C        2.922    -0.054    29.335     8.882
    14   6 C        3.812    -0.064    21.723     6.634
    15   6 C        3.802    -0.069    21.812     6.649
    16   6 C        2.843     0.007    27.866     8.651
    17   7 N        2.729     0.008    21.119     6.825
    18   6 C        3.756    -0.016    20.917     6.521
    19   6 C        3.808    -0.070    21.842     6.653
    20   6 C        2.970    -0.000    28.036     8.685
    21   6 C        2.922    -0.049    29.217     8.864
    22   6 C        2.914    -0.068    29.683     8.934
    23   6 C        2.865     0.133    25.083     8.209
    24   8 O        1.706    -0.222    17.689     5.679
    25   6 C        3.645     0.025    20.486     6.505
    26   6 C        2.863     0.133    25.091     8.211
    27   8 O        1.706    -0.225    17.734     5.686
    28   6 C        3.645     0.027    20.449     6.499
    29   6 C        2.920    -0.080    29.992     8.981
    30   6 C        3.699    -0.070    22.010     6.710
    31   6 C        3.501     0.017    21.874     6.939
    32   6 C        3.621    -0.097    22.847     6.891
    33   6 C        3.753    -0.118    22.810     6.811
    34   1 H        0.926     0.053     2.281     2.362
    35   1 H        0.924     0.054     2.267     2.355
    36   1 H        0.925     0.081     1.965     2.192
    37   1 H        0.924     0.048     2.351     2.398
    38   1 H        0.924     0.055     2.261     2.351
    39   1 H        0.925     0.081     1.967     2.193
    40   1 H        0.924     0.047     2.352     2.399
    41   1 H        0.926     0.052     2.300     2.371
    42   1 H        0.926     0.037     2.484     2.465
    43   1 H        0.925     0.060     2.196     2.317
    44   1 H        0.924     0.050     2.314     2.379
    45   1 H        0.925     0.066     2.135     2.285
    46   1 H        0.923     0.080     1.984     2.203
    47   1 H        0.922     0.012     2.859     2.644
    48   1 H        0.926     0.069     2.095     2.263
    49   1 H        0.924     0.067     2.121     2.277
    50   1 H        0.924     0.067     2.121     2.278
    51   1 H        0.924     0.055     2.257     2.350
    52   1 H        0.924     0.056     2.252     2.347
    53   1 H        0.926     0.045     2.386     2.415
    54   1 H        0.926     0.058     2.218     2.329
    55   1 H        0.924     0.054     2.270     2.356
    56   1 H        0.924     0.056     2.250     2.346
    57   1 H        0.925     0.082     1.956     2.187
    58   1 H        0.925     0.082     1.961     2.190
    59   1 H        0.924     0.048     2.342     2.393
    60   1 H        0.924     0.052     2.291     2.367
    61   1 H        0.926     0.047     2.359     2.402
    62   1 H        0.924     0.076     2.021     2.223
    63   1 H        0.924     0.079     1.990     2.206
    64   1 H        0.925     0.080     1.981     2.201
    65   1 H        0.600     0.000     3.695     3.141
    66   1 H        0.925     0.053     2.289     2.366
    67   1 H        0.821     0.055     2.292     2.376
    68   1 H        0.925     0.036     2.503     2.474
    69   1 H        0.925     0.067     2.122     2.278
    70   1 H        0.925     0.033     2.548     2.496
    71   1 H        0.925     0.056     2.245     2.343
    72   1 H        0.860     0.158     1.347     1.818

Wiberg/Mayer (AO) data.
largest (>0.10) Wiberg bond orders for each atom

     #   Z sym  total        # sym  WBO       # sym  WBO       # sym  WBO
 ---------------------------------------------------------------------------
     1   7 N    3.046 --     2 C    1.958    72 H    0.941
     2   6 C    3.923 --     1 N    1.958     3 C    0.991    47 H    0.887
     3   6 C    3.975 --     2 C    0.991     4 C    0.964    14 C    0.958
                            31 C    0.952
     4   6 C    3.949 --    13 C    1.415     5 C    1.370     3 C    0.964
     5   6 C    3.962 --     6 C    1.401     4 C    1.370    34 H    0.956
     6   6 C    3.906 --     5 C    1.401     9 C    1.222     7 O    1.100
     7   8 O    2.255 --     6 C    1.100     8 C    0.978
     8   6 C    3.932 --     7 O    0.978    36 H    0.977    37 H    0.974
                            35 H    0.973
     9   6 C    3.902 --    12 C    1.393     6 C    1.222    10 O    1.101
    10   8 O    2.252 --     9 C    1.101    11 C    0.978
    11   6 C    3.932 --    10 O    0.978    39 H    0.977    40 H    0.974
                            38 H    0.973
    12   6 C    3.963 --    13 C    1.403     9 C    1.393    41 H    0.964
    13   6 C    3.955 --     4 C    1.415    12 C    1.403    42 H    0.962
    14   6 C    3.974 --    15 C    0.983    44 H    0.972    43 H    0.964
                             3 C    0.958
    15   6 C    3.987 --    16 C    1.057    14 C    0.983    45 H    0.962
                            46 H    0.927
    16   6 C    3.600 --    17 N    1.393    15 C    1.057    48 H    0.957
    17   7 N    3.476 --    16 C    1.393    30 C    0.998    18 C    0.988
    18   6 C    3.956 --    17 N    0.988    50 H    0.968    19 C    0.967
                            49 H    0.964
    19   6 C    3.976 --    20 C    1.008    51 H    0.972    52 H    0.972
                            18 C    0.967
    20   6 C    3.945 --    21 C    1.410    29 C    1.380    19 C    1.008
    21   6 C    3.951 --    22 C    1.417    20 C    1.410    53 H    0.968
    22   6 C    3.960 --    21 C    1.417    23 C    1.384    54 H    0.963
    23   6 C    3.896 --    22 C    1.384    26 C    1.221    24 O    1.110
    24   8 O    2.255 --    23 C    1.110    25 C    0.976
    25   6 C    3.928 --    57 H    0.977    24 O    0.976    56 H    0.973
                            55 H    0.973
    26   6 C    3.899 --    29 C    1.395    23 C    1.221    27 O    1.103
    27   8 O    2.254 --    26 C    1.103    28 C    0.979
    28   6 C    3.932 --    27 O    0.979    58 H    0.977    59 H    0.973
                            60 H    0.973
    29   6 C    3.959 --    26 C    1.395    20 C    1.380    61 H    0.962
    30   6 C    3.958 --    17 N    0.998    64 H    0.978    62 H    0.967
                            63 H    0.961
    31   6 C    3.946 --    33 C    1.022    32 C    0.981     3 C    0.952
                            65 H    0.924
    32   6 C    3.963 --    66 H    0.986    68 H    0.986    31 C    0.981
                            67 H    0.968
    33   6 C    3.981 --    31 C    1.022    70 H    0.980    71 H    0.978
                            69 H    0.969
    34   1 H    0.996 --     5 C    0.956
    35   1 H    0.993 --     8 C    0.973
    36   1 H    0.993 --     8 C    0.977
    37   1 H    0.994 --     8 C    0.974
    38   1 H    0.993 --    11 C    0.973
    39   1 H    0.993 --    11 C    0.977
    40   1 H    0.994 --    11 C    0.974
    41   1 H    0.996 --    12 C    0.964
    42   1 H    0.998 --    13 C    0.962
    43   1 H    0.995 --    14 C    0.964
    44   1 H    0.997 --    14 C    0.972
    45   1 H    0.995 --    15 C    0.962
    46   1 H    0.970 --    15 C    0.927
    47   1 H    0.987 --     2 C    0.887
    48   1 H    0.995 --    16 C    0.957
    49   1 H    0.991 --    18 C    0.964
    50   1 H    0.994 --    18 C    0.968
    51   1 H    0.996 --    19 C    0.972
    52   1 H    0.996 --    19 C    0.972
    53   1 H    0.997 --    21 C    0.968
    54   1 H    0.995 --    22 C    0.963
    55   1 H    0.992 --    25 C    0.973
    56   1 H    0.992 --    25 C    0.973
    57   1 H    0.992 --    25 C    0.977
    58   1 H    0.993 --    28 C    0.977
    59   1 H    0.993 --    28 C    0.973
    60   1 H    0.993 --    28 C    0.973
    61   1 H    0.997 --    29 C    0.962
    62   1 H    0.985 --    30 C    0.967
    63   1 H    0.987 --    30 C    0.961
    64   1 H    0.993 --    30 C    0.978
    65   1 H    0.989 --    31 C    0.924
    66   1 H    0.994 --    32 C    0.986
    67   1 H    0.992 --    32 C    0.968
    68   1 H    0.996 --    32 C    0.986
    69   1 H    0.992 --    33 C    0.969
    70   1 H    0.997 --    33 C    0.980
    71   1 H    0.993 --    33 C    0.978
    72   1 H    0.970 --     1 N    0.941
 ---------------------------------------------------------------------------

molecular dipole:
                 x           y           z       tot (Debye)
 q only:        0.595      -0.029      -0.702
   full:        0.882      -0.046      -0.885       3.179

           -------------------------------------------------
          | TOTAL ENERGY              -99.306691125946 Eh   |
          | GRADIENT NORM               0.002512351965 Eh/α |
          | HOMO-LUMO GAP               1.680680418668 eV   |
           -------------------------------------------------

 * finished run on 2024/04/06 at 11:15:17.634
