   * xtb version 6.6.1 (8d0f1dd) compiled by 'conda@1efc2f54142f' on 2023-08-01
          program call               : xtb xtbopt.xyz --opt crude --input .xc2 --gfn2

   ID    Z sym.   atoms
    1    7 N      1, 17
    2    6 C      2-6, 8, 9, 11-16, 18-23, 25, 26, 28-33
    3    8 O      7, 10, 24, 27
    4    1 H      34-72
########################################################################
[WARNING] Please study the warnings concerning your input carefully
-1- readin_getIntValue: could not parse ''
########################################################################

          :  Hamiltonian                  GFN2-xTB          :
 * total energy  :   -99.3340068 Eh     change       -0.9592327E-11 Eh
 * total energy  :   -99.3841956 Eh     change       -0.5018882E-01 Eh
 * total energy  :   -99.3958566 Eh     change       -0.1166096E-01 Eh
 * total energy  :   -99.4047013 Eh     change       -0.8844657E-02 Eh
 * total energy  :   -99.4059975 Eh     change       -0.1296205E-02 Eh
 * total energy  :   -99.4058354 Eh     change        0.1620380E-03 Eh
 * total energy  :   -99.4063563 Eh     change       -0.5208811E-03 Eh
 * total energy  :   -99.4064012 Eh     change       -0.4490137E-04 Eh
   *** GEOMETRY OPTIMIZATION CONVERGED AFTER 8 ITERATIONS ***

 final structure:
================
72
 xtb: 6.6.1 (8d0f1dd)
N           -1.85866736997782        2.71262659953641        2.24993683332715
C           -1.81643644792641        2.08841512845932        1.16988381778896
C           -2.97747558488201        1.91160847025361        0.23220272504504
C           -3.48710807706612        0.47936564524726        0.31756622510735
C           -4.45753591239843        0.03229197461208       -0.58170939431949
C           -4.94905464239079       -1.26160705009976       -0.53103021113009
O           -5.88818372468875       -1.77340629202828       -1.35283407998687
C           -6.50538352726319       -0.93942698673416       -2.30495668740157
C           -4.45047817842820       -2.16206932850393        0.44925476470322
O           -4.97499729202667       -3.40347377619014        0.41876085023436
C           -4.57771412960016       -4.33660480386282        1.39609577603867
C           -3.49175936298369       -1.70996555131203        1.34127112995817
C           -3.01883426404715       -0.40547443273127        1.27586952119398
C           -2.43095202615863        2.17425349809007       -1.19516363339357
C           -1.49453473951097        1.07110398882115       -1.72160526421077
C           -0.15762483524295        1.07326944293270       -1.08407270497597
N            0.51389321432578       -0.00711118747848       -0.70007101034139
C            1.89335955644005        0.09692554738492       -0.28568096800526
C            2.86359061932255       -0.35880964397056       -1.39240789412503
C            4.28159938004554       -0.14649333990613       -0.94076593843497
C            4.91596314375400        1.06597061678468       -1.15719993801427
C            6.21201600766198        1.27844359908249       -0.71378923745224
C            6.90000251406667        0.28068501040610       -0.03823429513204
O            8.15657558401661        0.37520661669168        0.43418945075780
C            8.88138177134221        1.56576687944300        0.22674661053303
C            6.25584523636528       -0.96650398648379        0.19208107401665
O            6.99520364823223       -1.88012313534055        0.85190983906842
C            6.45460965383376       -3.15581769089109        1.09991573300296
C            4.95895008567492       -1.15481462298615       -0.25935659515274
C           -0.07593804368013       -1.32410913919458       -0.72120469673541
C           -4.15637389096228        2.88061193750264        0.54621671878000
C           -4.85604935365254        2.50343283973841        1.85163131507078
C           -3.73737716674148        4.34742463998088        0.59905675337040
H           -4.84698023747768        0.71127420777473       -1.32191366077000
H           -7.00809156334689       -0.09136524350716       -1.83042595415489
H           -7.24547834202686       -1.56372818133210       -2.80188481773600
H           -5.78739725607096       -0.57338634205303       -3.04606520890708
H           -4.81386155589936       -3.98525225680660        2.40489072452945
H           -5.14661457908253       -5.24008314148707        1.18627441025035
H           -3.50781232364377       -4.55852145461161        1.32728363712372
H           -3.10976153789455       -2.36377377784540        2.10827880195235
H           -2.29423596659718       -0.08190035336691        2.00685600539621
H           -3.27200903732017        2.25710014728734       -1.88248895052236
H           -1.90221257444601        3.12794332289098       -1.20646371817560
H           -1.98417299170909        0.10322965563781       -1.62666797307131
H           -1.34571217780759        1.26596074031081       -2.79173822002137
H           -0.89633543438530        1.62002550720119        0.76342559298476
H            0.39210711685785        2.00346183317327       -1.08827370975051
H            2.04763979852728       -0.51575562417448        0.60680952650595
H            2.11615691677134        1.13459625594524       -0.02885008198402
H            2.66834657527003        0.22567491199512       -2.29306198157700
H            2.69327469335818       -1.41172179880900       -1.61962914034135
H            4.40604979092629        1.85576548904512       -1.68769992568138
H            6.68155639032300        2.22946977172143       -0.90405460334188
H            8.40099556815787        2.41796463360034        0.71712524527133
H            9.00469057056530        1.77871179409435       -0.83929031034466
H            9.85779412135184        1.39500381452237        0.67591143607144
H            7.23619247634550       -3.70881638139347        1.61716981375013
H            5.56869635846681       -3.09878857374588        1.74065620529744
H            6.20166495649045       -3.67255101916600        0.16891139621569
H            4.46451664117558       -2.09969582195196       -0.09641005863933
H           -0.24569219073403       -1.66449680601185       -1.74490780721652
H           -1.03035049943182       -1.32441840702418       -0.18856508571160
H            0.59475632191834       -2.02450843572879       -0.23015324454676
H           -4.87904806436666        2.77301528647479       -0.27348064749515
H           -5.67185002381330        3.19553451856580        2.04126432668808
H           -4.15692852890807        2.56198264810995        2.68000884373888
H           -5.26372599494459        1.49651353556159        1.80530015528427
H           -3.08603970589631        4.51981908978215        1.45073382677539
H           -3.22828552783088        4.66203116137208       -0.30840192376327
H           -4.62239035224222        4.96731430320726        0.71706446134057
H           -1.00344807908284        2.78891904598840        2.79122086799004

          :  Hamiltonian                  GFN2-xTB          :
         :: total energy             -99.406401218019 Eh    ::
         :: gradient norm              0.002714571808 Eh/a0 ::
         :: HOMO-LUMO gap              1.678630752503 eV    ::
         :: SCC energy              -100.784702849310 Eh    ::
         :: -> dispersion             -0.075017760792 Eh    ::
         :: repulsion energy           1.377069649589 Eh    ::

    * Orbital Energies and Occupations

         #    Occupation            Energy/Eh            Energy/eV
      -------------------------------------------------------------
         1        2.0000           -0.8086320             -22.0040
       ...           ...                  ...                  ...
        78        1.9984           -0.5291956             -14.4001
        79        1.9983           -0.5287443             -14.3879
        80        1.9982           -0.5281317             -14.3712
        81        1.9975           -0.5225544             -14.2194
        82        1.9971           -0.5200091             -14.1502
        83        1.9960           -0.5151781             -14.0187
        84        1.9953           -0.5124896             -13.9456
        85        1.9944           -0.5097296             -13.8704
        86        1.9811           -0.4903655             -13.3435
        87        1.9787           -0.4884530             -13.2915
        88        1.9425           -0.4724653             -12.8564
        89        1.8720           -0.4592147             -12.4959
        90        1.8440           -0.4558418             -12.4041 (HOMO)
        91        0.3875           -0.3941532             -10.7255 (LUMO)
        92        0.0158           -0.3402472              -9.2586
        93        0.0035           -0.3162690              -8.6061
        94        0.0029           -0.3132418              -8.5237
        95        0.0027           -0.3123560              -8.4996
        96        0.0024           -0.3100492              -8.4369
        97        0.0000           -0.1904583              -5.1826
        98        0.0000           -0.1875538              -5.1036
        99                         -0.1368076              -3.7227
       100                         -0.0691762              -1.8824
       101                         -0.0642607              -1.7486
       ...                                ...                  ...
       171                          0.5763404              15.6830
      -------------------------------------------------------------
                  HL-Gap            0.0616885 Eh            1.6786 eV

     #   Z          covCN         q      C6AA      α(0)
     1   7 N        1.774    -0.266    27.738     7.799
     2   6 C        2.826     0.101    25.759     8.316
     3   6 C        3.907     0.006    20.411     6.422
     4   6 C        2.974     0.004    27.939     8.670
     5   6 C        2.920    -0.079    29.982     8.979
     6   6 C        2.862     0.130    25.154     8.221
     7   8 O        1.706    -0.229    17.804     5.697
     8   6 C        3.644     0.027    20.452     6.501
     9   6 C        2.865     0.129    25.178     8.225
    10   8 O        1.706    -0.228    17.785     5.694
    11   6 C        3.646     0.027    20.454     6.500
    12   6 C        2.914    -0.075    29.864     8.961
    13   6 C        2.921    -0.054    29.331     8.881
    14   6 C        3.812    -0.065    21.738     6.636
    15   6 C        3.802    -0.069    21.817     6.650
    16   6 C        2.843     0.008    27.840     8.647
    17   7 N        2.729     0.009    21.103     6.823
    18   6 C        3.756    -0.016    20.917     6.521
    19   6 C        3.808    -0.070    21.842     6.653
    20   6 C        2.969    -0.000    28.034     8.685
    21   6 C        2.922    -0.049    29.214     8.864
    22   6 C        2.914    -0.067    29.681     8.934
    23   6 C        2.865     0.133    25.079     8.209
    24   8 O        1.706    -0.222    17.680     5.677
    25   6 C        3.645     0.025    20.489     6.505
    26   6 C        2.863     0.133    25.088     8.210
    27   8 O        1.706    -0.225    17.726     5.684
    28   6 C        3.645     0.027    20.453     6.500
    29   6 C        2.919    -0.080    29.989     8.980
    30   6 C        3.699    -0.070    22.011     6.710
    31   6 C        3.852    -0.007    20.666     6.466
    32   6 C        3.756    -0.118    22.821     6.811
    33   6 C        3.755    -0.118    22.815     6.811
    34   1 H        0.926     0.052     2.292     2.367
    35   1 H        0.924     0.054     2.270     2.356
    36   1 H        0.925     0.081     1.965     2.192
    37   1 H        0.924     0.048     2.350     2.397
    38   1 H        0.924     0.055     2.256     2.349
    39   1 H        0.925     0.081     1.966     2.193
    40   1 H        0.924     0.048     2.350     2.397
    41   1 H        0.926     0.052     2.299     2.371
    42   1 H        0.926     0.038     2.480     2.463
    43   1 H        0.925     0.060     2.202     2.321
    44   1 H        0.924     0.052     2.294     2.368
    45   1 H        0.925     0.066     2.133     2.284
    46   1 H        0.924     0.080     1.984     2.203
    47   1 H        0.922     0.009     2.902     2.664
    48   1 H        0.926     0.070     2.090     2.260
    49   1 H        0.924     0.067     2.119     2.276
    50   1 H        0.924     0.067     2.120     2.277
    51   1 H        0.924     0.055     2.255     2.348
    52   1 H        0.924     0.056     2.251     2.346
    53   1 H        0.926     0.045     2.383     2.414
    54   1 H        0.926     0.059     2.216     2.328
    55   1 H        0.924     0.054     2.267     2.355
    56   1 H        0.924     0.056     2.247     2.344
    57   1 H        0.925     0.082     1.954     2.186
    58   1 H        0.925     0.082     1.959     2.189
    59   1 H        0.924     0.049     2.339     2.392
    60   1 H        0.924     0.053     2.289     2.366
    61   1 H        0.926     0.047     2.357     2.401
    62   1 H        0.924     0.076     2.019     2.222
    63   1 H        0.924     0.079     1.988     2.205
    64   1 H        0.925     0.080     1.981     2.201
    65   1 H        0.923     0.037     2.491     2.468
    66   1 H        0.925     0.052     2.290     2.367
    67   1 H        0.925     0.067     2.119     2.276
    68   1 H        0.925     0.036     2.504     2.474
    69   1 H        0.925     0.062     2.173     2.305
    70   1 H        0.925     0.033     2.543     2.494
    71   1 H        0.925     0.053     2.279     2.361
    72   1 H        0.860     0.157     1.351     1.821

Wiberg/Mayer (AO) data.
largest (>0.10) Wiberg bond orders for each atom

     #   Z sym  total        # sym  WBO       # sym  WBO       # sym  WBO
 ---------------------------------------------------------------------------
     1   7 N    3.048 --     2 C    1.957    72 H    0.941
     2   6 C    3.924 --     1 N    1.957     3 C    0.996    47 H    0.889
     3   6 C    3.976 --     2 C    0.996     4 C    0.966    14 C    0.960
                            31 C    0.942
     4   6 C    3.949 --    13 C    1.415     5 C    1.368     3 C    0.966
     5   6 C    3.962 --     6 C    1.401     4 C    1.368    34 H    0.958
     6   6 C    3.906 --     5 C    1.401     9 C    1.221     7 O    1.100
     7   8 O    2.255 --     6 C    1.100     8 C    0.978
     8   6 C    3.932 --     7 O    0.978    36 H    0.977    37 H    0.973
                            35 H    0.973
     9   6 C    3.902 --    12 C    1.393     6 C    1.221    10 O    1.102
    10   8 O    2.253 --     9 C    1.102    11 C    0.978
    11   6 C    3.931 --    10 O    0.978    39 H    0.977    40 H    0.974
                            38 H    0.973
    12   6 C    3.962 --    13 C    1.403     9 C    1.393    41 H    0.964
    13   6 C    3.955 --     4 C    1.415    12 C    1.403    42 H    0.962
    14   6 C    3.974 --    15 C    0.983    44 H    0.972    43 H    0.969
                             3 C    0.960
    15   6 C    3.987 --    16 C    1.058    14 C    0.983    45 H    0.961
                            46 H    0.928
    16   6 C    3.603 --    17 N    1.396    15 C    1.058    48 H    0.957
    17   7 N    3.479 --    16 C    1.396    30 C    0.998    18 C    0.988
    18   6 C    3.956 --    17 N    0.988    50 H    0.968    19 C    0.967
                            49 H    0.964
    19   6 C    3.977 --    20 C    1.008    52 H    0.972    51 H    0.972
                            18 C    0.967
    20   6 C    3.944 --    21 C    1.409    29 C    1.380    19 C    1.008
    21   6 C    3.950 --    22 C    1.417    20 C    1.409    53 H    0.968
    22   6 C    3.959 --    21 C    1.417    23 C    1.383    54 H    0.963
    23   6 C    3.895 --    22 C    1.383    26 C    1.220    24 O    1.110
    24   8 O    2.255 --    23 C    1.110    25 C    0.976
    25   6 C    3.928 --    57 H    0.977    24 O    0.976    56 H    0.973
                            55 H    0.973
    26   6 C    3.899 --    29 C    1.395    23 C    1.220    27 O    1.104
    27   8 O    2.254 --    26 C    1.104    28 C    0.979
    28   6 C    3.932 --    27 O    0.979    58 H    0.977    59 H    0.973
                            60 H    0.973
    29   6 C    3.959 --    26 C    1.395    20 C    1.380    61 H    0.962
    30   6 C    3.958 --    17 N    0.998    64 H    0.978    62 H    0.967
                            63 H    0.961
    31   6 C    3.972 --    33 C    1.009    32 C    1.008    65 H    0.960
                             3 C    0.942
    32   6 C    3.980 --    31 C    1.008    68 H    0.982    66 H    0.981
                            67 H    0.975
    33   6 C    3.983 --    31 C    1.009    70 H    0.982    71 H    0.981
                            69 H    0.976
    34   1 H    0.996 --     5 C    0.958
    35   1 H    0.993 --     8 C    0.973
    36   1 H    0.993 --     8 C    0.977
    37   1 H    0.994 --     8 C    0.973
    38   1 H    0.993 --    11 C    0.973
    39   1 H    0.993 --    11 C    0.977
    40   1 H    0.993 --    11 C    0.974
    41   1 H    0.996 --    12 C    0.964
    42   1 H    0.998 --    13 C    0.962
    43   1 H    0.995 --    14 C    0.969
    44   1 H    0.996 --    14 C    0.972
    45   1 H    0.995 --    15 C    0.961
    46   1 H    0.970 --    15 C    0.928
    47   1 H    0.988 --     2 C    0.889
    48   1 H    0.995 --    16 C    0.957
    49   1 H    0.991 --    18 C    0.964
    50   1 H    0.994 --    18 C    0.968
    51   1 H    0.996 --    19 C    0.972
    52   1 H    0.996 --    19 C    0.972
    53   1 H    0.997 --    21 C    0.968
    54   1 H    0.995 --    22 C    0.963
    55   1 H    0.992 --    25 C    0.973
    56   1 H    0.992 --    25 C    0.973
    57   1 H    0.992 --    25 C    0.977
    58   1 H    0.993 --    28 C    0.977
    59   1 H    0.993 --    28 C    0.973
    60   1 H    0.993 --    28 C    0.973
    61   1 H    0.997 --    29 C    0.962
    62   1 H    0.985 --    30 C    0.967
    63   1 H    0.987 --    30 C    0.961
    64   1 H    0.993 --    30 C    0.978
    65   1 H    0.993 --    31 C    0.960
    66   1 H    0.994 --    32 C    0.981
    67   1 H    0.992 --    32 C    0.975
    68   1 H    0.997 --    32 C    0.982
    69   1 H    0.993 --    33 C    0.976
    70   1 H    0.997 --    33 C    0.982
    71   1 H    0.994 --    33 C    0.981
    72   1 H    0.970 --     1 N    0.941
 ---------------------------------------------------------------------------

molecular dipole:
                 x           y           z       tot (Debye)
 q only:        0.662      -0.069      -0.813
   full:        0.962      -0.103      -1.007       3.550

           -------------------------------------------------
          | TOTAL ENERGY              -99.406401218019 Eh   |
          | GRADIENT NORM               0.002714571808 Eh/α |
          | HOMO-LUMO GAP               1.678630752503 eV   |
           -------------------------------------------------

 * finished run on 2024/04/06 at 11:15:19.225
