   * xtb version 6.6.1 (8d0f1dd) compiled by 'conda@1efc2f54142f' on 2023-08-01
          program call               : xtb struc.xyz --opt loose --input .xc1 --gfn2

   ID    Z sym.   atoms
    1    6 C      1, 3, 5-7, 10, 11, 14
    2    7 N      2, 4, 9, 13
    3    8 O      8, 12
    4    1 H      15-25
constraining bond 6 13 to    4.9200000 Å, actual value:    2.4008916 Å

          :  Hamiltonian                  GFN2-xTB          :
 * total energy  :   -30.9170374 Eh     change       -0.6650680E-10 Eh
 * total energy  :   -35.0132978 Eh     change       -0.4096260E+01 Eh
 * total energy  :   -38.1015178 Eh     change       -0.3088220E+01 Eh
 * total energy  :   -40.0364809 Eh     change       -0.1934963E+01 Eh
 * total energy  :   -41.1120761 Eh     change       -0.1075595E+01 Eh
 * total energy  :   -41.4025083 Eh     change       -0.2904322E+00 Eh
 * total energy  :   -41.4419552 Eh     change       -0.3944693E-01 Eh
 * total energy  :   -41.4936608 Eh     change       -0.5170561E-01 Eh
 * total energy  :   -41.5382772 Eh     change       -0.4461639E-01 Eh
 * total energy  :   -41.5662209 Eh     change       -0.2794367E-01 Eh
 * total energy  :   -42.1125186 Eh     change       -0.2468983E-03 Eh
 * total energy  :   -42.1126770 Eh     change       -0.1584357E-03 Eh
 * total energy  :   -42.1127843 Eh     change       -0.1072428E-03 Eh
 * total energy  :   -42.1128574 Eh     change       -0.7310120E-04 Eh
 * total energy  :   -42.1129074 Eh     change       -0.5007651E-04 Eh
 * total energy  :   -42.1129711 Eh     change       -0.6362101E-04 Eh
 * total energy  :   -42.1130146 Eh     change       -0.4352458E-04 Eh
 * total energy  :   -42.1130481 Eh     change       -0.3349161E-04 Eh
 * total energy  :   -42.1130739 Eh     change       -0.2587310E-04 Eh
   *** GEOMETRY OPTIMIZATION CONVERGED AFTER 91 ITERATIONS ***

 final structure:
================
25
 xtb: 6.6.1 (8d0f1dd)
C            3.18829156640308        1.51132369838541       -0.33979927056543
N            2.22960841223534        0.69927566941945        0.06500312919636
C            1.91792715536711       -0.42408280132462       -0.62261576295241
N            0.90635505129957       -1.30901376505820       -0.25622459764837
C           -0.41444704947099       -1.11126119057273       -0.16831783707244
C            1.53230947106924        1.04606357397344        1.24254000576174
C            0.74897875565173        0.26578062622162        1.94301860308889
O            0.01790119487985       -0.34950546127329        2.60786093105753
N           -1.13289264376433       -0.03620426969070       -0.48449383290139
C           -0.79255568677526        1.14174101063047       -1.24355399734142
C           -2.52471678409594       -0.23216765361569       -0.13389420285049
O           -3.35983790772441        0.59562057604304       -0.31083999184417
N           -2.59886035415605       -1.47921251071545        0.37239903622718
C           -1.32680361882366       -2.13970257007367        0.44050864827035
H            3.44663770979250        2.37337371327588        0.23955065018550
H            3.73370498480168        1.28600340402125       -1.23587162307731
H            1.75484195619058        2.02388263912847        1.64529361581943
H            2.64570573355435       -0.78591628035448       -1.32708012977280
H            0.27914931500892        1.22748960579270       -1.38280326746029
H           -1.27699330868494        1.08586649760860       -2.22044664324322
H           -1.18991526740563        2.01739423673755       -0.72741117934848
H           -1.03977995489231       -2.36281286517738        1.47728029051649
H           -1.32263177866602       -3.08088593221633       -0.12446781115701
H           -3.45490290214969       -1.86459338703669        0.73506987204495
H            1.19335746445749       -2.28021802252984       -0.15953301703327

          :  Hamiltonian                  GFN2-xTB          :
         :: total energy             -42.113073943964 Eh    ::
         :: gradient norm              0.003720294782 Eh/a0 ::
         :: HOMO-LUMO gap              1.820814953011 eV    ::
         :: SCC energy               -42.674118480891 Eh    ::
         :: -> dispersion             -0.023967364656 Eh    ::
         :: repulsion energy           0.560772580426 Eh    ::

    * Orbital Energies and Occupations

         #    Occupation            Energy/Eh            Energy/eV
      -------------------------------------------------------------
         1        2.0000           -0.9063942             -24.6642
       ...           ...                  ...                  ...
        25        2.0000           -0.6758514             -18.3909
        26        2.0000           -0.6736639             -18.3313
        27        2.0000           -0.6630662             -18.0429
        28        2.0000           -0.6551905             -17.8286
        29        2.0000           -0.6542755             -17.8037
        30        1.9999           -0.6342266             -17.2582
        31        1.9999           -0.6308966             -17.1676
        32        1.9999           -0.6220603             -16.9271
        33        1.9989           -0.5872489             -15.9799
        34        1.9961           -0.5680757             -15.4581
        35        1.9946           -0.5626174             -15.3096
        36        1.9869           -0.5486330             -14.9291
        37        1.7162           -0.4975925             -13.5402 (HOMO)
        38        0.1623           -0.4306788             -11.7194 (LUMO)
        39        0.1254           -0.4262809             -11.5997
        40        0.0194           -0.3958654             -10.7720
        41        0.0004           -0.3331027              -9.0642
        42        0.0001           -0.3118167              -8.4850
        43                         -0.1953161              -5.3148
        44                         -0.1795618              -4.8861
        45                         -0.1370747              -3.7300
        46                         -0.1221987              -3.3252
        47                         -0.1070593              -2.9132
        48                         -0.0707481              -1.9252
       ...                                ...                  ...
        67                          0.9692193              26.3738
      -------------------------------------------------------------
                  HL-Gap            0.0669137 Eh            1.8208 eV

     #   Z          covCN         q      C6AA      α(0)
     1   6 C        2.837    -0.093    30.333     9.026
     2   7 N        2.734     0.129    19.047     6.482
     3   6 C        2.805    -0.037    28.894     8.806
     4   7 N        2.684    -0.093    23.070     7.134
     5   6 C        2.900     0.121    25.337     8.253
     6   6 C        2.867    -0.091    30.291     9.022
     7   6 C        1.840     0.237    25.639     8.180
     8   8 O        0.856    -0.198    18.041     5.695
     9   7 N        2.780    -0.045    22.109     6.984
    10   6 C        3.690    -0.067    21.988     6.711
    11   6 C        2.784     0.325    21.485     7.592
    12   8 O        0.857    -0.354    20.782     6.112
    13   7 N        2.740    -0.164    24.550     7.359
    14   6 C        3.798    -0.019    20.917     6.512
    15   1 H        0.927     0.096     1.826     2.113
    16   1 H        0.926     0.088     1.897     2.154
    17   1 H        0.926     0.133     1.512     1.923
    18   1 H        0.926     0.083     1.947     2.182
    19   1 H        0.925     0.079     1.992     2.207
    20   1 H        0.924     0.104     1.750     2.068
    21   1 H        0.924     0.108     1.717     2.049
    22   1 H        0.923     0.115     1.655     2.012
    23   1 H        0.924     0.107     1.722     2.052
    24   1 H        0.860     0.226     0.985     1.554
    25   1 H        0.860     0.213     1.040     1.598

Wiberg/Mayer (AO) data.
largest (>0.10) Wiberg bond orders for each atom

     #   Z sym  total        # sym  WBO       # sym  WBO       # sym  WBO
 ---------------------------------------------------------------------------
     1   6 C    3.677 --     2 N    1.400    16 H    0.969    15 H    0.969
                             3 C    0.182
     2   7 N    3.735 --     1 C    1.400     3 C    1.231     6 C    1.026
     3   6 C    3.608 --     2 N    1.231     4 N    1.076    18 H    0.951
                             1 C    0.182
     4   7 N    3.503 --     5 C    1.293     3 C    1.076    25 H    0.913
                             9 N    0.101
     5   6 C    3.833 --     9 N    1.330     4 N    1.293    14 C    1.009
     6   6 C    3.859 --     7 C    1.639     2 N    1.026    17 H    0.897
                             8 O    0.210
     7   6 C    3.763 --     8 O    2.004     6 C    1.639
     8   8 O    2.324 --     7 C    2.004     6 C    0.210
     9   7 N    3.560 --     5 C    1.330    10 C    0.986    11 C    0.941
                            12 O    0.104     4 N    0.101
    10   6 C    3.932 --     9 N    0.986    19 H    0.972    21 H    0.965
                            20 H    0.959
    11   6 C    3.949 --    12 O    1.733    13 N    1.217     9 N    0.941
    12   8 O    2.088 --    11 C    1.733    13 N    0.196     9 N    0.104
    13   7 N    3.415 --    11 C    1.217    14 C    1.017    24 H    0.922
                            12 O    0.196
    14   6 C    3.967 --    13 N    1.017     5 C    1.009    23 H    0.934
                            22 H    0.929
    15   1 H    0.991 --     1 C    0.969
    16   1 H    0.991 --     1 C    0.969
    17   1 H    0.969 --     6 C    0.897
    18   1 H    0.990 --     3 C    0.951
    19   1 H    0.994 --    10 C    0.972
    20   1 H    0.985 --    10 C    0.959
    21   1 H    0.985 --    10 C    0.965
    22   1 H    0.976 --    14 C    0.929
    23   1 H    0.979 --    14 C    0.934
    24   1 H    0.949 --    13 N    0.922
    25   1 H    0.945 --     4 N    0.913
 ---------------------------------------------------------------------------

molecular dipole:
                 x           y           z       tot (Debye)
 q only:        1.573      -1.185      -0.206
   full:        1.776      -1.511      -0.096       5.932

           -------------------------------------------------
          | TOTAL ENERGY              -42.113073943964 Eh   |
          | GRADIENT NORM               0.003720294782 Eh/α |
          | HOMO-LUMO GAP               1.820814953011 eV   |
           -------------------------------------------------

 * finished run on 2024/06/05 at 19:57:59.468
