   * xtb version 6.6.1 (8d0f1dd) compiled by 'conda@1efc2f54142f' on 2023-08-01
          program call               : xtb struc.xyz --opt loose --input .xc1 --gfn2

   ID    Z sym.   atoms
    1    6 C      1, 3, 5-7, 10, 11, 14
    2    7 N      2, 4, 9, 13
    3    8 O      8, 12
    4    1 H      15-25
constraining bond 2 4 to    4.8400000 Å, actual value:    2.1863596 Å

          :  Hamiltonian                  GFN2-xTB          :
 * total energy  :   -29.6744853 Eh     change       -0.6650680E-10 Eh
 * total energy  :   -34.0044966 Eh     change       -0.4330011E+01 Eh
 * total energy  :   -36.9880440 Eh     change       -0.2983547E+01 Eh
 * total energy  :   -39.1537527 Eh     change       -0.2165709E+01 Eh
 * total energy  :   -40.7821809 Eh     change       -0.1628428E+01 Eh
 * total energy  :   -41.4082737 Eh     change       -0.6260928E+00 Eh
 * total energy  :   -41.4843387 Eh     change       -0.7606496E-01 Eh
 * total energy  :   -41.5080119 Eh     change       -0.2367328E-01 Eh
 * total energy  :   -41.5277602 Eh     change       -0.1974823E-01 Eh
 * total energy  :   -41.5400644 Eh     change       -0.1230422E-01 Eh
 * total energy  :   -42.1254500 Eh     change       -0.3441853E-02 Eh
 * total energy  :   -42.1257509 Eh     change       -0.3008750E-03 Eh
 * total energy  :   -42.1260242 Eh     change       -0.2733208E-03 Eh
 * total energy  :   -42.1262701 Eh     change       -0.2458900E-03 Eh
 * total energy  :   -42.1264817 Eh     change       -0.2115962E-03 Eh
 * total energy  :   -42.1266019 Eh     change       -0.1201740E-03 Eh
 * total energy  :   -42.1267268 Eh     change       -0.1249539E-03 Eh
 * total energy  :   -42.1267823 Eh     change       -0.5550531E-04 Eh
 * total energy  :   -42.1268230 Eh     change       -0.4063261E-04 Eh
   *** GEOMETRY OPTIMIZATION CONVERGED AFTER 47 ITERATIONS ***

 final structure:
================
25
 xtb: 6.6.1 (8d0f1dd)
C            3.06712993277327        1.00617110468388        0.20504184296254
N            2.27895282450646        1.85958046055926       -0.65412295157657
C            2.38652661744853       -0.31417349683927        0.22898715857515
N            0.78818681105331       -2.73880254839674       -0.33788368840394
C            0.28206350481185       -1.60726191465762       -0.09586424030828
C            1.04166783714304       -0.36056357318444        0.01425287899888
C            0.30007219157456        0.85596802740065       -0.07629230115440
O            0.93025733283651        2.00830768742116       -0.22709328883895
N           -1.02287293466118        0.86090795451651        0.03444634455871
C           -1.79963941227557        2.08598935779187        0.03120689999546
C           -1.78450381230035       -0.34232448283819        0.15464662931800
O           -2.97021883680556       -0.27104190782847        0.30748612765037
N           -1.08441283625436       -1.51287788919000        0.04417999959039
C           -1.83507414473330       -2.75661557321700        0.02643763661884
H            3.20546324552037        1.39534447466239        1.23028119057565
H            4.05536357633254        0.92493647737213       -0.25542180661187
H            2.63445181155864        2.80896145161396       -0.73621082321716
H            2.96326954432233       -1.20083568051599        0.43290875928044
H           -1.13701327665908        2.94220278278719       -0.04417174950631
H           -2.49498395695603        2.07027258712433       -0.80864932684779
H           -2.38765547172595        2.13903389521643        0.94805479216144
H           -1.53766496229005       -3.37474191552871        0.87306116740264
H           -1.60728946523998       -3.30011016105918       -0.89003298634220
H           -2.89636435410391       -2.52785503870482        0.08289367462779
H            1.78471974822545       -2.83223353758961       -0.45697032160836

          :  Hamiltonian                  GFN2-xTB          :
         :: total energy             -42.126822953540 Eh    ::
         :: gradient norm              0.001855394222 Eh/a0 ::
         :: HOMO-LUMO gap              1.732927517693 eV    ::
         :: SCC energy               -42.638761201002 Eh    ::
         :: -> dispersion             -0.022550773099 Eh    ::
         :: repulsion energy           0.511762674852 Eh    ::

    * Orbital Energies and Occupations

         #    Occupation            Energy/Eh            Energy/eV
      -------------------------------------------------------------
         1        2.0000           -0.9433473             -25.6698
       ...           ...                  ...                  ...
        25        1.9999           -0.6705919             -18.2477
        26        1.9999           -0.6652938             -18.1036
        27        1.9997           -0.6490433             -17.6614
        28        1.9994           -0.6383361             -17.3700
        29        1.9992           -0.6336268             -17.2419
        30        1.9991           -0.6313678             -17.1804
        31        1.9975           -0.6162345             -16.7686
        32        1.9961           -0.6088765             -16.5684
        33        1.9876           -0.5904806             -16.0678
        34        1.9870           -0.5897315             -16.0474
        35        1.9316           -0.5630257             -15.3207
        36        1.9111           -0.5587029             -15.2031
        37        1.8423           -0.5490523             -14.9405 (HOMO)
        38        0.3461           -0.4853684             -13.2075 (LUMO)
        39        0.0033           -0.4088942             -11.1266
        40        0.0005           -0.3795776             -10.3288
        41        0.0000           -0.2990438              -8.1374
        42        0.0000           -0.2799499              -7.6178
        43                         -0.1923442              -5.2340
        44                         -0.1471624              -4.0045
        45                         -0.1217760              -3.3137
        46                         -0.0970810              -2.6417
        47                         -0.0853011              -2.3212
        48                         -0.0534639              -1.4548
       ...                                ...                  ...
        67                          0.5377311              14.6324
      -------------------------------------------------------------
                  HL-Gap            0.0636839 Eh            1.7329 eV

     #   Z          covCN         q      C6AA      α(0)
     1   6 C        3.741    -0.005    20.738     6.497
     2   7 N        2.717    -0.080    22.807     7.093
     3   6 C        2.916    -0.007    28.200     8.708
     4   7 N        1.792    -0.269    27.819     7.812
     5   6 C        2.834     0.164    24.462     8.105
     6   6 C        2.963    -0.035    28.875     8.814
     7   6 C        2.816     0.225    23.265     7.903
     8   8 O        1.766    -0.137    16.367     5.463
     9   7 N        2.739    -0.032    21.864     6.945
    10   6 C        3.702    -0.072    22.037     6.712
    11   6 C        2.721     0.317    21.613     7.611
    12   8 O        0.859    -0.336    20.443     6.062
    13   7 N        2.753    -0.039    21.986     6.964
    14   6 C        3.708    -0.076    22.095     6.718
    15   1 H        0.922     0.089     1.891     2.150
    16   1 H        0.924     0.118     1.630     1.997
    17   1 H        0.860     0.210     1.056     1.610
    18   1 H        0.926     0.098     1.805     2.101
    19   1 H        0.925     0.103     1.754     2.071
    20   1 H        0.924     0.117     1.638     2.001
    21   1 H        0.924     0.119     1.621     1.991
    22   1 H        0.925     0.107     1.724     2.053
    23   1 H        0.925     0.112     1.676     2.025
    24   1 H        0.925     0.117     1.634     1.999
    25   1 H        0.860     0.192     1.150     1.680

Wiberg/Mayer (AO) data.
largest (>0.10) Wiberg bond orders for each atom

     #   Z sym  total        # sym  WBO       # sym  WBO       # sym  WBO
 ---------------------------------------------------------------------------
     1   6 C    3.954 --     3 C    1.045     2 N    1.007    16 H    0.933
                            15 H    0.922
     2   7 N    2.991 --     1 C    1.007     8 O    0.946    17 H    0.932
     3   6 C    3.739 --     6 C    1.583     1 C    1.045    18 H    0.956
     4   7 N    2.904 --     5 C    1.722    25 H    0.927
     5   6 C    3.952 --     4 N    1.722    13 N    1.126     6 C    1.023
     6   6 C    3.922 --     3 C    1.583     7 C    1.144     5 C    1.023
     7   6 C    3.802 --     9 N    1.324     8 O    1.173     6 C    1.144
     8   8 O    2.318 --     7 C    1.173     2 N    0.946
     9   7 N    3.575 --     7 C    1.324    11 C    0.987    10 C    0.972
    10   6 C    3.911 --    19 H    0.972     9 N    0.972    20 H    0.956
                            21 H    0.955
    11   6 C    3.941 --    12 O    1.716    13 N    1.153     9 N    0.987
    12   8 O    2.042 --    11 C    1.716    13 N    0.141
    13   7 N    3.552 --    11 C    1.153     5 C    1.126    14 C    0.969
                            12 O    0.141
    14   6 C    3.896 --    13 N    0.969    24 H    0.967    22 H    0.957
                            23 H    0.955
    15   1 H    0.968 --     1 C    0.922
    16   1 H    0.978 --     1 C    0.933
    17   1 H    0.953 --     2 N    0.932
    18   1 H    0.988 --     3 C    0.956
    19   1 H    0.988 --    10 C    0.972
    20   1 H    0.977 --    10 C    0.956
    21   1 H    0.978 --    10 C    0.955
    22   1 H    0.977 --    14 C    0.957
    23   1 H    0.975 --    14 C    0.955
    24   1 H    0.983 --    14 C    0.967
    25   1 H    0.956 --     4 N    0.927
 ---------------------------------------------------------------------------

molecular dipole:
                 x           y           z       tot (Debye)
 q only:        1.638       0.490      -0.050
   full:        2.209       0.990       0.183       6.171

           -------------------------------------------------
          | TOTAL ENERGY              -42.126822953540 Eh   |
          | GRADIENT NORM               0.001855394222 Eh/α |
          | HOMO-LUMO GAP               1.732927517693 eV   |
           -------------------------------------------------

 * finished run on 2024/06/05 at 19:57:53.086
