   * xtb version 6.6.1 (8d0f1dd) compiled by 'conda@1efc2f54142f' on 2023-08-01
          program call               : xtb struc.xyz --opt loose --input .xc1 --gfn2

   ID    Z sym.   atoms
    1    7 N      1, 17
    2    6 C      2-6, 8, 9, 11-16, 18-23, 25, 26, 28-33
    3    8 O      7, 10, 24, 27
    4    1 H      34-72
constraining bond 7 34 to    4.9000000 Å, actual value:    2.6914724 Å

          :  Hamiltonian                  GFN2-xTB          :
 * total energy  :   -98.5332209 Eh     change       -0.4035485E-08 Eh
 * total energy  :   -98.8386215 Eh     change       -0.3054006E+00 Eh
 * total energy  :   -99.0293266 Eh     change       -0.1907051E+00 Eh
 * total energy  :   -99.1044687 Eh     change       -0.7514206E-01 Eh
 * total energy  :   -99.1310913 Eh     change       -0.2662255E-01 Eh
 * total energy  :   -99.1431858 Eh     change       -0.1209450E-01 Eh
 * total energy  :   -99.1517608 Eh     change       -0.8575020E-02 Eh
 * total energy  :   -99.1588415 Eh     change       -0.7080688E-02 Eh
 * total energy  :   -99.1710000 Eh     change       -0.1215857E-01 Eh
 * total energy  :   -99.1871474 Eh     change       -0.1614737E-01 Eh
 * total energy  :   -99.2513005 Eh     change       -0.4287536E-03 Eh
 * total energy  :   -99.2515425 Eh     change       -0.2420292E-03 Eh
 * total energy  :   -99.2518255 Eh     change       -0.2829159E-03 Eh
 * total energy  :   -99.2519782 Eh     change       -0.1527927E-03 Eh
 * total energy  :   -99.2520654 Eh     change       -0.8716120E-04 Eh
 * total energy  :   -99.2521422 Eh     change       -0.7675066E-04 Eh
 * total energy  :   -99.2521991 Eh     change       -0.5689711E-04 Eh
 * total energy  :   -99.2522529 Eh     change       -0.5386928E-04 Eh
 * total energy  :   -99.2522991 Eh     change       -0.4622263E-04 Eh
   *** GEOMETRY OPTIMIZATION CONVERGED AFTER 36 ITERATIONS ***

 final structure:
================
72
 xtb: 6.6.1 (8d0f1dd)
N           -1.81893594559516        2.80459741732406        2.23167095334055
C           -1.79805564503408        2.08081014904960        1.21039129595212
C           -2.98384367237697        1.89711743518847        0.28327336503058
C           -3.47033935747404        0.45544501104353        0.39937320032411
C           -4.28858055257384       -0.09024213338840       -0.56764296800145
C           -4.72492701553581       -1.39104236944955       -0.54347658177372
O           -5.52451694243920       -1.96207174530842       -1.46952426936830
C           -6.03372365701457       -1.09812230572207       -2.45835015327008
C           -4.30176674812796       -2.23409793189448        0.52882042011596
O           -4.75133796330612       -3.50446806810575        0.47481310061009
C           -4.43546694304996       -4.38970149399714        1.52383488691145
C           -3.49141978062372       -1.69141742147987        1.51489568565665
C           -3.08501885782313       -0.36538477907143        1.45797386545618
C           -2.48017764248270        2.14156578856525       -1.16416751784315
C           -1.55393386553719        1.04290131778794       -1.71489826702192
C           -0.20000295130192        1.04448277493941       -1.11791491959167
N            0.47398428052288       -0.03604080688575       -0.73478963116645
C            1.85433349528482        0.06851381541348       -0.32496416439497
C            2.82587000282852       -0.38507396780604       -1.43153247055667
C            4.24240878031549       -0.17112154962545       -0.97582434607830
C            4.87723656036958        1.04052977030688       -1.19241626299923
C            6.17106710425815        1.25478972393737       -0.74245617436223
C            6.85521953895733        0.25968618928240       -0.05997410744529
O            8.11007825320412        0.35582348855369        0.41955015121155
C            8.83593848615528        1.54498188388500        0.20952298887528
C            6.21038611939385       -0.98631966606712        0.17107000367081
O            6.94655424492722       -1.89755524298155        0.83955101566966
C            6.40466258803246       -3.17264042004447        1.08664250132836
C            4.91655046865779       -1.17690066907108       -0.28706554634819
C           -0.11350287213261       -1.35391371145666       -0.76409370413185
C           -4.07240569306610        2.87973828420336        0.67667503462041
C           -4.91907692924530        2.48833294045335        1.83688965572273
C           -3.76093851542572        4.33456160137451        0.57694153987886
H           -5.82283824207956        2.91043142144775       -1.17551675044796
H           -6.63369828427174       -0.29979551167360       -2.01040474195171
H           -6.65566523145173       -1.71273768313230       -3.10521009140024
H           -5.22278916464040       -0.64681359799416       -3.03528353332516
H           -4.81275416137388       -4.02536302015249        2.48412346985642
H           -4.92967395682367       -5.32624094610623        1.27315561348028
H           -3.35565278265698       -4.55720158188356        1.59579776024530
H           -3.17043091892311       -2.29815022787608        2.34715593746651
H           -2.46940548454921        0.02990436723720        2.25295721049203
H           -3.35708023094190        2.18551214620847       -1.81007355592069
H           -1.96387970858187        3.10079710328903       -1.21214818584371
H           -2.04238720975300        0.07597924711717       -1.60826177056055
H           -1.44285936026309        1.24018010615235       -2.78931943811607
H           -0.91978747475890        1.51573647734418        0.85942967116982
H            0.34000083746035        1.97968002977864       -1.10312692661454
H            2.01087044922773       -0.54449091197210        0.56715792832222
H            2.07652848754783        1.10646052358846       -0.06826365145268
H            2.63105968538931        0.20004563791839       -2.33179620750871
H            2.65720818929399       -1.43794931370285       -1.66014226923613
H            4.36999622186842        1.82855356850833       -1.72819853524087
H            6.64134068917618        2.20539751871306       -0.93319295698670
H            8.35387930899058        2.39993686486044        0.69360664139514
H            8.96418538422333        1.75287290901235       -0.85700421932516
H            9.81035374683246        1.37611192290243        0.66381580116607
H            7.18305669194151       -3.72460421398065        1.60980115106198
H            5.51470441349510       -3.11467345420389        1.72181929734760
H            6.15739757595855       -3.69136363233967        0.15516317665069
H            4.42139337704165       -2.12137071207821       -0.12379306675072
H           -0.30946360811597       -1.67701175288998       -1.78868423139341
H           -1.05431267636809       -1.36685317558502       -0.20831453007012
H            0.57063831154968       -2.06102975382888       -0.30233447936739
H           -5.21004281594301        2.80887172898646       -0.55201826403050
H           -4.29341738388525        2.50535251901602        2.73480043554512
H           -5.32124971582225        1.48329150370527        1.73102014035414
H           -5.73584391472890        3.19033763918022        1.98306689366953
H           -3.03522499216533        4.57953559898322        1.35884770067473
H           -3.33566329635338        4.61479146564055       -0.38248895320420
H           -4.65157286677081        4.93210007334233        0.75168612712539
H           -0.96672266449546        2.86014533002919        2.78063766530400

          :  Hamiltonian                  GFN2-xTB          :
         :: total energy             -99.252299152659 Eh    ::
         :: gradient norm              0.002580466169 Eh/a0 ::
         :: HOMO-LUMO gap              0.450849004650 eV    ::
         :: SCC energy              -100.625451473234 Eh    ::
         :: -> dispersion             -0.076115634458 Eh    ::
         :: repulsion energy           1.371704207623 Eh    ::

    * Orbital Energies and Occupations

         #    Occupation            Energy/Eh            Energy/eV
      -------------------------------------------------------------
         1        2.0000           -0.8024072             -21.8346
       ...           ...                  ...                  ...
        78        1.9991           -0.5341521             -14.5350
        79        1.9989           -0.5300592             -14.4236
        80        1.9988           -0.5292435             -14.4014
        81        1.9986           -0.5262310             -14.3195
        82        1.9985           -0.5251940             -14.2913
        83        1.9980           -0.5205256             -14.1642
        84        1.9974           -0.5165955             -14.0573
        85        1.9820           -0.4857721             -13.2185
        86        1.9805           -0.4844762             -13.1833
        87        1.9703           -0.4777310             -12.9997
        88        1.8608           -0.4523830             -12.3100
        89        1.8557           -0.4517669             -12.2932
        90        1.2089           -0.4180372             -11.3754 (HOMO)
        91        0.6985           -0.4014688             -10.9245 (LUMO)
        92        0.4209           -0.3903862             -10.6229
        93        0.0288           -0.3444079              -9.3718
        94        0.0031           -0.3087229              -8.4008
        95        0.0030           -0.3084866              -8.3943
        96        0.0026           -0.3062955              -8.3347
        97        0.0017           -0.2991486              -8.1402
        98        0.0000           -0.1837829              -5.0010
        99        0.0000           -0.1779705              -4.8428
       100                         -0.1331053              -3.6220
       101                         -0.0670991              -1.8259
       ...                                ...                  ...
       171                          0.5804394              15.7946
      -------------------------------------------------------------
                  HL-Gap            0.0165684 Eh            0.4508 eV

     #   Z          covCN         q      C6AA      α(0)
     1   7 N        1.773    -0.293    28.411     7.893
     2   6 C        2.828     0.097    25.833     8.329
     3   6 C        3.910     0.012    20.311     6.406
     4   6 C        2.974     0.004    27.930     8.669
     5   6 C        2.003    -0.147    35.200     9.582
     6   6 C        2.876     0.134    25.064     8.207
     7   8 O        1.705    -0.232    17.851     5.704
     8   6 C        3.659     0.030    20.351     6.474
     9   6 C        2.865     0.126    25.233     8.234
    10   8 O        1.706    -0.232    17.843     5.703
    11   6 C        3.645     0.030    20.412     6.494
    12   6 C        2.912    -0.080    30.010     8.983
    13   6 C        2.925    -0.055    29.367     8.887
    14   6 C        3.809    -0.065    21.738     6.637
    15   6 C        3.802    -0.069    21.827     6.652
    16   6 C        2.843     0.003    27.957     8.665
    17   7 N        2.729     0.008    21.125     6.826
    18   6 C        3.756    -0.015    20.904     6.519
    19   6 C        3.808    -0.070    21.840     6.653
    20   6 C        2.970    -0.001    28.055     8.688
    21   6 C        2.922    -0.050    29.234     8.867
    22   6 C        2.914    -0.068    29.697     8.936
    23   6 C        2.865     0.133    25.099     8.212
    24   8 O        1.706    -0.224    17.723     5.684
    25   6 C        3.645     0.026    20.474     6.503
    26   6 C        2.863     0.132    25.106     8.213
    27   8 O        1.706    -0.227    17.765     5.691
    28   6 C        3.645     0.028    20.439     6.498
    29   6 C        2.920    -0.080    30.000     8.982
    30   6 C        3.699    -0.068    21.975     6.704
    31   6 C        2.972     0.038    27.145     8.546
    32   6 C        3.756    -0.119    22.835     6.813
    33   6 C        3.755    -0.124    22.939     6.829
    34   1 H        0.363     0.009     6.223     4.480
    35   1 H        0.924     0.054     2.275     2.359
    36   1 H        0.925     0.075     2.030     2.228
    37   1 H        0.924     0.049     2.330     2.387
    38   1 H        0.924     0.053     2.285     2.364
    39   1 H        0.925     0.079     1.987     2.204
    40   1 H        0.924     0.046     2.371     2.408
    41   1 H        0.926     0.048     2.345     2.395
    42   1 H        0.926     0.035     2.513     2.479
    43   1 H        0.925     0.069     2.099     2.266
    44   1 H        0.924     0.049     2.331     2.388
    45   1 H        0.925     0.073     2.052     2.240
    46   1 H        0.923     0.079     1.988     2.205
    47   1 H        0.923     0.014     2.834     2.633
    48   1 H        0.926     0.066     2.134     2.284
    49   1 H        0.924     0.066     2.133     2.284
    50   1 H        0.924     0.066     2.134     2.284
    51   1 H        0.924     0.055     2.260     2.351
    52   1 H        0.924     0.055     2.258     2.350
    53   1 H        0.926     0.044     2.401     2.423
    54   1 H        0.926     0.057     2.234     2.337
    55   1 H        0.924     0.053     2.285     2.364
    56   1 H        0.924     0.055     2.261     2.352
    57   1 H        0.925     0.081     1.967     2.193
    58   1 H        0.925     0.081     1.971     2.196
    59   1 H        0.924     0.047     2.355     2.400
    60   1 H        0.924     0.052     2.300     2.372
    61   1 H        0.926     0.046     2.371     2.408
    62   1 H        0.924     0.077     2.011     2.218
    63   1 H        0.924     0.077     2.006     2.215
    64   1 H        0.925     0.079     1.989     2.206
    65   1 H        0.392     0.044     4.871     3.935
    66   1 H        0.924     0.093     1.851     2.128
    67   1 H        0.925     0.061     2.187     2.313
    68   1 H        0.925     0.065     2.141     2.288
    69   1 H        0.924     0.094     1.839     2.121
    70   1 H        0.925     0.053     2.278     2.360
    71   1 H        0.925     0.067     2.119     2.276
    72   1 H        0.860     0.157     1.354     1.823

Wiberg/Mayer (AO) data.
largest (>0.10) Wiberg bond orders for each atom

     #   Z sym  total        # sym  WBO       # sym  WBO       # sym  WBO
 ---------------------------------------------------------------------------
     1   7 N    3.024 --     2 C    1.941    72 H    0.942
     2   6 C    3.890 --     1 N    1.941     3 C    0.958    47 H    0.905
     3   6 C    3.967 --    31 C    0.987     2 C    0.958    14 C    0.953
                             4 C    0.952
     4   6 C    3.913 --     5 C    1.397    13 C    1.366     3 C    0.952
     5   6 C    3.035 --     6 C    1.399     4 C    1.397
     6   6 C    3.861 --     5 C    1.399     9 C    1.190     7 O    1.090
     7   8 O    2.232 --     6 C    1.090     8 C    0.978
     8   6 C    3.927 --    36 H    0.979     7 O    0.978    35 H    0.974
                            37 H    0.973
     9   6 C    3.847 --    12 C    1.387     6 C    1.190    10 O    1.096
    10   8 O    2.242 --     9 C    1.096    11 C    0.976
    11   6 C    3.929 --    39 H    0.977    10 O    0.976    40 H    0.974
                            38 H    0.974
    12   6 C    3.958 --    13 C    1.413     9 C    1.387    41 H    0.960
    13   6 C    3.898 --    12 C    1.413     4 C    1.366    42 H    0.955
    14   6 C    3.965 --    15 C    0.984    44 H    0.973    43 H    0.967
                             3 C    0.953
    15   6 C    3.985 --    16 C    1.059    14 C    0.984    45 H    0.957
                            46 H    0.927
    16   6 C    3.565 --    17 N    1.390    15 C    1.059    48 H    0.958
    17   7 N    3.463 --    16 C    1.390    30 C    0.999    18 C    0.989
    18   6 C    3.957 --    17 N    0.989    50 H    0.968    19 C    0.967
                            49 H    0.964
    19   6 C    3.976 --    20 C    1.007    51 H    0.972    52 H    0.972
                            18 C    0.967
    20   6 C    3.948 --    21 C    1.412    29 C    1.379    19 C    1.007
    21   6 C    3.953 --    22 C    1.415    20 C    1.412    53 H    0.968
    22   6 C    3.962 --    21 C    1.415    23 C    1.386    54 H    0.963
    23   6 C    3.899 --    22 C    1.386    26 C    1.222    24 O    1.107
    24   8 O    2.255 --    23 C    1.107    25 C    0.977
    25   6 C    3.930 --    57 H    0.977    24 O    0.977    55 H    0.973
                            56 H    0.973
    26   6 C    3.902 --    29 C    1.397    23 C    1.222    27 O    1.101
    27   8 O    2.254 --    26 C    1.101    28 C    0.979
    28   6 C    3.933 --    27 O    0.979    58 H    0.977    59 H    0.974
                            60 H    0.974
    29   6 C    3.961 --    26 C    1.397    20 C    1.379    61 H    0.963
    30   6 C    3.959 --    17 N    0.999    64 H    0.978    62 H    0.967
                            63 H    0.964
    31   6 C    3.414 --    32 C    1.060    33 C    1.055     3 C    0.987
                            65 H    0.212
    32   6 C    3.974 --    31 C    1.060    68 H    0.975    67 H    0.970
                            66 H    0.922
    33   6 C    3.975 --    31 C    1.055    71 H    0.974    70 H    0.974
                            69 H    0.921
    34   1 H    0.833 --    65 H    0.775
    35   1 H    0.992 --     8 C    0.974
    36   1 H    0.993 --     8 C    0.979
    37   1 H    0.993 --     8 C    0.973
    38   1 H    0.993 --    11 C    0.974
    39   1 H    0.993 --    11 C    0.977
    40   1 H    0.994 --    11 C    0.974
    41   1 H    0.990 --    12 C    0.960
    42   1 H    0.987 --    13 C    0.955
    43   1 H    0.994 --    14 C    0.967
    44   1 H    0.997 --    14 C    0.973
    45   1 H    0.994 --    15 C    0.957
    46   1 H    0.968 --    15 C    0.927
    47   1 H    0.987 --     2 C    0.905
    48   1 H    0.995 --    16 C    0.958
    49   1 H    0.990 --    18 C    0.964
    50   1 H    0.995 --    18 C    0.968
    51   1 H    0.996 --    19 C    0.972
    52   1 H    0.996 --    19 C    0.972
    53   1 H    0.998 --    21 C    0.968
    54   1 H    0.995 --    22 C    0.963
    55   1 H    0.992 --    25 C    0.973
    56   1 H    0.992 --    25 C    0.973
    57   1 H    0.993 --    25 C    0.977
    58   1 H    0.993 --    28 C    0.977
    59   1 H    0.994 --    28 C    0.974
    60   1 H    0.993 --    28 C    0.974
    61   1 H    0.997 --    29 C    0.963
    62   1 H    0.984 --    30 C    0.967
    63   1 H    0.987 --    30 C    0.964
    64   1 H    0.994 --    30 C    0.978
    65   1 H    0.999 --    34 H    0.775    31 C    0.212
    66   1 H    0.952 --    32 C    0.922
    67   1 H    0.989 --    32 C    0.970
    68   1 H    0.991 --    32 C    0.975
    69   1 H    0.954 --    33 C    0.921
    70   1 H    0.991 --    33 C    0.974
    71   1 H    0.990 --    33 C    0.974
    72   1 H    0.970 --     1 N    0.942
 ---------------------------------------------------------------------------

molecular dipole:
                 x           y           z       tot (Debye)
 q only:        0.066       0.943      -0.449
   full:        0.457       0.744      -0.320       2.363

           -------------------------------------------------
          | TOTAL ENERGY              -99.252299152659 Eh   |
          | GRADIENT NORM               0.002580466169 Eh/α |
          | HOMO-LUMO GAP               0.450849004650 eV   |
           -------------------------------------------------

 * finished run on 2024/04/06 at 11:12:45.421
