   * xtb version 6.6.1 (8d0f1dd) compiled by 'conda@1efc2f54142f' on 2023-08-01
          program call               : xtb struc.xyz --opt loose --input .xc1 --gfn2

   ID    Z sym.   atoms
    1    7 N      1, 17
    2    6 C      2-6, 8, 9, 11-16, 18-23, 25, 26, 28-33
    3    8 O      7, 10, 24, 27
    4    1 H      34-72
constraining bond 27 58 to    3.9000000 Å, actual value:    1.9958920 Å

          :  Hamiltonian                  GFN2-xTB          :
 * total energy  :   -98.7567635 Eh     change       -0.4035485E-08 Eh
 * total energy  :   -98.9695142 Eh     change       -0.2127507E+00 Eh
 * total energy  :   -99.0981437 Eh     change       -0.1286295E+00 Eh
 * total energy  :   -99.1587670 Eh     change       -0.6062329E-01 Eh
 * total energy  :   -99.1858403 Eh     change       -0.2707333E-01 Eh
 * total energy  :   -99.1971884 Eh     change       -0.1134805E-01 Eh
 * total energy  :   -99.2026525 Eh     change       -0.5464144E-02 Eh
 * total energy  :   -99.2085008 Eh     change       -0.5848242E-02 Eh
 * total energy  :   -99.2192473 Eh     change       -0.1074657E-01 Eh
 * total energy  :   -99.2296816 Eh     change       -0.1043423E-01 Eh
 * total energy  :   -99.2862715 Eh     change       -0.1815190E-03 Eh
 * total energy  :   -99.2864348 Eh     change       -0.1633450E-03 Eh
 * total energy  :   -99.2866547 Eh     change       -0.2199185E-03 Eh
 * total energy  :   -99.2868482 Eh     change       -0.1934410E-03 Eh
 * total energy  :   -99.2870053 Eh     change       -0.1570955E-03 Eh
 * total energy  :   -99.2871058 Eh     change       -0.1005189E-03 Eh
 * total energy  :   -99.2871822 Eh     change       -0.7644704E-04 Eh
 * total energy  :   -99.2872355 Eh     change       -0.5330585E-04 Eh
 * total energy  :   -99.2872771 Eh     change       -0.4157213E-04 Eh
   *** GEOMETRY OPTIMIZATION CONVERGED AFTER 96 ITERATIONS ***

 final structure:
================
72
 xtb: 6.6.1 (8d0f1dd)
N           -1.85949636639383        2.84021498304214        2.10845959506562
C           -1.85813148077788        2.02050229732856        1.16737130376916
C           -3.02327954971248        1.78095395397239        0.24542851817163
C           -3.47188224955833        0.33248355751116        0.37417169001017
C           -4.36811963414320       -0.20552302148795       -0.55082664374417
C           -4.81952058947361       -1.51171811852572       -0.44595534364062
O           -5.68438549246739       -2.10702492872869       -1.28906139950892
C           -6.24453060155729       -1.36675137033575       -2.34788413298933
C           -4.35704580052049       -2.32963428771460        0.62356214620090
O           -4.84232049939766       -3.58234895041224        0.64394010888903
C           -4.47158587443686       -4.44905833213792        1.69210911948367
C           -3.47146400378871       -1.78472637415436        1.54219959758266
C           -3.03989393190154       -0.47238368639116        1.41975627707723
C           -2.50255998222615        2.05230475260477       -1.19008216255996
C           -1.50276664010265        1.00599883825709       -1.70301429311393
C           -0.14609263974727        1.17755603415124       -1.13939110841771
N            0.69280310742693        0.21897194219932       -0.85469899768930
C            2.04470984946333        0.52210461718098       -0.44794121352276
C            3.02031248705299        0.44785559004470       -1.63911159508755
C            4.42940976189307        0.36900355856073       -1.12750295799254
C            5.35675401176386        1.39001021938747       -1.28997501653956
C            6.63928577316472        1.27632713176110       -0.77532142636352
C            7.02504549807427        0.15134870996396       -0.05137768046337
O            8.22551708354352       -0.04860358437818        0.51247855536390
C            9.22774629187729        0.93650904498619        0.37923223210963
C            6.06565387840409       -0.87921028039105        0.13672540977503
O            6.46071079233671       -1.95333994866175        0.87780652579506
C            5.64768249435794       -2.82988200810710        1.36759434813310
C            4.80647067550074       -0.77008918098946       -0.43343416482185
C            0.34678891621172       -1.17884022304201       -0.93385510215366
C           -4.24653783668017        2.69873519066957        0.54210777971859
C           -4.82521462939270        2.42650300859990        1.92825789749265
C           -3.93535075875173        4.18603834696527        0.39783073047971
H           -4.73053171851604        0.40894041065995       -1.35822705486456
H           -6.80847937880873       -0.50409287726545       -1.98039411136131
H           -6.92300325935637       -2.05028797217475       -2.85456154009139
H           -5.47779416512742       -1.03121324800906       -3.05371939987958
H           -4.78336174205610       -4.05603101847026        2.66419501791879
H           -4.99347514269391       -5.38364556619305        1.49602125945103
H           -3.39258463864613       -4.63024339879930        1.69953950389128
H           -3.11442624309211       -2.37459019224086        2.37022819235983
H           -2.37304824332361       -0.07888936862640        2.17072380121863
H           -3.35453475589518        2.07952081218342       -1.86839064862751
H           -2.03382674473800        3.03659411465772       -1.21414795260437
H           -1.88993432775882        0.00182561010796       -1.52932906149780
H           -1.41589187995128        1.13680134320029       -2.78929307874035
H           -0.97939774330303        1.41061089399639        0.89039852677571
H            0.22508730612202        2.19037580024507       -1.05081536666687
H            2.34075966490303       -0.22384668841957        0.29585547190818
H            2.08871905859132        1.51586168167672        0.00116553004381
H            2.88744350745754        1.31527536431905       -2.28623585468965
H            2.80278666038713       -0.45490452167917       -2.21120509138015
H            5.08862714941130        2.28405014866840       -1.83281671981088
H            7.33824188598557        2.08097188629316       -0.93542458079928
H            8.92194364263115        1.88081945597044        0.83937017629840
H            9.48512836418803        1.10488909844126       -0.66986067584496
H           10.09557403054846        0.54329673888225        0.90520172100467
H            2.56486293543772       -2.05523890932679        0.80298159276248
H            6.11839915059085       -3.63085695892736        1.91308182381313
H            4.56987466609787       -2.76465520046488        1.28088428365572
H            4.09292614805482       -1.56910764319541       -0.31451240016860
H            0.35616874192309       -1.52914302140544       -1.96621301695665
H           -0.64053405240769       -1.35675658734209       -0.50977334840320
H            1.07661596949032       -1.75495755549410       -0.35915361625655
H           -5.01232026778058        2.43896179974061       -0.19818391117891
H           -4.10349653775816        2.69612546000291        2.69306436799819
H           -5.09066977667274        1.37867975489325        2.04560298331467
H           -5.72090125314959        3.02478681518681        2.07309955239968
H           -3.13885795356722        4.47159620140835        1.07807946712707
H           -3.65345288290559        4.44772979115583       -0.61859754646821
H           -4.82161775366948        4.76090601507510        0.65324478418121
H           -1.01321488370972        2.93969357210667        2.65978316623521

          :  Hamiltonian                  GFN2-xTB          :
         :: total energy             -99.287277103760 Eh    ::
         :: gradient norm              0.002415668871 Eh/a0 ::
         :: HOMO-LUMO gap              1.258740977966 eV    ::
         :: SCC energy              -100.669093040922 Eh    ::
         :: -> dispersion             -0.094804799294 Eh    ::
         :: repulsion energy           1.380557003392 Eh    ::

    * Orbital Energies and Occupations

         #    Occupation            Energy/Eh            Energy/eV
      -------------------------------------------------------------
         1        2.0000           -0.8557427             -23.2859
       ...           ...                  ...                  ...
        78        1.9973           -0.5337192             -14.5232
        79        1.9972           -0.5330550             -14.5052
        80        1.9966           -0.5297495             -14.4152
        81        1.9957           -0.5259751             -14.3125
        82        1.9937           -0.5200414             -14.1510
        83        1.9928           -0.5179194             -14.0933
        84        1.9914           -0.5151009             -14.0166
        85        1.9907           -0.5137617             -13.9802
        86        1.9703           -0.4952826             -13.4773
        87        1.9375           -0.4832009             -13.1486
        88        1.9078           -0.4768010             -12.9744
        89        1.7988           -0.4635237             -12.6131
        90        1.7131           -0.4571267             -12.4391 (HOMO)
        91        0.4866           -0.4108688             -11.1803 (LUMO)
        92        0.2249           -0.3961270             -10.7792
        93        0.0099           -0.3447871              -9.3821
        94        0.0026           -0.3236783              -8.8077
        95        0.0022           -0.3209320              -8.7330
        96        0.0021           -0.3198977              -8.7049
        97        0.0018           -0.3181008              -8.6560
        98        0.0000           -0.1998396              -5.4379
        99        0.0000           -0.1955303              -5.3207
       100                         -0.1272873              -3.4637
       101                         -0.0726943              -1.9781
       ...                                ...                  ...
       171                          0.5666946              15.4205
      -------------------------------------------------------------
                  HL-Gap            0.0462579 Eh            1.2587 eV

     #   Z          covCN         q      C6AA      α(0)
     1   7 N        1.774    -0.261    27.611     7.781
     2   6 C        2.827     0.102    25.729     8.312
     3   6 C        3.908     0.007    20.403     6.420
     4   6 C        2.974     0.003    27.952     8.672
     5   6 C        2.919    -0.079    29.976     8.978
     6   6 C        2.861     0.132    25.104     8.213
     7   8 O        1.706    -0.222    17.681     5.677
     8   6 C        3.644     0.026    20.479     6.505
     9   6 C        2.864     0.134    25.075     8.208
    10   8 O        1.706    -0.217    17.610     5.666
    11   6 C        3.645     0.023    20.516     6.510
    12   6 C        2.913    -0.068    29.700     8.936
    13   6 C        2.921    -0.047    29.162     8.856
    14   6 C        3.813    -0.066    21.761     6.640
    15   6 C        3.803    -0.070    21.843     6.654
    16   6 C        2.849     0.023    27.495     8.594
    17   7 N        2.729     0.055    20.290     6.690
    18   6 C        3.762    -0.029    21.138     6.554
    19   6 C        3.809    -0.066    21.761     6.640
    20   6 C        2.970     0.013    27.727     8.637
    21   6 C        2.921    -0.036    28.907     8.817
    22   6 C        2.915    -0.065    29.622     8.925
    23   6 C        2.861     0.144    24.869     8.174
    24   8 O        1.706    -0.220    17.658     5.674
    25   6 C        3.645     0.021    20.550     6.515
    26   6 C        2.876     0.106    25.653     8.303
    27   8 O        1.709    -0.074    15.464     5.309
    28   6 C        2.739     0.057    26.709     8.462
    29   6 C        2.923    -0.058    29.451     8.900
    30   6 C        3.703    -0.081    22.208     6.738
    31   6 C        3.853    -0.007    20.674     6.467
    32   6 C        3.756    -0.119    22.826     6.812
    33   6 C        3.755    -0.120    22.861     6.818
    34   1 H        0.926     0.053     2.278     2.360
    35   1 H        0.924     0.056     2.244     2.342
    36   1 H        0.925     0.084     1.935     2.175
    37   1 H        0.924     0.050     2.318     2.381
    38   1 H        0.924     0.059     2.206     2.323
    39   1 H        0.925     0.085     1.932     2.173
    40   1 H        0.924     0.058     2.227     2.334
    41   1 H        0.926     0.062     2.174     2.306
    42   1 H        0.926     0.048     2.344     2.394
    43   1 H        0.925     0.063     2.170     2.304
    44   1 H        0.924     0.057     2.237     2.339
    45   1 H        0.925     0.074     2.047     2.238
    46   1 H        0.924     0.088     1.902     2.157
    47   1 H        0.922     0.012     2.853     2.642
    48   1 H        0.925     0.078     2.001     2.212
    49   1 H        0.924     0.131     1.528     1.933
    50   1 H        0.924     0.058     2.217     2.328
    51   1 H        0.924     0.052     2.295     2.369
    52   1 H        0.924     0.069     2.095     2.264
    53   1 H        0.926     0.060     2.201     2.320
    54   1 H        0.926     0.068     2.111     2.272
    55   1 H        0.924     0.059     2.206     2.323
    56   1 H        0.924     0.061     2.192     2.315
    57   1 H        0.925     0.086     1.915     2.164
    58   1 H        0.000    -0.666  1231.715    64.173
    59   1 H        0.926     0.111     1.685     2.030
    60   1 H        0.925     0.125     1.574     1.962
    61   1 H        0.926     0.111     1.690     2.033
    62   1 H        0.924     0.077     2.007     2.215
    63   1 H        0.925     0.073     2.050     2.239
    64   1 H        0.924     0.139     1.470     1.896
    65   1 H        0.924     0.040     2.453     2.449
    66   1 H        0.925     0.069     2.094     2.263
    67   1 H        0.925     0.037     2.488     2.466
    68   1 H        0.925     0.054     2.273     2.358
    69   1 H        0.925     0.065     2.144     2.290
    70   1 H        0.925     0.036     2.498     2.472
    71   1 H        0.925     0.057     2.231     2.336
    72   1 H        0.860     0.163     1.319     1.799

Wiberg/Mayer (AO) data.
largest (>0.10) Wiberg bond orders for each atom

     #   Z sym  total        # sym  WBO       # sym  WBO       # sym  WBO
 ---------------------------------------------------------------------------
     1   7 N    3.035 --     2 C    1.960    72 H    0.939
     2   6 C    3.936 --     1 N    1.960     3 C    0.992    47 H    0.905
     3   6 C    3.972 --     2 C    0.992     4 C    0.971    14 C    0.955
                            31 C    0.942
     4   6 C    3.932 --    13 C    1.401     5 C    1.373     3 C    0.971
     5   6 C    3.954 --     6 C    1.394     4 C    1.373    34 H    0.957
     6   6 C    3.889 --     5 C    1.394     9 C    1.211     7 O    1.108
     7   8 O    2.252 --     6 C    1.108     8 C    0.977
     8   6 C    3.928 --     7 O    0.977    36 H    0.976    37 H    0.972
                            35 H    0.972
     9   6 C    3.885 --    12 C    1.379     6 C    1.211    10 O    1.116
    10   8 O    2.253 --     9 C    1.116    11 C    0.974
    11   6 C    3.924 --    39 H    0.976    10 O    0.974    38 H    0.971
                            40 H    0.971
    12   6 C    3.952 --    13 C    1.416     9 C    1.379    41 H    0.962
    13   6 C    3.940 --    12 C    1.416     4 C    1.401    42 H    0.961
    14   6 C    3.979 --    15 C    0.990    44 H    0.971    43 H    0.968
                             3 C    0.955
    15   6 C    3.986 --    16 C    1.059    14 C    0.990    45 H    0.953
                            46 H    0.922
    16   6 C    3.734 --    17 N    1.521    15 C    1.059    48 H    0.954
    17   7 N    3.595 --    16 C    1.521    30 C    0.993    18 C    0.983
    18   6 C    3.924 --    17 N    0.983    50 H    0.969    19 C    0.965
                            49 H    0.924
    19   6 C    3.979 --    20 C    1.010    51 H    0.975    18 C    0.965
                            52 H    0.963
    20   6 C    3.957 --    29 C    1.404    21 C    1.390    19 C    1.010
    21   6 C    3.929 --    22 C    1.431    20 C    1.390    53 H    0.966
    22   6 C    3.956 --    21 C    1.431    23 C    1.365    54 H    0.962
    23   6 C    3.891 --    22 C    1.365    26 C    1.230    24 O    1.125
    24   8 O    2.276 --    23 C    1.125    25 C    0.969
    25   6 C    3.923 --    57 H    0.976    56 H    0.973    55 H    0.973
                            24 O    0.969
    26   6 C    3.884 --    29 C    1.374    23 C    1.230    27 O    1.033
    27   8 O    2.467 --    28 C    1.354    26 C    1.033
    28   6 C    3.416 --    27 O    1.354    59 H    0.961    60 H    0.943
    29   6 C    3.902 --    20 C    1.404    26 C    1.374    61 H    0.930
    30   6 C    3.920 --    17 N    0.993    63 H    0.964    62 H    0.959
                            64 H    0.937
    31   6 C    3.968 --    33 C    1.008    32 C    1.008    65 H    0.958
                             3 C    0.942
    32   6 C    3.974 --    31 C    1.008    67 H    0.981    68 H    0.980
                            66 H    0.972
    33   6 C    3.977 --    31 C    1.008    70 H    0.982    71 H    0.979
                            69 H    0.973
    34   1 H    0.996 --     5 C    0.957
    35   1 H    0.991 --     8 C    0.972
    36   1 H    0.992 --     8 C    0.976
    37   1 H    0.992 --     8 C    0.972
    38   1 H    0.990 --    11 C    0.971
    39   1 H    0.992 --    11 C    0.976
    40   1 H    0.990 --    11 C    0.971
    41   1 H    0.994 --    12 C    0.962
    42   1 H    0.997 --    13 C    0.961
    43   1 H    0.995 --    14 C    0.968
    44   1 H    0.996 --    14 C    0.971
    45   1 H    0.993 --    15 C    0.953
    46   1 H    0.976 --    15 C    0.922
    47   1 H    0.981 --     2 C    0.905
    48   1 H    0.994 --    16 C    0.954
    49   1 H    0.979 --    18 C    0.924
    50   1 H    0.995 --    18 C    0.969
    51   1 H    0.996 --    19 C    0.975
    52   1 H    0.992 --    19 C    0.963
    53   1 H    0.995 --    21 C    0.966
    54   1 H    0.994 --    22 C    0.962
    55   1 H    0.992 --    25 C    0.973
    56   1 H    0.992 --    25 C    0.973
    57   1 H    0.992 --    25 C    0.976
    58   1 H    0.125
    59   1 H    0.986 --    28 C    0.961
    60   1 H    0.984 --    28 C    0.943
    61   1 H    0.985 --    29 C    0.930
    62   1 H    0.986 --    30 C    0.959
    63   1 H    0.990 --    30 C    0.964
    64   1 H    0.980 --    30 C    0.937
    65   1 H    0.990 --    31 C    0.958
    66   1 H    0.989 --    32 C    0.972
    67   1 H    0.995 --    32 C    0.981
    68   1 H    0.993 --    32 C    0.980
    69   1 H    0.991 --    33 C    0.973
    70   1 H    0.996 --    33 C    0.982
    71   1 H    0.992 --    33 C    0.979
    72   1 H    0.967 --     1 N    0.939
 ---------------------------------------------------------------------------

molecular dipole:
                 x           y           z       tot (Debye)
 q only:        1.094       1.302      -1.453
   full:        1.413       1.265      -1.554       6.232

           -------------------------------------------------
          | TOTAL ENERGY              -99.287277103760 Eh   |
          | GRADIENT NORM               0.002415668871 Eh/α |
          | HOMO-LUMO GAP               1.258740977966 eV   |
           -------------------------------------------------

 * finished run on 2024/04/06 at 11:14:47.736
