   * xtb version 6.6.1 (8d0f1dd) compiled by 'conda@1efc2f54142f' on 2023-08-01
          program call               : xtb xtbopt.xyz --opt crude --input .xc2 --gfn2

   ID    Z sym.   atoms
    1    7 N      1, 17
    2    6 C      2-6, 8, 9, 11-16, 18-23, 25, 26, 28-33
    3    8 O      7, 10, 24, 27
    4    1 H      34-72

          :  Hamiltonian                  GFN2-xTB          :
 * total energy  :   -99.2756059 Eh     change       -0.2201261E-10 Eh
   *** GEOMETRY OPTIMIZATION CONVERGED AFTER 1 ITERATIONS ***

 final structure:
================
72
 xtb: 6.6.1 (8d0f1dd)
N           -1.49198257019215        2.34367918044277        1.82231148028414
C           -2.02267072439697        1.42481458753917        1.15759946563848
C           -3.23516302967337        1.62746700646980        0.28188872023989
C           -4.11267487212656        0.38545722138583        0.38188010902133
C           -4.96033320975690        0.01002196992395       -0.65450611691322
C           -5.80848859231529       -1.10403291716135       -0.54554063230945
O           -6.65371057405982       -1.53081860930874       -1.49832445812513
C           -6.77692206356670       -0.80902232891886       -2.70018042865320
C           -5.72991708270146       -1.78186533474107        0.64961265283498
O           -1.26438680186629       -1.44230899294516        0.82615056930950
C           -1.50135526224924       -2.40774408817315        1.73114019195433
C           -4.94710768352433       -1.45902870020143        1.70046923969409
C           -4.11865929072066       -0.34118179356696        1.56651769801828
C           -2.67868968092099        1.82163214074172       -1.15059843551650
C           -1.81996848136131        0.64622054857662       -1.62632258293407
C           -0.42364835883334        0.75250385819849       -1.15499283064472
N            0.43909513821633       -0.22056303081977       -1.20241013600608
C            1.75845126350122       -0.09013072992080       -0.63043426145299
C            2.86717677483730       -0.10890924208663       -1.69671820162248
C            4.21569304169278       -0.06431842424680       -1.03111991009187
C            4.97411789202079        1.09478872157494       -1.01766785565729
C            6.20848773380595        1.12828936259885       -0.38673347028152
C            6.70567935458753        0.00281065097468        0.25567722265992
O            7.88274171123849       -0.08110874737956        0.89774520930666
C            8.73065320575090        1.04405540764775        0.93883544014136
C            5.92906013728005       -1.19134437878698        0.25511087279759
O            6.47976000543869       -2.23293276475241        0.90507212648642
C            5.78717144667582       -3.45763538703202        0.96112258446245
C            4.70276648544234       -1.20190352170748       -0.39007080635335
C            0.06366135501323       -1.52408527906216       -1.67983473151930
C           -4.11519843036928        2.85312625289471        0.68078327527387
C           -4.58457488244619        2.76258243714052        2.13105826015320
C           -3.42655460480523        4.19892873862988        0.46385735963389
H           -4.99489403517610        0.58161516224705       -1.56768403263787
H           -7.10741410429548        0.21858591591250       -2.52051489494646
H           -7.53617502291614       -1.33308773290356       -3.27776626864151
H           -5.83827396967399       -0.80251791874071       -3.26367166789068
H           -2.42978599984018       -2.96191657368319        1.50287658042818
H           -0.67456477339042       -3.14149847142088        1.75964672416336
H           -1.60529243716379       -1.99955237978210        2.75258618945125
H           -4.95355613342064       -2.02652456642240        2.61721456189440
H           -3.49657179071659       -0.05146270535652        2.39827382107754
H           -3.51201457106319        1.97540379257820       -1.83517339722322
H           -2.07728490657533        2.72991861165684       -1.16764708562345
H           -2.24579272344392       -0.29766378502445       -1.27302159810590
H           -1.82401839222194        0.61223173048302       -2.72280941010150
H           -1.63445388881823        0.39015973000099        1.11296220302783
H           -0.08196895151119        1.69764953354563       -0.75864865815505
H            1.90677015176144       -0.91780421003761        0.06800955916596
H            1.82060462566352        0.84417305776177       -0.06964235540308
H            2.74746247803048        0.75122314453567       -2.35624374538077
H            2.78881325411225       -1.01546194993744       -2.29908148203600
H            4.61227123155188        1.98333620331983       -1.51159242970769
H            6.77996691317419        2.04168855777367       -0.40172056195729
H            8.25592228070252        1.88432976230907        1.45400472842881
H            9.03274095160450        1.35382730204487       -0.06595830875812
H            9.60876551120494        0.72708201384720        1.49818588647607
H            6.42526121975340       -4.12833799961755        1.53312675843311
H            4.82524152010302       -3.35066816543960        1.47266780287604
H            5.62789105930494       -3.87464556763957       -0.03797838312649
H            4.11567348753244       -2.10675540713237       -0.41040963799056
H           -0.44060568402668       -1.46021709052322       -2.64215153425929
H           -0.62215172240627       -1.95394689122545       -0.93291133525638
H            0.93934144035776       -2.15819981230906       -1.77072940518352
H           -5.00165712345062        2.81103013857604        0.03591766693470
H           -3.73407954857713        2.81925359002348        2.80459935851923
H           -5.12818939782793        1.84011412164174        2.31844458792963
H           -5.24872612062734        3.59372634463551        2.35185842734432
H           -2.46824677567216        4.21228509351412        0.97355704499453
H           -3.28440233407437        4.42228539091466       -0.58986218609979
H           -4.04686494568815        4.98591521044669        0.88374717815991
H           -0.66573452485607        2.12112252805537        2.36742652197523

          :  Hamiltonian                  GFN2-xTB          :
         :: total energy             -99.275605852258 Eh    ::
         :: gradient norm              0.001843206788 Eh/a0 ::
         :: HOMO-LUMO gap              0.680597828997 eV    ::
         :: SCC energy              -100.661786350885 Eh    ::
         :: -> dispersion             -0.075108798600 Eh    ::
         :: repulsion energy           1.384392224003 Eh    ::

    * Orbital Energies and Occupations

         #    Occupation            Energy/Eh            Energy/eV
      -------------------------------------------------------------
         1        2.0000           -0.8132490             -22.1296
       ...           ...                  ...                  ...
        78        1.9977           -0.5343863             -14.5414
        79        1.9966           -0.5279172             -14.3654
        80        1.9960           -0.5252924             -14.2939
        81        1.9952           -0.5226158             -14.2211
        82        1.9932           -0.5169833             -14.0678
        83        1.9924           -0.5152754             -14.0214
        84        1.9796           -0.4995147             -13.5925
        85        1.9712           -0.4940451             -13.4437
        86        1.9208           -0.4776013             -12.9962
        87        1.9051           -0.4745935             -12.9143
        88        1.8001           -0.4619070             -12.5691
        89        1.7434           -0.4574424             -12.4476
        90        1.5952           -0.4488231             -12.2131 (HOMO)
        91        0.8963           -0.4238115             -11.5325 (LUMO)
        92        0.2172           -0.3937740             -10.7151
        93        0.0071           -0.3377435              -9.1905
        94        0.0023           -0.3202417              -8.7142
        95        0.0021           -0.3187337              -8.6732
        96        0.0018           -0.3156633              -8.5896
        97        0.0015           -0.3133002              -8.5253
        98        0.0000           -0.1935775              -5.2675
        99        0.0000           -0.1874410              -5.1005
       100                         -0.1290284              -3.5110
       101                         -0.0731418              -1.9903
       ...                                ...                  ...
       171                          0.5726316              15.5821
      -------------------------------------------------------------
                  HL-Gap            0.0250115 Eh            0.6806 eV

     #   Z          covCN         q      C6AA      α(0)
     1   7 N        1.774    -0.268    27.765     7.803
     2   6 C        2.828     0.086    26.068     8.366
     3   6 C        3.908     0.010    20.351     6.412
     4   6 C        2.973     0.012    27.735     8.639
     5   6 C        2.937    -0.073    29.818     8.956
     6   6 C        2.856     0.166    24.414     8.099
     7   8 O        1.706    -0.226    17.743     5.687
     8   6 C        3.644     0.028    20.441     6.499
     9   6 C        2.027    -0.045    32.228     9.169
    10   8 O        0.854    -0.548    24.888     6.689
    11   6 C        3.621     0.092    19.488     6.365
    12   6 C        2.911    -0.013    28.337     8.729
    13   6 C        2.938    -0.029    28.713     8.788
    14   6 C        3.815    -0.068    21.783     6.643
    15   6 C        3.804    -0.074    21.913     6.664
    16   6 C        2.855     0.031    27.305     8.565
    17   7 N        2.730     0.072    19.993     6.641
    18   6 C        3.760    -0.024    21.055     6.542
    19   6 C        3.807    -0.072    21.864     6.656
    20   6 C        2.969     0.003    27.952     8.672
    21   6 C        2.921    -0.046    29.138     8.852
    22   6 C        2.913    -0.066    29.637     8.927
    23   6 C        2.864     0.136    25.037     8.202
    24   8 O        1.706    -0.216    17.582     5.661
    25   6 C        3.645     0.023    20.524     6.511
    26   6 C        2.862     0.135    25.044     8.203
    27   8 O        1.706    -0.219    17.638     5.670
    28   6 C        3.645     0.025    20.483     6.505
    29   6 C        2.920    -0.079    29.987     8.980
    30   6 C        3.708    -0.093    22.423     6.768
    31   6 C        3.852    -0.007    20.663     6.465
    32   6 C        3.756    -0.116    22.765     6.803
    33   6 C        3.756    -0.122    22.897     6.823
    34   1 H        0.926     0.056     2.247     2.344
    35   1 H        0.924     0.054     2.276     2.359
    36   1 H        0.925     0.083     1.953     2.185
    37   1 H        0.924     0.048     2.344     2.394
    38   1 H        0.922     0.023     2.683     2.562
    39   1 H        0.922     0.025     2.665     2.553
    40   1 H        0.922     0.025     2.657     2.549
    41   1 H        0.926     0.078     1.999     2.211
    42   1 H        0.926     0.062     2.176     2.307
    43   1 H        0.925     0.060     2.202     2.320
    44   1 H        0.925     0.064     2.152     2.294
    45   1 H        0.924     0.106     1.735     2.060
    46   1 H        0.924     0.082     1.961     2.190
    47   1 H        0.922     0.086     1.916     2.165
    48   1 H        0.926     0.082     1.958     2.188
    49   1 H        0.924     0.089     1.893     2.151
    50   1 H        0.924     0.071     2.070     2.250
    51   1 H        0.924     0.058     2.223     2.332
    52   1 H        0.924     0.061     2.185     2.311
    53   1 H        0.926     0.052     2.299     2.371
    54   1 H        0.926     0.062     2.172     2.305
    55   1 H        0.924     0.058     2.228     2.334
    56   1 H        0.924     0.059     2.212     2.326
    57   1 H        0.925     0.085     1.929     2.172
    58   1 H        0.925     0.084     1.935     2.175
    59   1 H        0.924     0.052     2.301     2.372
    60   1 H        0.924     0.055     2.259     2.351
    61   1 H        0.926     0.049     2.327     2.385
    62   1 H        0.925     0.079     1.987     2.204
    63   1 H        0.923     0.141     1.457     1.888
    64   1 H        0.925     0.084     1.942     2.179
    65   1 H        0.924     0.039     2.464     2.455
    66   1 H        0.925     0.057     2.238     2.340
    67   1 H        0.925     0.039     2.468     2.457
    68   1 H        0.925     0.054     2.276     2.359
    69   1 H        0.925     0.071     2.079     2.255
    70   1 H        0.925     0.038     2.480     2.463
    71   1 H        0.925     0.057     2.233     2.337
    72   1 H        0.860     0.158     1.345     1.817

Wiberg/Mayer (AO) data.
largest (>0.10) Wiberg bond orders for each atom

     #   Z sym  total        # sym  WBO       # sym  WBO       # sym  WBO
 ---------------------------------------------------------------------------
     1   7 N    2.997 --     2 C    1.945    72 H    0.938
     2   6 C    3.891 --     1 N    1.945     3 C    0.985    47 H    0.871
     3   6 C    3.957 --     2 C    0.985     4 C    0.973    14 C    0.955
                            31 C    0.938
     4   6 C    3.964 --     5 C    1.416    13 C    1.406     3 C    0.973
     5   6 C    3.898 --     4 C    1.416     6 C    1.298    34 H    0.946
     6   6 C    3.884 --     9 C    1.343     5 C    1.298     7 O    1.104
     7   8 O    2.254 --     6 C    1.104     8 C    0.977
     8   6 C    3.931 --     7 O    0.977    36 H    0.976    37 H    0.973
                            35 H    0.973
     9   6 C    3.098 --    12 C    1.530     6 C    1.343
    10   8 O    1.270 --    11 C    1.128
    11   6 C    3.922 --    10 O    1.128    40 H    0.929    38 H    0.929
                            39 H    0.928
    12   6 C    3.944 --     9 C    1.530    13 C    1.334    41 H    0.947
    13   6 C    3.877 --     4 C    1.406    12 C    1.334    42 H    0.951
    14   6 C    3.984 --    15 C    1.001    44 H    0.967    43 H    0.965
                             3 C    0.955
    15   6 C    3.984 --    16 C    1.063    14 C    1.001    45 H    0.932
                            46 H    0.927
    16   6 C    3.732 --    17 N    1.539    15 C    1.063    48 H    0.952
    17   7 N    3.608 --    16 C    1.539    30 C    0.998    18 C    0.983
    18   6 C    3.950 --    17 N    0.983    19 C    0.973    50 H    0.969
                            49 H    0.954
    19   6 C    3.982 --    20 C    1.007    51 H    0.974    18 C    0.973
                            52 H    0.964
    20   6 C    3.935 --    21 C    1.408    29 C    1.379    19 C    1.007
    21   6 C    3.940 --    22 C    1.416    20 C    1.408    53 H    0.967
    22   6 C    3.952 --    21 C    1.416    23 C    1.380    54 H    0.962
    23   6 C    3.886 --    22 C    1.380    26 C    1.210    24 O    1.118
    24   8 O    2.255 --    23 C    1.118    25 C    0.974
    25   6 C    3.924 --    57 H    0.976    24 O    0.974    55 H    0.971
                            56 H    0.971
    26   6 C    3.890 --    29 C    1.394    23 C    1.210    27 O    1.111
    27   8 O    2.254 --    26 C    1.111    28 C    0.977
    28   6 C    3.929 --    27 O    0.977    58 H    0.976    59 H    0.973
                            60 H    0.972
    29   6 C    3.954 --    26 C    1.394    20 C    1.379    61 H    0.962
    30   6 C    3.926 --    17 N    0.998    64 H    0.975    62 H    0.968
                            63 H    0.907
    31   6 C    3.970 --    32 C    1.009    33 C    1.007    65 H    0.960
                             3 C    0.938
    32   6 C    3.980 --    31 C    1.009    68 H    0.980    66 H    0.979
                            67 H    0.978
    33   6 C    3.972 --    31 C    1.007    70 H    0.981    71 H    0.978
                            69 H    0.970
    34   1 H    0.984 --     5 C    0.946
    35   1 H    0.993 --     8 C    0.973
    36   1 H    0.992 --     8 C    0.976
    37   1 H    0.993 --     8 C    0.973
    38   1 H    0.939 --    11 C    0.929
    39   1 H    0.937 --    11 C    0.928
    40   1 H    0.939 --    11 C    0.929
    41   1 H    0.974 --    12 C    0.947
    42   1 H    0.986 --    13 C    0.951
    43   1 H    0.994 --    14 C    0.965
    44   1 H    0.995 --    14 C    0.967
    45   1 H    0.981 --    15 C    0.932
    46   1 H    0.979 --    15 C    0.927
    47   1 H    0.959 --     2 C    0.871
    48   1 H    0.993 --    16 C    0.952
    49   1 H    0.987 --    18 C    0.954
    50   1 H    0.995 --    18 C    0.969
    51   1 H    0.996 --    19 C    0.974
    52   1 H    0.994 --    19 C    0.964
    53   1 H    0.996 --    21 C    0.967
    54   1 H    0.994 --    22 C    0.962
    55   1 H    0.990 --    25 C    0.971
    56   1 H    0.990 --    25 C    0.971
    57   1 H    0.992 --    25 C    0.976
    58   1 H    0.992 --    28 C    0.976
    59   1 H    0.992 --    28 C    0.973
    60   1 H    0.991 --    28 C    0.972
    61   1 H    0.996 --    29 C    0.962
    62   1 H    0.990 --    30 C    0.968
    63   1 H    0.973 --    30 C    0.907
    64   1 H    0.992 --    30 C    0.975
    65   1 H    0.989 --    31 C    0.960
    66   1 H    0.993 --    32 C    0.979
    67   1 H    0.996 --    32 C    0.978
    68   1 H    0.994 --    32 C    0.980
    69   1 H    0.989 --    33 C    0.970
    70   1 H    0.996 --    33 C    0.981
    71   1 H    0.992 --    33 C    0.978
    72   1 H    0.964 --     1 N    0.938
 ---------------------------------------------------------------------------

molecular dipole:
                 x           y           z       tot (Debye)
 q only:        1.018       0.748      -1.803
   full:        1.058       0.421      -1.731       5.267

           -------------------------------------------------
          | TOTAL ENERGY              -99.275605852258 Eh   |
          | GRADIENT NORM               0.001843206788 Eh/α |
          | HOMO-LUMO GAP               0.680597828997 eV   |
           -------------------------------------------------

 * finished run on 2024/04/06 at 11:12:51.569
