   * xtb version 6.6.1 (8d0f1dd) compiled by 'conda@1efc2f54142f' on 2023-08-01
          program call               : xtb xtbopt.xyz --opt crude --input .xc2 --gfn2

   ID    Z sym.   atoms
    1    6 C      1, 3, 5-7, 10, 11, 14
    2    7 N      2, 4, 9, 13
    3    8 O      8, 12
    4    1 H      15-25

          :  Hamiltonian                  GFN2-xTB          :
 * total energy  :   -42.1425295 Eh     change       -0.8810730E-12 Eh
   *** GEOMETRY OPTIMIZATION CONVERGED AFTER 1 ITERATIONS ***

 final structure:
================
25
 xtb: 6.6.1 (8d0f1dd)
C            3.24622209543503        0.82904888828580        0.01478797586269
N            2.32519553721590       -0.12884471385123       -0.01333213645803
C            2.52790720232611       -1.46898657460304       -0.04061468177351
N            1.32789102457417       -2.12022677122676       -0.04679437301334
C            0.34037783171246       -1.18792583716179       -0.02722287171369
C            0.94446189391769        0.06457409600798       -0.01057918227854
C            0.17536368705454        1.27969463522703        0.01393805611703
O            0.61409235278634        2.41001499339174        0.03746651551727
N           -1.20162989060365        1.01335717327131        0.00556721735279
C           -2.10480464142835        2.15245559688115        0.02956818440105
C           -1.82363896461081       -0.22077686304167        0.00813324062326
O           -3.02117231743849       -0.33542697626058        0.02785808544350
N           -0.99611367591327       -1.35978309179683       -0.01509328824512
C           -1.60577747106805       -2.67281410313393        0.00771129106112
H            2.93707978073774        1.86642772823296        0.03712248192249
H            4.28506796435593        0.55428130447372        0.01025471000790
H            2.80352161148618        3.90259458205440       -0.03767966716945
H            3.48370612043022       -1.94897737592465       -0.04859239288073
H           -1.50609240051282        3.06085938669217        0.04829340929018
H           -2.74418477090484        2.13904167604577       -0.85414513958323
H           -2.74406074492726        2.10197990129388        0.91194724801700
H           -1.28525351023484       -3.22670852034024        0.89113116139103
H           -1.35352109699844       -3.22960337361797       -0.89547407652097
H           -2.68601437491750       -2.53313166510521        0.04768274476494
H            1.22180827162612       -3.12288555419349       -0.07076289423527

          :  Hamiltonian                  GFN2-xTB          :
         :: total energy             -42.142529480179 Eh    ::
         :: gradient norm              0.002778827001 Eh/a0 ::
         :: HOMO-LUMO gap              0.457973129049 eV    ::
         :: SCC energy               -42.659657123150 Eh    ::
         :: -> dispersion             -0.022943449828 Eh    ::
         :: repulsion energy           0.517022620704 Eh    ::

    * Orbital Energies and Occupations

         #    Occupation            Energy/Eh            Energy/eV
      -------------------------------------------------------------
         1        2.0000           -0.9058092             -24.6483
       ...           ...                  ...                  ...
        25        1.9990           -0.6719547             -18.2848
        26        1.9988           -0.6677512             -18.1704
        27        1.9985           -0.6617197             -18.0063
        28        1.9955           -0.6363246             -17.3153
        29        1.9949           -0.6330460             -17.2261
        30        1.9939           -0.6288161             -17.1110
        31        1.9907           -0.6188294             -16.8392
        32        1.9841           -0.6060652             -16.4919
        33        1.9623           -0.5852719             -15.9261
        34        1.9239           -0.5680959             -15.4587
        35        1.9198           -0.5667947             -15.4233
        36        1.8999           -0.5612855             -15.2734
        37        1.2832           -0.5052023             -13.7473 (HOMO)
        38        0.9369           -0.4883721             -13.2893 (LUMO)
        39        0.0683           -0.4119881             -11.2108
        40        0.0416           -0.3998638             -10.8808
        41        0.0114           -0.3688334             -10.0365
        42        0.0004           -0.2884046              -7.8479
        43        0.0000           -0.2080554              -5.6615
        44        0.0000           -0.1839341              -5.0051
        45        0.0000           -0.1445076              -3.9323
        46        0.0000           -0.1181144              -3.2141
        47                         -0.0791043              -2.1525
        48                         -0.0488611              -1.3296
       ...                                ...                  ...
        67                          0.5405778              14.7099
      -------------------------------------------------------------
                  HL-Gap            0.0168302 Eh            0.4580 eV

     #   Z          covCN         q      C6AA      α(0)
     1   6 C        2.788    -0.074    29.833     8.947
     2   7 N        2.805     0.125    19.100     6.491
     3   6 C        3.033     0.020    27.535     8.607
     4   7 N        2.774    -0.061    22.428     7.034
     5   6 C        3.019     0.114    25.464     8.277
     6   6 C        3.100    -0.033    28.704     8.780
     7   6 C        2.764     0.269    22.456     7.760
     8   8 O        0.858    -0.355    20.799     6.115
     9   7 N        2.746    -0.077    22.738     7.082
    10   6 C        3.709    -0.061    21.818     6.676
    11   6 C        2.728     0.315    21.640     7.616
    12   8 O        0.860    -0.347    20.646     6.092
    13   7 N        2.738    -0.049    22.193     6.997
    14   6 C        3.697    -0.072    22.062     6.719
    15   1 H        0.925     0.132     1.523     1.930
    16   1 H        0.926     0.106     1.734     2.059
    17   1 H        0.000     0.057     5.561     4.312
    18   1 H        0.927     0.119     1.623     1.992
    19   1 H        0.925     0.121     1.603     1.980
    20   1 H        0.924     0.109     1.708     2.044
    21   1 H        0.924     0.109     1.705     2.042
    22   1 H        0.924     0.089     1.893     2.152
    23   1 H        0.924     0.090     1.881     2.145
    24   1 H        0.925     0.131     1.530     1.935
    25   1 H        0.860     0.226     0.985     1.554

Wiberg/Mayer (AO) data.
largest (>0.10) Wiberg bond orders for each atom

     #   Z sym  total        # sym  WBO       # sym  WBO       # sym  WBO
 ---------------------------------------------------------------------------
     1   6 C    3.372 --     2 N    1.324    16 H    0.964    15 H    0.934
     2   7 N    3.740 --     1 C    1.324     3 C    1.235     6 C    1.087
     3   6 C    3.606 --     2 N    1.235     4 N    1.221    18 H    0.956
     4   7 N    3.513 --     3 C    1.221     5 C    1.201    25 H    0.921
     5   6 C    3.892 --     6 C    1.321     4 N    1.201    13 N    1.201
     6   6 C    3.808 --     5 C    1.321     7 C    1.102     2 N    1.087
     7   6 C    3.920 --     8 O    1.651     6 C    1.102     9 N    1.077
     8   8 O    1.954 --     7 C    1.651     9 N    0.123
     9   7 N    3.492 --    11 C    1.125     7 C    1.077    10 C    0.976
                            12 O    0.125     8 O    0.123
    10   6 C    3.876 --     9 N    0.976    19 H    0.957    21 H    0.950
                            20 H    0.950
    11   6 C    3.939 --    12 O    1.680     9 N    1.125    13 N    1.046
    12   8 O    1.997 --    11 C    1.680     9 N    0.125    13 N    0.112
    13   7 N    3.502 --     5 C    1.201    11 C    1.046    14 C    0.978
                            12 O    0.112
    14   6 C    3.909 --    13 N    0.978    22 H    0.964    23 H    0.964
                            24 H    0.959
    15   1 H    0.979 --     1 C    0.934
    16   1 H    0.984 --     1 C    0.964
    17   1 H    0.030
    18   1 H    0.984 --     3 C    0.956
    19   1 H    0.975 --    10 C    0.957
    20   1 H    0.967 --    10 C    0.950
    21   1 H    0.967 --    10 C    0.950
    22   1 H    0.981 --    14 C    0.964
    23   1 H    0.981 --    14 C    0.964
    24   1 H    0.979 --    14 C    0.959
    25   1 H    0.948 --     4 N    0.921
 ---------------------------------------------------------------------------

molecular dipole:
                 x           y           z       tot (Debye)
 q only:        1.961      -1.907      -0.043
   full:        2.195      -2.368      -0.056       8.209

           -------------------------------------------------
          | TOTAL ENERGY              -42.142529480179 Eh   |
          | GRADIENT NORM               0.002778827001 Eh/α |
          | HOMO-LUMO GAP               0.457973129049 eV   |
           -------------------------------------------------

 * finished run on 2024/06/05 at 19:58:43.807
