   * xtb version 6.6.1 (8d0f1dd) compiled by 'conda@1efc2f54142f' on 2023-08-01
          program call               : xtb struc.xyz --opt loose --input .xc1 --gfn2

   ID    Z sym.   atoms
    1    6 C      1, 3, 5-7, 10, 11, 14
    2    7 N      2, 4, 9, 13
    3    8 O      8, 12
    4    1 H      15-25
constraining bond 1 2 to    3.9200000 Å, actual value:    1.4397841 Å

          :  Hamiltonian                  GFN2-xTB          :
 * total energy  :   -31.2642100 Eh     change       -0.6650680E-10 Eh
 * total energy  :   -35.2533781 Eh     change       -0.3989168E+01 Eh
 * total energy  :   -38.4991969 Eh     change       -0.3245819E+01 Eh
 * total energy  :   -40.4461946 Eh     change       -0.1946998E+01 Eh
 * total energy  :   -41.3014269 Eh     change       -0.8552323E+00 Eh
 * total energy  :   -41.4502121 Eh     change       -0.1487852E+00 Eh
 * total energy  :   -41.5123903 Eh     change       -0.6217824E-01 Eh
 * total energy  :   -41.5908530 Eh     change       -0.7846266E-01 Eh
 * total energy  :   -41.6616780 Eh     change       -0.7082500E-01 Eh
 * total energy  :   -41.7008298 Eh     change       -0.3915180E-01 Eh
 * total energy  :   -42.1355523 Eh     change       -0.5028888E-04 Eh
 * total energy  :   -42.1355426 Eh     change        0.9624111E-05 Eh
 * total energy  :   -42.1356963 Eh     change       -0.1537106E-03 Eh
 * total energy  :   -42.1357609 Eh     change       -0.6458631E-04 Eh
 * total energy  :   -42.1358836 Eh     change       -0.1226431E-03 Eh
 * total energy  :   -42.1359365 Eh     change       -0.5289793E-04 Eh
 * total energy  :   -42.1359778 Eh     change       -0.4133508E-04 Eh
 * total energy  :   -42.1360060 Eh     change       -0.2814341E-04 Eh
 * total energy  :   -42.1360305 Eh     change       -0.2452398E-04 Eh
   *** GEOMETRY OPTIMIZATION CONVERGED AFTER 61 ITERATIONS ***

 final structure:
================
25
 xtb: 6.6.1 (8d0f1dd)
C            3.90973768145632        2.87043726025203        0.17756753774106
N            2.20892180135155       -0.65160386979067       -0.09868589809129
C            2.26330899051225       -1.94820805770000       -0.14302429026622
N            1.01772604572458       -2.51990173909299       -0.13490541640068
C            0.13077447312307       -1.49493621596875       -0.08316653030120
C            0.89507327498053       -0.32111606963915       -0.06200198644637
C            0.25846471656501        0.97515361414664        0.00038122890047
O            0.82138518633247        2.04696363138960        0.02334773298652
N           -1.13299033742872        0.86938740581342        0.03369281487450
C           -1.90439220882322        2.10175766255278        0.09969386977679
C           -1.89708833894317       -0.28505012713074        0.01394047976076
O           -3.09816552540166       -0.25234310905510        0.05167791563974
N           -1.21280310024740       -1.51117028923028       -0.05339338417535
C           -1.97637773154542       -2.74064225781831       -0.07853228129414
H            4.29254352406707        3.08929043734071        1.15661061287897
H            4.56908543258925        2.90771163375642       -0.67005495272308
H            2.86836540503398        2.62328699326985        0.04857838664904
H            3.17032707369312       -2.51786312847568       -0.18182590728072
H           -1.21359455166892        2.94013894054610        0.05068925864896
H           -2.61167933956694        2.13876979597765       -0.72946783832632
H           -2.47293709263677        2.13490097484824        1.03016982772629
H           -1.72236005324817       -3.36368516081969        0.78049239423856
H           -1.78509340110832       -3.28849543448318       -1.00248057844112
H           -3.03243858849163       -2.47702331556652       -0.03025195020978
H            0.81463817777965       -3.50752103352183       -0.16787942796698

          :  Hamiltonian                  GFN2-xTB          :
         :: total energy             -42.136030477391 Eh    ::
         :: gradient norm              0.003530561954 Eh/a0 ::
         :: HOMO-LUMO gap              1.099952423441 eV    ::
         :: SCC energy               -42.660807823485 Eh    ::
         :: -> dispersion             -0.020990822519 Eh    ::
         :: repulsion energy           0.524699846981 Eh    ::

    * Orbital Energies and Occupations

         #    Occupation            Energy/Eh            Energy/eV
      -------------------------------------------------------------
         1        2.0000           -0.8863497             -24.1188
       ...           ...                  ...                  ...
        25        1.9996           -0.6551762             -17.8283
        26        1.9988           -0.6370252             -17.3343
        27        1.9980           -0.6292137             -17.1218
        28        1.9978           -0.6272196             -17.0675
        29        1.9973           -0.6241491             -16.9840
        30        1.9970           -0.6224716             -16.9383
        31        1.9929           -0.6089536             -16.5705
        32        1.9923           -0.6076055             -16.5338
        33        1.9736           -0.5879283             -15.9983
        34        1.9220           -0.5703664             -15.5205
        35        1.9130           -0.5685578             -15.4712
        36        1.8746           -0.5624527             -15.3051
        37        1.7106           -0.5477582             -14.9053 (HOMO)
        38        0.6303           -0.5073357             -13.8053 (LUMO)
        39        0.0021           -0.4108244             -11.1791
        40        0.0006           -0.3916004             -10.6560
        41        0.0001           -0.3623272              -9.8594
        42        0.0000           -0.2812460              -7.6531
        43                         -0.2000267              -5.4430
        44                         -0.1572044              -4.2778
        45                         -0.1324363              -3.6038
        46                         -0.0690689              -1.8795
        47                         -0.0467314              -1.2716
        48                         -0.0309469              -0.8421
       ...                                ...                  ...
        67                          0.5480477              14.9131
      -------------------------------------------------------------
                  HL-Gap            0.0404225 Eh            1.1000 eV

     #   Z          covCN         q      C6AA      α(0)
     1   6 C        2.778    -0.068    29.682     8.923
     2   7 N        1.904    -0.162    25.302     7.458
     3   6 C        3.157     0.105    25.388     8.239
     4   7 N        2.789    -0.080    22.791     7.090
     5   6 C        3.055     0.115    25.413     8.267
     6   6 C        3.205     0.023    26.893     8.446
     7   6 C        2.764     0.275    22.347     7.742
     8   8 O        0.858    -0.340    20.524     6.074
     9   7 N        2.745    -0.075    22.691     7.075
    10   6 C        3.710    -0.061    21.822     6.676
    11   6 C        2.731     0.319    21.580     7.605
    12   8 O        0.860    -0.344    20.590     6.084
    13   7 N        2.737    -0.043    22.067     6.977
    14   6 C        3.697    -0.070    22.021     6.712
    15   1 H        0.926     0.137     1.482     1.904
    16   1 H        0.926     0.137     1.481     1.903
    17   1 H        0.926     0.162     1.314     1.792
    18   1 H        0.926     0.109     1.703     2.041
    19   1 H        0.925     0.117     1.642     2.004
    20   1 H        0.924     0.109     1.705     2.042
    21   1 H        0.924     0.108     1.717     2.049
    22   1 H        0.924     0.091     1.867     2.137
    23   1 H        0.924     0.092     1.860     2.133
    24   1 H        0.925     0.128     1.552     1.948
    25   1 H        0.860     0.216     1.029     1.589

Wiberg/Mayer (AO) data.
largest (>0.10) Wiberg bond orders for each atom

     #   Z sym  total        # sym  WBO       # sym  WBO       # sym  WBO
 ---------------------------------------------------------------------------
     1   6 C    2.920 --    15 H    0.978    16 H    0.978    17 H    0.956
     2   7 N    3.001 --     3 C    1.560     6 C    1.269
     3   6 C    3.849 --     2 N    1.560     4 N    1.212    18 H    0.955
     4   7 N    3.577 --     5 C    1.224     3 C    1.212    25 H    0.924
     5   6 C    3.896 --     6 C    1.277     4 N    1.224    13 N    1.212
     6   6 C    3.833 --     5 C    1.277     2 N    1.269     7 C    1.069
     7   6 C    3.945 --     8 O    1.673     9 N    1.101     6 C    1.069
     8   8 O    1.974 --     7 C    1.673     9 N    0.126
     9   7 N    3.514 --    11 C    1.120     7 C    1.101    10 C    0.975
                             8 O    0.126    12 O    0.122
    10   6 C    3.884 --     9 N    0.975    19 H    0.963    20 H    0.952
                            21 H    0.950
    11   6 C    3.954 --    12 O    1.688     9 N    1.120    13 N    1.053
    12   8 O    1.996 --    11 C    1.688     9 N    0.122    13 N    0.108
    13   7 N    3.495 --     5 C    1.212    11 C    1.053    14 C    0.978
                            12 O    0.108
    14   6 C    3.910 --    13 N    0.978    24 H    0.962    22 H    0.962
                            23 H    0.962
    15   1 H    0.980 --     1 C    0.978
    16   1 H    0.979 --     1 C    0.978
    17   1 H    0.971 --     1 C    0.956
    18   1 H    0.986 --     3 C    0.955
    19   1 H    0.981 --    10 C    0.963
    20   1 H    0.970 --    10 C    0.952
    21   1 H    0.968 --    10 C    0.950
    22   1 H    0.979 --    14 C    0.962
    23   1 H    0.978 --    14 C    0.962
    24   1 H    0.982 --    14 C    0.962
    25   1 H    0.952 --     4 N    0.924
 ---------------------------------------------------------------------------

molecular dipole:
                 x           y           z       tot (Debye)
 q only:        1.913      -1.036      -0.005
   full:        1.809      -1.724      -0.024       6.352

           -------------------------------------------------
          | TOTAL ENERGY              -42.136030477391 Eh   |
          | GRADIENT NORM               0.003530561954 Eh/α |
          | HOMO-LUMO GAP               1.099952423441 eV   |
           -------------------------------------------------

 * finished run on 2024/06/05 at 20:00:07.190
