   * xtb version 6.6.1 (8d0f1dd) compiled by 'conda@1efc2f54142f' on 2023-08-01
          program call               : xtb xtbopt.xyz --opt crude --input .xc2 --gfn2

   ID    Z sym.   atoms
    1    6 C      1, 3, 5-7, 10, 11, 14
    2    7 N      2, 4, 9, 13
    3    8 O      8, 12
    4    1 H      15-25
########################################################################
[WARNING] Please study the warnings concerning your input carefully
-1- readin_getIntValue: could not parse ''
########################################################################

          :  Hamiltonian                  GFN2-xTB          :
 * total energy  :   -42.0357391 Eh     change       -0.2437162E-11 Eh
 * total energy  :   -42.0470479 Eh     change       -0.1130878E-01 Eh
 * total energy  :   -42.0540716 Eh     change       -0.7023714E-02 Eh
 * total energy  :   -42.0553045 Eh     change       -0.1232892E-02 Eh
 * total energy  :   -42.0559001 Eh     change       -0.5956121E-03 Eh
 * total energy  :   -42.0561531 Eh     change       -0.2530261E-03 Eh
   *** GEOMETRY OPTIMIZATION CONVERGED AFTER 6 ITERATIONS ***

 final structure:
================
25
 xtb: 6.6.1 (8d0f1dd)
C            2.57297665361416        1.05876877511180        0.54339974304077
N            1.74862352237860       -0.02100432887018        0.02306662704756
C            2.38851844833402       -1.13135168779796       -0.29816714706176
N            1.83795721232724       -2.33360102307960       -0.63764546145070
C            0.64507821012709       -2.82361491343270       -0.29036870011554
C            0.39816670379109        0.22411367015876       -0.12292411101231
C           -0.11166594491949        1.63275966580470       -0.20901863328456
O            0.60894178080630        2.59513938620333       -0.49161505249866
N           -1.40160173898429        1.73512434205896        0.04659382913555
C           -2.22736866273042        2.83502086746129       -0.11980670526015
C           -0.64818859621603       -0.72755743307970       -0.30302701357260
O           -1.77869722698500       -0.44551087946314       -0.62879880062450
N           -0.41020028689388       -2.15238539337033        0.01611148289374
C           -1.60593249451746       -2.84441153869637        0.45843805281651
H            2.36446802098710        1.19856774076425        1.60597154939102
H            3.62848269081444        0.84027915471082        0.40627566263266
H            2.32227435026130        1.99207591218559        0.02829987696246
H            3.46761696758796       -1.11377997059931       -0.23505874869201
H           -1.67357446201560        3.72718261294784       -0.44432131280007
H           -2.98718762022380        2.59771097602579       -0.87406422368937
H           -2.75054800989660        3.03178794209661        0.82198865754434
H           -1.37872675724649       -3.89745740641964        0.59239819911246
H           -2.39556192934838       -2.71815221424829       -0.28425522859329
H           -1.95087993722975       -2.40913337762061        1.39634439929483
H            2.49746062027940       -3.03233233725097       -0.96864532331762

          :  Hamiltonian                  GFN2-xTB          :
         :: total energy             -42.056153137549 Eh    ::
         :: gradient norm              0.006318014557 Eh/a0 ::
         :: HOMO-LUMO gap              0.452538980764 eV    ::
         :: SCC energy               -42.563423395752 Eh    ::
         :: -> dispersion             -0.021853327495 Eh    ::
         :: repulsion energy           0.507129016764 Eh    ::

    * Orbital Energies and Occupations

         #    Occupation            Energy/Eh            Energy/eV
      -------------------------------------------------------------
         1        2.0000           -0.8821917             -24.0057
       ...           ...                  ...                  ...
        25        1.9999           -0.6599184             -17.9573
        26        1.9998           -0.6531440             -17.7730
        27        1.9996           -0.6399123             -17.4129
        28        1.9993           -0.6299574             -17.1420
        29        1.9990           -0.6246387             -16.9973
        30        1.9987           -0.6211726             -16.9030
        31        1.9983           -0.6172223             -16.7955
        32        1.9937           -0.5962194             -16.2240
        33        1.9922           -0.5928699             -16.1328
        34        1.9187           -0.5550932             -15.1049
        35        1.8528           -0.5451434             -14.8341
        36        1.6854           -0.5316173             -14.4660
        37        1.4543           -0.5205595             -14.1651 (HOMO)
        38        0.9650           -0.5039290             -13.7126 (LUMO)
        39        0.1417           -0.4642858             -12.6339
        40        0.0014           -0.3895866             -10.6012
        41        0.0003           -0.3676599             -10.0045
        42        0.0000           -0.2999130              -8.1610
        43                         -0.1934009              -5.2627
        44                         -0.1822985              -4.9606
        45                         -0.1307446              -3.5577
        46                         -0.1166212              -3.1734
        47                         -0.0660693              -1.7978
        48                         -0.0384120              -1.0452
       ...                                ...                  ...
        67                          0.4986832              13.5699
      -------------------------------------------------------------
                  HL-Gap            0.0166305 Eh            0.4525 eV

     #   Z          covCN         q      C6AA      α(0)
     1   6 C        3.722    -0.099    22.513     6.776
     2   7 N        2.731     0.088    19.713     6.594
     3   6 C        2.800     0.057    26.700     8.465
     4   7 N        2.687    -0.046    22.135     6.988
     5   6 C        1.862    -0.005    31.270     9.032
     6   6 C        2.907    -0.031    28.762     8.794
     7   6 C        2.766     0.280    22.254     7.726
     8   8 O        0.859    -0.384    21.369     6.198
     9   7 N        1.835    -0.132    24.643     7.357
    10   6 C        3.691    -0.037    21.419     6.623
    11   6 C        2.770     0.255    22.720     7.806
    12   8 O        0.860    -0.297    19.735     5.956
    13   7 N        2.731     0.017    20.955     6.799
    14   6 C        3.714    -0.073    22.028     6.706
    15   1 H        0.924     0.108     1.718     2.050
    16   1 H        0.925     0.094     1.836     2.119
    17   1 H        0.924     0.158     1.339     1.810
    18   1 H        0.926     0.109     1.707     2.043
    19   1 H        0.923     0.122     1.595     1.975
    20   1 H        0.924     0.132     1.520     1.928
    21   1 H        0.924     0.119     1.620     1.990
    22   1 H        0.925     0.105     1.740     2.063
    23   1 H        0.924     0.120     1.613     1.986
    24   1 H        0.925     0.100     1.786     2.090
    25   1 H        0.860     0.239     0.926     1.508

Wiberg/Mayer (AO) data.
largest (>0.10) Wiberg bond orders for each atom

     #   Z sym  total        # sym  WBO       # sym  WBO       # sym  WBO
 ---------------------------------------------------------------------------
     1   6 C    3.889 --     2 N    0.975    16 H    0.972    15 H    0.954
                            17 H    0.915
     2   7 N    3.664 --     3 C    1.395     6 C    1.151     1 C    0.975
     3   6 C    3.775 --     2 N    1.395     4 N    1.193    18 H    0.944
     4   7 N    3.525 --     5 C    1.262     3 C    1.193    25 H    0.910
     5   6 C    3.028 --    13 N    1.533     4 N    1.262
     6   6 C    3.634 --    11 C    1.192     2 N    1.151     7 C    0.993
     7   6 C    3.921 --     8 O    1.518     9 N    1.325     6 C    0.993
     8   8 O    1.784 --     7 C    1.518     9 N    0.112
     9   7 N    2.661 --     7 C    1.325    10 C    1.118     8 O    0.112
    10   6 C    3.860 --     9 N    1.118    21 H    0.914    19 H    0.898
                            20 H    0.893
    11   6 C    3.881 --    12 O    1.704     6 C    1.192    13 N    0.875
    12   8 O    2.033 --    11 C    1.704
    13   7 N    3.552 --     5 C    1.533    14 C    0.974    11 C    0.875
    14   6 C    3.907 --    13 N    0.974    22 H    0.973    24 H    0.962
                            23 H    0.948
    15   1 H    0.982 --     1 C    0.954
    16   1 H    0.989 --     1 C    0.972
    17   1 H    0.969 --     1 C    0.915
    18   1 H    0.985 --     3 C    0.944
    19   1 H    0.904 --    10 C    0.898
    20   1 H    0.918 --    10 C    0.893
    21   1 H    0.934 --    10 C    0.914
    22   1 H    0.987 --    14 C    0.973
    23   1 H    0.975 --    14 C    0.948
    24   1 H    0.983 --    14 C    0.962
    25   1 H    0.937 --     4 N    0.910
 ---------------------------------------------------------------------------

molecular dipole:
                 x           y           z       tot (Debye)
 q only:        1.505      -1.799       0.425
   full:        1.817      -1.734       0.362       6.450

           -------------------------------------------------
          | TOTAL ENERGY              -42.056153137549 Eh   |
          | GRADIENT NORM               0.006318014557 Eh/α |
          | HOMO-LUMO GAP               0.452538980764 eV   |
           -------------------------------------------------

 * finished run on 2024/06/05 at 19:58:21.265
