   * xtb version 6.6.1 (8d0f1dd) compiled by 'conda@1efc2f54142f' on 2023-08-01
          program call               : xtb struc.xyz --opt loose --input .xc1 --gfn2

   ID    Z sym.   atoms
    1    7 N      1, 17
    2    6 C      2-6, 8, 9, 11-16, 18-23, 25, 26, 28-33
    3    8 O      7, 10, 24, 27
    4    1 H      34-72
constraining bond 6 45 to    6.7133300 Å, actual value:    3.4644465 Å

          :  Hamiltonian                  GFN2-xTB          :
 * total energy  :  -101.2888036 Eh     change       -0.4035485E-08 Eh
 * total energy  :  -102.0936984 Eh     change       -0.8048948E+00 Eh
 * total energy  :  -102.9773242 Eh     change       -0.8836258E+00 Eh
 * total energy  :  -103.9853389 Eh     change       -0.1008015E+01 Eh
 * total energy  :  -105.0945930 Eh     change       -0.1109254E+01 Eh
 * total energy  :  -100.5032960 Eh     change        0.4591297E+01 Eh
 * total energy  :  -105.1796460 Eh     change       -0.4676350E+01 Eh
 * total energy  :  -105.2596180 Eh     change       -0.7997192E-01 Eh
 * total energy  :  -105.3260494 Eh     change       -0.6643147E-01 Eh
 * total energy  :  -105.4067934 Eh     change       -0.8074397E-01 Eh
 * total energy  :  -105.5885238 Eh     change       -0.1243239E-03 Eh
 * total energy  :  -105.5886371 Eh     change       -0.1133081E-03 Eh
 * total energy  :  -105.5887378 Eh     change       -0.1006818E-03 Eh
 * total energy  :  -105.5888438 Eh     change       -0.1060307E-03 Eh
 * total energy  :  -105.5889332 Eh     change       -0.8933885E-04 Eh
 * total energy  :  -105.5890243 Eh     change       -0.9110173E-04 Eh
 * total energy  :  -105.5890940 Eh     change       -0.6973290E-04 Eh
 * total energy  :  -105.5891790 Eh     change       -0.8502683E-04 Eh
 * total energy  :  -105.5892197 Eh     change       -0.4068581E-04 Eh
   *** GEOMETRY OPTIMIZATION CONVERGED AFTER 68 ITERATIONS ***

 final structure:
================
72
 xtb: 6.6.1 (8d0f1dd)
N           -2.61347160892016        2.93731134939125        2.47285351193853
C           -2.36252964293497        2.03502230493495        1.64537340446704
C           -3.11912652836480        1.84357122794366        0.35835210895024
C           -3.74658575797394        0.45649502680416        0.32930045619033
C           -4.26582950142899       -0.04811274244068       -0.82179544098460
C           -5.07050885177341       -1.32398243071579       -0.88732436070119
O           -6.48134343840238       -0.90607499909803       -0.71900911350101
C           -7.22387272617043       -0.90860695165378       -1.90994282642522
C           -4.83438682902873       -2.16725694123179        0.35730543922627
O           -5.27749147872463       -3.41348359872549        0.19274591155013
C           -5.29023524808908       -4.30582600925668        1.28999238454925
C           -4.31177544561152       -1.61903313360796        1.50227470231912
C           -3.82168344753014       -0.31584895862891        1.51057723933145
C           -2.02799268823925        1.96132831670357       -0.75403905393218
C           -1.10274253531886        0.79315231551007       -0.77303352855128
C            0.17729180690876        0.86541342589356       -0.36392739199335
N            1.05170783891603       -0.16933023230921       -0.27330667494739
C            2.44484377332430        0.06154516264016       -0.00410731722514
C            3.29960154819433        0.10744484888677       -1.28946516646254
C            4.75528010582188        0.21418604815755       -0.94349773406757
C            5.42954813708083        1.42334503855518       -1.02383495485983
C            6.76977152897019        1.51473438086027       -0.68174184865871
C            7.46448972338980        0.39686391731436       -0.23948527054825
O            8.75976496748037        0.36473044771365        0.11787714808657
C            9.52920739986641        1.54245752543403        0.03650263862596
C            6.77917058933786       -0.84845636946646       -0.14489545644686
O            7.52573448420443       -1.87895202482711        0.29572359304416
C            6.94328936440288       -3.15509945905597        0.41081870937703
C            5.44154624497669       -0.91505159859746       -0.50001952238382
C            0.65845892142984       -1.48853911506826       -0.69694345645390
C           -4.25048859646486        2.88220042069960        0.12848572721694
C           -5.33964117731544        2.75548854151111        1.19152352569399
C           -3.74895254257289        4.32147523762383        0.06362343359828
H           -4.23962052338620        0.51287164311943       -1.74317326595219
H           -6.90405200324445       -0.10885196014792       -2.58928757165502
H           -8.25514940427806       -0.72749612986773       -1.61025241066504
H           -7.16233210222485       -1.87001419905351       -2.42923746855274
H           -5.93096850847750       -3.93034103986173        2.09127671323301
H           -5.69413408084675       -5.24055720256511        0.90630621737915
H           -4.28009540707618       -4.47213198490111        1.67351458873140
H           -4.26796446242110       -2.19404074960470        2.41386883110378
H           -3.48165453587466        0.10164256877688        2.44391984410018
H           -2.53380201184696        2.04485351602866       -1.71747830059838
H           -1.46377666614006        2.87877801948419       -0.58402013089521
H           -5.00037325467023       -1.67526937761688       -1.46916904629732
H           -1.52595808416102       -0.14035010805357       -1.10741015951540
H           -1.53250721106537        1.31855120467138        1.75019930180535
H            0.58082659436650        1.81781217495734       -0.04411369171940
H            2.81658093583011       -0.73991450158881        0.64215880291638
H            2.55601153840516        1.00628616065503        0.53206666087851
H            2.98811814081599        0.96096241218914       -1.89260368689588
H            3.12216830981888       -0.80336917997987       -1.86416792785594
H            4.91275357445262        2.30629387966518       -1.36727690023994
H            7.26867634068400        2.46642352104430       -0.76467193842282
H            9.14208095256115        2.31999041069509        0.70202512664024
H            9.56917647363212        1.92427471021032       -0.98803113457070
H           10.53039484643194        1.25909829902483        0.35582800282617
H            7.73299605548458       -3.80431944824916        0.78423679178514
H            6.11075461398092       -3.15386531661974        1.12158234998117
H            6.59751260437138       -3.52684275077138       -0.55875115668031
H            4.91800841595274       -1.85695555102958       -0.44714952918621
H            0.45051284919861       -1.52188791904046       -1.77069996728792
H           -0.24221555396460       -1.79830485958901       -0.16276604355189
H            1.45429194478176       -2.19396667527311       -0.47149673618394
H           -4.70102862450769        2.63560653182840       -0.84025789509603
H           -4.93481460934201        2.99456359757461        2.17041844110048
H           -5.75265410123171        1.74956980659275        1.21126848035551
H           -6.14613240106264        3.45047372810672        0.97278354185927
H           -3.24603021028247        4.58650961983645        0.98877521627112
H           -3.07084563369449        4.47564018918950       -0.77165900983606
H           -4.59635023679203        4.98953661370215       -0.06756065442435
H           -2.02293735659365        3.00976889711913        3.29530974166894

          :  Hamiltonian                  GFN2-xTB          :
         :: total energy            -105.589219729556 Eh    ::
         :: gradient norm              0.001947304700 Eh/a0 ::
         :: HOMO-LUMO gap              0.900856182445 eV    ::
         :: SCC energy              -100.767141592093 Eh    ::
         :: -> dispersion             -0.072564879638 Eh    ::
         :: repulsion energy           1.669521167475 Eh    ::

    * Orbital Energies and Occupations

         #    Occupation            Energy/Eh            Energy/eV
      -------------------------------------------------------------
         1        2.0000           -0.8284664             -22.5437
       ...           ...                  ...                  ...
        78        1.9972           -0.5277993             -14.3621
        79        1.9968           -0.5252789             -14.2936
        80        1.9961           -0.5224963             -14.2178
        81        1.9953           -0.5194951             -14.1362
        82        1.9933           -0.5137794             -13.9806
        83        1.9910           -0.5089841             -13.8502
        84        1.9905           -0.5081235             -13.8267
        85        1.9787           -0.4952927             -13.4776
        86        1.9675           -0.4885203             -13.2933
        87        1.9523           -0.4823137             -13.1244
        88        1.8867           -0.4680750             -12.7370
        89        1.8005           -0.4583752             -12.4730
        90        1.6763           -0.4495777             -12.2336 (HOMO)
        91        0.7806           -0.4164718             -11.3328 (LUMO)
        92        0.0075           -0.3350677              -9.1177
        93        0.0020           -0.3143528              -8.5540
        94        0.0019           -0.3130829              -8.5194
        95        0.0015           -0.3100993              -8.4382
        96        0.0004           -0.2902668              -7.8986
        97        0.0000           -0.2450290              -6.6676
        98        0.0000           -0.1874452              -5.1006
        99                         -0.1057188              -2.8768
       100                         -0.0890835              -2.4241
       101                         -0.0781494              -2.1266
       ...                                ...                  ...
       171                          1.9975672              54.3566
      -------------------------------------------------------------
                  HL-Gap            0.0331059 Eh            0.9009 eV

     #   Z          covCN         q      C6AA      α(0)
     1   7 N        1.774    -0.262    27.640     7.785
     2   6 C        2.829     0.105    25.678     8.304
     3   6 C        3.909     0.009    20.365     6.414
     4   6 C        2.959     0.018    27.600     8.617
     5   6 C        2.911    -0.058    29.452     8.899
     6   6 C        3.740     0.076    19.390     6.283
     7   8 O        1.692    -0.318    19.312     5.933
     8   6 C        3.636     0.039    20.293     6.482
     9   6 C        2.854     0.144    24.862     8.172
    10   8 O        1.705    -0.207    17.443     5.639
    11   6 C        3.645     0.019    20.597     6.523
    12   6 C        2.898    -0.066    29.654     8.929
    13   6 C        2.923    -0.031    28.770     8.796
    14   6 C        3.818    -0.062    21.674     6.626
    15   6 C        2.891    -0.070    29.755     8.943
    16   6 C        2.843     0.009    27.808     8.642
    17   7 N        2.732    -0.041    22.042     6.973
    18   6 C        3.751    -0.008    20.783     6.501
    19   6 C        3.807    -0.072    21.866     6.657
    20   6 C        2.968     0.007    27.858     8.657
    21   6 C        2.921    -0.044    29.096     8.846
    22   6 C        2.913    -0.065    29.625     8.925
    23   6 C        2.864     0.135    25.043     8.203
    24   8 O        1.706    -0.216    17.589     5.662
    25   6 C        3.645     0.024    20.514     6.510
    26   6 C        2.862     0.135    25.051     8.204
    27   8 O        1.706    -0.220    17.651     5.672
    28   6 C        3.645     0.026    20.469     6.503
    29   6 C        2.920    -0.078    29.939     8.973
    30   6 C        3.700    -0.058    21.783     6.675
    31   6 C        3.853    -0.007    20.670     6.466
    32   6 C        3.755    -0.118    22.815     6.811
    33   6 C        3.755    -0.119    22.836     6.814
    34   1 H        0.926     0.054     2.269     2.355
    35   1 H        0.924     0.041     2.441     2.443
    36   1 H        0.925     0.077     2.015     2.220
    37   1 H        0.924     0.043     2.408     2.427
    38   1 H        0.924     0.069     2.093     2.263
    39   1 H        0.925     0.088     1.902     2.157
    40   1 H        0.924     0.060     2.201     2.320
    41   1 H        0.926     0.059     2.209     2.324
    42   1 H        0.926     0.054     2.276     2.359
    43   1 H        0.924     0.062     2.180     2.309
    44   1 H        0.924     0.053     2.281     2.362
    45   1 H        0.931     0.117     1.637     2.000
    46   1 H        0.926     0.039     2.457     2.451
    47   1 H        0.923     0.016     2.796     2.615
    48   1 H        0.925     0.051     2.310     2.377
    49   1 H        0.924     0.057     2.240     2.341
    50   1 H        0.924     0.060     2.198     2.318
    51   1 H        0.924     0.055     2.261     2.351
    52   1 H        0.924     0.056     2.242     2.341
    53   1 H        0.926     0.053     2.286     2.364
    54   1 H        0.926     0.061     2.184     2.311
    55   1 H        0.924     0.058     2.229     2.335
    56   1 H        0.924     0.059     2.217     2.328
    57   1 H        0.925     0.084     1.937     2.177
    58   1 H        0.925     0.083     1.947     2.182
    59   1 H        0.924     0.051     2.309     2.377
    60   1 H        0.924     0.055     2.263     2.352
    61   1 H        0.926     0.049     2.329     2.386
    62   1 H        0.924     0.061     2.183     2.311
    63   1 H        0.924     0.062     2.181     2.310
    64   1 H        0.925     0.067     2.122     2.278
    65   1 H        0.924     0.042     2.425     2.435
    66   1 H        0.925     0.067     2.123     2.278
    67   1 H        0.925     0.042     2.419     2.432
    68   1 H        0.925     0.053     2.277     2.360
    69   1 H        0.925     0.066     2.128     2.281
    70   1 H        0.925     0.038     2.473     2.459
    71   1 H        0.925     0.055     2.253     2.347
    72   1 H        0.860     0.161     1.329     1.806

Wiberg/Mayer (AO) data.
largest (>0.10) Wiberg bond orders for each atom

     #   Z sym  total        # sym  WBO       # sym  WBO       # sym  WBO
 ---------------------------------------------------------------------------
     1   7 N    3.008 --     2 C    1.953    72 H    0.939
     2   6 C    3.937 --     1 N    1.953     3 C    0.992    47 H    0.926
     3   6 C    3.950 --     2 C    0.992     4 C    0.967    31 C    0.948
                            14 C    0.921
     4   6 C    3.965 --     5 C    1.603    13 C    1.261     3 C    0.967
     5   6 C    3.722 --     4 C    1.603     6 C    1.009    34 H    0.963
     6   6 C    3.939 --     5 C    1.009     9 C    0.978    45 H    0.964
                             7 O    0.895
     7   8 O    1.996 --     8 C    0.999     6 C    0.895
     8   6 C    3.932 --     7 O    0.999    37 H    0.975    35 H    0.973
                            36 H    0.968
     9   6 C    3.704 --    12 C    1.447    10 O    1.164     6 C    0.978
    10   8 O    2.271 --     9 C    1.164    11 C    0.964
    11   6 C    3.922 --    39 H    0.977    40 H    0.972    38 H    0.971
                            10 O    0.964
    12   6 C    3.952 --     9 C    1.447    13 C    1.380    41 H    0.958
    13   6 C    3.686 --    12 C    1.380     4 C    1.261    42 H    0.963
    14   6 C    3.981 --    15 C    1.041    44 H    0.969    43 H    0.953
                             3 C    0.921
    15   6 C    3.804 --    16 C    1.665    14 C    1.041    46 H    0.962
    16   6 C    3.929 --    15 C    1.665    17 N    1.215    48 H    0.955
    17   7 N    3.366 --    16 C    1.215    30 C    1.007    18 C    1.005
    18   6 C    3.961 --    17 N    1.005    50 H    0.969    49 H    0.964
                            19 C    0.962
    19   6 C    3.973 --    20 C    1.014    51 H    0.974    52 H    0.966
                            18 C    0.962
    20   6 C    3.928 --    21 C    1.399    29 C    1.378    19 C    1.014
    21   6 C    3.932 --    22 C    1.420    20 C    1.399    53 H    0.967
    22   6 C    3.950 --    21 C    1.420    23 C    1.377    54 H    0.962
    23   6 C    3.877 --    22 C    1.377    26 C    1.209    24 O    1.116
    24   8 O    2.249 --    23 C    1.116    25 C    0.975
    25   6 C    3.925 --    57 H    0.976    24 O    0.975    56 H    0.971
                            55 H    0.971
    26   6 C    3.884 --    29 C    1.394    23 C    1.209    27 O    1.108
    27   8 O    2.249 --    26 C    1.108    28 C    0.978
    28   6 C    3.930 --    27 O    0.978    58 H    0.976    59 H    0.973
                            60 H    0.972
    29   6 C    3.952 --    26 C    1.394    20 C    1.378    61 H    0.962
    30   6 C    3.968 --    17 N    1.007    64 H    0.980    63 H    0.971
                            62 H    0.968
    31   6 C    3.968 --    33 C    1.008    32 C    1.005    65 H    0.956
                             3 C    0.948
    32   6 C    3.970 --    31 C    1.005    68 H    0.980    67 H    0.979
                            66 H    0.972
    33   6 C    3.973 --    31 C    1.008    70 H    0.981    71 H    0.978
                            69 H    0.971
    34   1 H    0.995 --     5 C    0.963
    35   1 H    0.991 --     8 C    0.973
    36   1 H    0.988 --     8 C    0.968
    37   1 H    0.993 --     8 C    0.975
    38   1 H    0.989 --    11 C    0.971
    39   1 H    0.992 --    11 C    0.977
    40   1 H    0.990 --    11 C    0.972
    41   1 H    0.994 --    12 C    0.958
    42   1 H    0.996 --    13 C    0.963
    43   1 H    0.986 --    14 C    0.953
    44   1 H    0.995 --    14 C    0.969
    45   1 H    0.980 --     6 C    0.964
    46   1 H    0.998 --    15 C    0.962
    47   1 H    0.974 --     2 C    0.926
    48   1 H    0.997 --    16 C    0.955
    49   1 H    0.990 --    18 C    0.964
    50   1 H    0.995 --    18 C    0.969
    51   1 H    0.996 --    19 C    0.974
    52   1 H    0.994 --    19 C    0.966
    53   1 H    0.996 --    21 C    0.967
    54   1 H    0.994 --    22 C    0.962
    55   1 H    0.989 --    25 C    0.971
    56   1 H    0.989 --    25 C    0.971
    57   1 H    0.992 --    25 C    0.976
    58   1 H    0.992 --    28 C    0.976
    59   1 H    0.992 --    28 C    0.973
    60   1 H    0.991 --    28 C    0.972
    61   1 H    0.996 --    29 C    0.962
    62   1 H    0.984 --    30 C    0.968
    63   1 H    0.988 --    30 C    0.971
    64   1 H    0.995 --    30 C    0.980
    65   1 H    0.987 --    31 C    0.956
    66   1 H    0.988 --    32 C    0.972
    67   1 H    0.994 --    32 C    0.979
    68   1 H    0.992 --    32 C    0.980
    69   1 H    0.989 --    33 C    0.971
    70   1 H    0.995 --    33 C    0.981
    71   1 H    0.992 --    33 C    0.978
    72   1 H    0.965 --     1 N    0.939
 ---------------------------------------------------------------------------

molecular dipole:
                 x           y           z       tot (Debye)
 q only:        0.808      -0.861      -0.128
   full:        1.005      -1.164      -0.193       3.939

           -------------------------------------------------
          | TOTAL ENERGY             -105.589219729556 Eh   |
          | GRADIENT NORM               0.001947304700 Eh/α |
          | HOMO-LUMO GAP               0.900856182445 eV   |
           -------------------------------------------------

 * finished run on 2024/04/06 at 11:16:09.505
