   * xtb version 6.6.1 (8d0f1dd) compiled by 'conda@1efc2f54142f' on 2023-08-01
          program call               : xtb xtbopt.xyz --opt crude --input .xc2 --gfn2

   ID    Z sym.   atoms
    1    7 N      1, 17
    2    6 C      2-6, 8, 9, 11-16, 18-23, 25, 26, 28-33
    3    8 O      7, 10, 24, 27
    4    1 H      34-72
########################################################################
[WARNING] Please study the warnings concerning your input carefully
-1- readin_getIntValue: could not parse ''
########################################################################

          :  Hamiltonian                  GFN2-xTB          :
 * total energy  :   -99.0967461 Eh     change       -0.1335820E-11 Eh
 * total energy  :   -99.3630375 Eh     change       -0.2662913E+00 Eh
 * total energy  :   -99.3665234 Eh     change       -0.3485977E-02 Eh
 * total energy  :   -99.3675913 Eh     change       -0.1067874E-02 Eh
 * total energy  :   -99.3679240 Eh     change       -0.3327235E-03 Eh
 * total energy  :   -99.3681995 Eh     change       -0.2754804E-03 Eh
   *** GEOMETRY OPTIMIZATION CONVERGED AFTER 6 ITERATIONS ***

 final structure:
================
72
 xtb: 6.6.1 (8d0f1dd)
N           -2.61546214539825        2.93676979707099        2.48175799848092
C           -2.35847496048865        2.04064132542251        1.64927851690887
C           -3.11894028259478        1.84778263838938        0.36441063954464
C           -3.75494382943593        0.46369678310724        0.34093356791814
C           -4.29721566137211       -0.03259596528395       -0.80439140686235
C           -5.11068772162658       -1.28859578499209       -0.82205292722588
O           -6.50461918729698       -0.92896778426797       -0.71967147623349
C           -7.22043257651828       -0.90123741028655       -1.92749301452525
C           -4.85142803413746       -2.15847502507062        0.38197030435851
O           -5.29221232430149       -3.40314788398481        0.21427750676902
C           -5.29308467267710       -4.30405987248369        1.30408137474865
C           -4.30667744548629       -1.61523827619383        1.51906687759754
C           -3.81607077630788       -0.31078883619329        1.52135918573542
C           -2.03167823870371        1.95445078535420       -0.75259171427867
C           -1.10795511287818        0.78445747073945       -0.76689833098366
C            0.17445178569443        0.85888716581100       -0.36560710883973
N            1.05109925632381       -0.17437739700609       -0.27490895899098
C            2.44396700324378        0.05919626964288       -0.00680492715880
C            3.30049819367292        0.09907640054128       -1.29134430411162
C            4.75568641669164        0.21024587898567       -0.94380339744454
C            5.42578248990738        1.42214625397075       -1.01870194637409
C            6.76572145129247        1.51646332356470       -0.67672690829587
C            7.46503673346609        0.39942002179592       -0.23955716333704
O            8.76093383308643        0.37203573694043        0.11650722145963
C            9.52572175593375        1.55280533016849        0.03574612807174
C            6.78396459008814       -0.84826283015801       -0.14880600979033
O            7.53262215073198       -1.87874673446353        0.28805409090687
C            6.95008921350548       -3.15486225454308        0.40578514969124
C            5.44619857685544       -0.91770243006638       -0.50412611983177
C            0.65798806000177       -1.49604673548357       -0.69039304113711
C           -4.24576398323202        2.89234464055590        0.13539839086287
C           -5.33615837935335        2.76797572197660        1.19748853486066
C           -3.74031204093769        4.33035871792880        0.07364030104694
H           -4.28410542734586        0.53092993102263       -1.72381733296291
H           -6.85389162407189       -0.11919273361601       -2.60170280986217
H           -8.25181433306202       -0.68328117276273       -1.65577682949747
H           -7.17787922049331       -1.86920920677248       -2.43949181829843
H           -5.92204765278516       -3.93475580696308        2.11727234950236
H           -5.70432236830949       -5.23416880978012        0.91751967906842
H           -4.27887794504706       -4.47699136640150        1.67339281394303
H           -4.24320272845711       -2.19197099947749        2.42849441165346
H           -3.46106488304789        0.10455696150090        2.45078065318909
H           -2.54116884504003        2.03029258718312       -1.71473049236038
H           -1.46504652294154        2.87237263403109       -0.59283460159483
H           -4.97448107691386       -1.86126201218531       -1.74772450683244
H           -1.53577055972662       -0.15017050117053       -1.09242541063024
H           -1.51942528487877        1.33375484069314        1.74728155126300
H            0.57963212855544        1.81326851750771       -0.05380372039428
H            2.81658724312942       -0.73826172701012        0.64392521730747
H            2.55422714126069        1.00704626856046        0.52412740411961
H            2.98893263982525        0.94878708476089       -1.89978151248091
H            3.12561899448469       -0.81521827814547       -1.86129005159471
H            4.90598267922230        2.30490760794430       -1.35777178437587
H            7.26122529112865        2.47020501348845       -0.75564818421680
H            9.13430098957074        2.32945844604299        0.69940177232062
H            9.56629087727806        1.93336360916982       -0.98898366341511
H           10.52726264362964        1.27405835672690        0.35758654833749
H            7.74205768791616       -3.80504778564083        0.77224471174836
H            6.12304860392112       -3.15333885775086        1.12300277826112
H            6.59636026191643       -3.52516784068221       -0.56139629358765
H            4.92614373641280       -1.86173607856929       -0.45440435697168
H            0.45442663029551       -1.53707570064811       -1.76455258025709
H           -0.24519848340252       -1.80072303572949       -0.15786101990608
H            1.45201821290377       -2.20078129503610       -0.45635881444752
H           -4.69581687625098        2.64956092442611       -0.83447803571802
H           -4.93125549745201        3.00595667828306        2.17660113418726
H           -5.75156928098525        1.76300537219295        1.21762809857090
H           -6.14126032280977        3.46450043858967        0.97826165834303
H           -3.24358194678566        4.59525833804585        1.00205381999630
H           -3.05617662598837        4.48290195698038       -0.75692872555296
H           -4.58571296077004        4.99973625683326       -0.06383829808561
H           -2.02157383561051        3.01292186542153        3.30141405026628

          :  Hamiltonian                  GFN2-xTB          :
         :: total energy             -99.368199530751 Eh    ::
         :: gradient norm              0.006293216029 Eh/a0 ::
         :: HOMO-LUMO gap              0.906127481387 eV    ::
         :: SCC energy              -100.741977706437 Eh    ::
         :: -> dispersion             -0.072513081447 Eh    ::
         :: repulsion energy           1.372909659016 Eh    ::

    * Orbital Energies and Occupations

         #    Occupation            Energy/Eh            Energy/eV
      -------------------------------------------------------------
         1        2.0000           -0.8278689             -22.5275
       ...           ...                  ...                  ...
        78        1.9973           -0.5277611             -14.3611
        79        1.9968           -0.5254276             -14.2976
        80        1.9961           -0.5221481             -14.2084
        81        1.9954           -0.5193393             -14.1319
        82        1.9935           -0.5139448             -13.9852
        83        1.9912           -0.5091165             -13.8538
        84        1.9908           -0.5085542             -13.8385
        85        1.9770           -0.4938960             -13.4396
        86        1.9676           -0.4883614             -13.2890
        87        1.9545           -0.4828775             -13.1398
        88        1.8881           -0.4680836             -12.7372
        89        1.8011           -0.4582350             -12.4692
        90        1.6771           -0.4494316             -12.2297 (HOMO)
        91        0.7762           -0.4161321             -11.3235 (LUMO)
        92        0.0076           -0.3351415              -9.1197
        93        0.0021           -0.3144702              -8.5572
        94        0.0019           -0.3129223              -8.5150
        95        0.0016           -0.3099520              -8.4342
        96        0.0004           -0.2901413              -7.8951
        97        0.0000           -0.2439235              -6.6375
        98        0.0000           -0.1872876              -5.0964
        99                         -0.1057758              -2.8783
       100                         -0.0847372              -2.3058
       101                         -0.0614879              -1.6732
       ...                                ...                  ...
       171                          0.5760077              15.6740
      -------------------------------------------------------------
                  HL-Gap            0.0332996 Eh            0.9061 eV

     #   Z          covCN         q      C6AA      α(0)
     1   7 N        1.774    -0.263    27.648     7.786
     2   6 C        2.829     0.105    25.679     8.304
     3   6 C        3.909     0.009    20.366     6.414
     4   6 C        2.960     0.018    27.597     8.617
     5   6 C        2.910    -0.055    29.354     8.884
     6   6 C        3.746     0.107    18.890     6.199
     7   8 O        1.699    -0.300    18.995     5.884
     8   6 C        3.637     0.037    20.319     6.485
     9   6 C        2.855     0.148    24.773     8.158
    10   8 O        1.705    -0.204    17.405     5.633
    11   6 C        3.645     0.019    20.597     6.523
    12   6 C        2.899    -0.067    29.656     8.929
    13   6 C        2.922    -0.031    28.773     8.796
    14   6 C        3.817    -0.062    21.672     6.626
    15   6 C        2.891    -0.070    29.751     8.943
    16   6 C        2.843     0.009    27.807     8.642
    17   7 N        2.732    -0.041    22.042     6.973
    18   6 C        3.751    -0.008    20.782     6.501
    19   6 C        3.807    -0.072    21.866     6.657
    20   6 C        2.968     0.007    27.859     8.658
    21   6 C        2.921    -0.044    29.097     8.846
    22   6 C        2.913    -0.065    29.626     8.925
    23   6 C        2.864     0.135    25.044     8.203
    24   8 O        1.706    -0.216    17.592     5.663
    25   6 C        3.645     0.024    20.513     6.509
    26   6 C        2.862     0.135    25.051     8.204
    27   8 O        1.706    -0.220    17.652     5.673
    28   6 C        3.645     0.026    20.469     6.503
    29   6 C        2.920    -0.078    29.939     8.973
    30   6 C        3.699    -0.058    21.782     6.675
    31   6 C        3.853    -0.007    20.669     6.466
    32   6 C        3.756    -0.118    22.806     6.809
    33   6 C        3.755    -0.119    22.830     6.813
    34   1 H        0.926     0.055     2.252     2.347
    35   1 H        0.924     0.042     2.425     2.435
    36   1 H        0.925     0.078     2.005     2.214
    37   1 H        0.924     0.044     2.391     2.418
    38   1 H        0.924     0.069     2.093     2.262
    39   1 H        0.925     0.088     1.895     2.153
    40   1 H        0.924     0.060     2.194     2.317
    41   1 H        0.926     0.059     2.208     2.324
    42   1 H        0.926     0.053     2.279     2.360
    43   1 H        0.924     0.061     2.184     2.311
    44   1 H        0.924     0.053     2.283     2.363
    45   1 H        0.924     0.057     2.232     2.336
    46   1 H        0.926     0.039     2.462     2.454
    47   1 H        0.923     0.016     2.799     2.616
    48   1 H        0.925     0.051     2.309     2.376
    49   1 H        0.924     0.056     2.241     2.341
    50   1 H        0.924     0.060     2.198     2.319
    51   1 H        0.924     0.055     2.261     2.351
    52   1 H        0.924     0.056     2.243     2.342
    53   1 H        0.926     0.053     2.287     2.365
    54   1 H        0.926     0.061     2.185     2.312
    55   1 H        0.924     0.057     2.230     2.335
    56   1 H        0.924     0.059     2.216     2.328
    57   1 H        0.925     0.084     1.938     2.177
    58   1 H        0.925     0.083     1.947     2.182
    59   1 H        0.924     0.051     2.308     2.376
    60   1 H        0.924     0.055     2.263     2.353
    61   1 H        0.926     0.049     2.328     2.386
    62   1 H        0.924     0.061     2.183     2.310
    63   1 H        0.924     0.062     2.181     2.310
    64   1 H        0.925     0.067     2.123     2.278
    65   1 H        0.924     0.041     2.434     2.440
    66   1 H        0.925     0.067     2.119     2.276
    67   1 H        0.925     0.041     2.436     2.441
    68   1 H        0.925     0.053     2.281     2.362
    69   1 H        0.925     0.066     2.131     2.283
    70   1 H        0.925     0.038     2.475     2.460
    71   1 H        0.925     0.055     2.255     2.348
    72   1 H        0.860     0.161     1.329     1.806

Wiberg/Mayer (AO) data.
largest (>0.10) Wiberg bond orders for each atom

     #   Z sym  total        # sym  WBO       # sym  WBO       # sym  WBO
 ---------------------------------------------------------------------------
     1   7 N    3.008 --     2 C    1.953    72 H    0.939
     2   6 C    3.937 --     1 N    1.953     3 C    0.992    47 H    0.926
     3   6 C    3.950 --     2 C    0.992     4 C    0.967    31 C    0.948
                            14 C    0.922
     4   6 C    3.966 --     5 C    1.600    13 C    1.262     3 C    0.967
     5   6 C    3.720 --     4 C    1.600     6 C    1.010    34 H    0.962
     6   6 C    3.950 --     5 C    1.010     9 C    0.981    45 H    0.943
                             7 O    0.927
     7   8 O    2.026 --     8 C    0.993     6 C    0.927
     8   6 C    3.931 --     7 O    0.993    35 H    0.974    37 H    0.973
                            36 H    0.971
     9   6 C    3.707 --    12 C    1.446    10 O    1.166     6 C    0.981
    10   8 O    2.274 --     9 C    1.166    11 C    0.963
    11   6 C    3.921 --    39 H    0.977    40 H    0.972    38 H    0.971
                            10 O    0.963
    12   6 C    3.952 --     9 C    1.446    13 C    1.378    41 H    0.959
    13   6 C    3.685 --    12 C    1.378     4 C    1.262    42 H    0.962
    14   6 C    3.981 --    15 C    1.041    44 H    0.969    43 H    0.953
                             3 C    0.922
    15   6 C    3.805 --    16 C    1.666    14 C    1.041    46 H    0.962
    16   6 C    3.929 --    15 C    1.666    17 N    1.215    48 H    0.955
    17   7 N    3.366 --    16 C    1.215    30 C    1.007    18 C    1.005
    18   6 C    3.961 --    17 N    1.005    50 H    0.969    49 H    0.964
                            19 C    0.962
    19   6 C    3.973 --    20 C    1.014    51 H    0.974    52 H    0.967
                            18 C    0.962
    20   6 C    3.928 --    21 C    1.398    29 C    1.378    19 C    1.014
    21   6 C    3.932 --    22 C    1.420    20 C    1.398    53 H    0.967
    22   6 C    3.950 --    21 C    1.420    23 C    1.377    54 H    0.962
    23   6 C    3.877 --    22 C    1.377    26 C    1.209    24 O    1.116
    24   8 O    2.249 --    23 C    1.116    25 C    0.975
    25   6 C    3.925 --    57 H    0.976    24 O    0.975    56 H    0.971
                            55 H    0.971
    26   6 C    3.884 --    29 C    1.393    23 C    1.209    27 O    1.109
    27   8 O    2.249 --    26 C    1.109    28 C    0.978
    28   6 C    3.930 --    27 O    0.978    58 H    0.976    59 H    0.973
                            60 H    0.972
    29   6 C    3.952 --    26 C    1.393    20 C    1.378    61 H    0.962
    30   6 C    3.967 --    17 N    1.007    64 H    0.980    63 H    0.971
                            62 H    0.968
    31   6 C    3.969 --    33 C    1.008    32 C    1.005    65 H    0.956
                             3 C    0.948
    32   6 C    3.970 --    31 C    1.005    68 H    0.980    67 H    0.980
                            66 H    0.972
    33   6 C    3.974 --    31 C    1.008    70 H    0.981    71 H    0.979
                            69 H    0.972
    34   1 H    0.995 --     5 C    0.962
    35   1 H    0.991 --     8 C    0.974
    36   1 H    0.990 --     8 C    0.971
    37   1 H    0.993 --     8 C    0.973
    38   1 H    0.989 --    11 C    0.971
    39   1 H    0.992 --    11 C    0.977
    40   1 H    0.990 --    11 C    0.972
    41   1 H    0.994 --    12 C    0.959
    42   1 H    0.996 --    13 C    0.962
    43   1 H    0.986 --    14 C    0.953
    44   1 H    0.995 --    14 C    0.969
    45   1 H    0.979 --     6 C    0.943
    46   1 H    0.998 --    15 C    0.962
    47   1 H    0.975 --     2 C    0.926
    48   1 H    0.997 --    16 C    0.955
    49   1 H    0.990 --    18 C    0.964
    50   1 H    0.995 --    18 C    0.969
    51   1 H    0.996 --    19 C    0.974
    52   1 H    0.994 --    19 C    0.967
    53   1 H    0.996 --    21 C    0.967
    54   1 H    0.994 --    22 C    0.962
    55   1 H    0.989 --    25 C    0.971
    56   1 H    0.989 --    25 C    0.971
    57   1 H    0.992 --    25 C    0.976
    58   1 H    0.992 --    28 C    0.976
    59   1 H    0.991 --    28 C    0.973
    60   1 H    0.991 --    28 C    0.972
    61   1 H    0.996 --    29 C    0.962
    62   1 H    0.984 --    30 C    0.968
    63   1 H    0.988 --    30 C    0.971
    64   1 H    0.995 --    30 C    0.980
    65   1 H    0.987 --    31 C    0.956
    66   1 H    0.989 --    32 C    0.972
    67   1 H    0.995 --    32 C    0.980
    68   1 H    0.992 --    32 C    0.980
    69   1 H    0.989 --    33 C    0.972
    70   1 H    0.995 --    33 C    0.981
    71   1 H    0.992 --    33 C    0.979
    72   1 H    0.965 --     1 N    0.939
 ---------------------------------------------------------------------------

molecular dipole:
                 x           y           z       tot (Debye)
 q only:        0.744      -0.833      -0.073
   full:        0.968      -1.137      -0.162       3.817

           -------------------------------------------------
          | TOTAL ENERGY              -99.368199530751 Eh   |
          | GRADIENT NORM               0.006293216029 Eh/α |
          | HOMO-LUMO GAP               0.906127481387 eV   |
           -------------------------------------------------

 * finished run on 2024/04/06 at 11:16:10.748
