   * xtb version 6.6.1 (8d0f1dd) compiled by 'conda@1efc2f54142f' on 2023-08-01
          program call               : xtb xtbopt.xyz --opt crude --input .xc2 --gfn2

   ID    Z sym.   atoms
    1    7 N      1, 17
    2    6 C      2-6, 8, 9, 11-16, 18-23, 25, 26, 28-33
    3    8 O      7, 10, 24, 27
    4    1 H      34-72

          :  Hamiltonian                  GFN2-xTB          :
 * total energy  :   -99.3399759 Eh     change       -0.3694822E-12 Eh
   *** GEOMETRY OPTIMIZATION CONVERGED AFTER 1 ITERATIONS ***

 final structure:
================
72
 xtb: 6.6.1 (8d0f1dd)
N           -1.93959716991503        3.41158188682998        1.36565476435044
C           -1.82249750054508        2.15810134619521        0.94905758353826
C           -2.94912556151289        1.79013476548659        0.04023196121870
C           -3.46212930658417        0.37734687208478        0.20806137432482
C           -4.42825711507240       -0.11564177818755       -0.67201177612959
C           -4.92618812359562       -1.40172470943098       -0.55190660563673
O           -5.86252753948114       -1.95344152443453       -1.35237705374868
C           -6.46974470463582       -1.16445867116425       -2.34789961909371
C           -4.44092382466610       -2.24566419140844        0.48269517622973
O           -4.96567366391668       -3.48681500465081        0.51417752976926
C           -4.57438864803012       -4.36903680566278        1.54017886910913
C           -3.49860424220515       -1.74227600929456        1.36384375825631
C           -3.02067116241319       -0.44426193639941        1.23128424987526
C           -2.48081076349905        2.03753198638095       -1.42068429979097
C           -1.45186630170150        1.00030152306947       -1.88517321319556
C           -0.17828750076877        1.09020419402117       -1.13805386406698
N            0.46883903762877        0.05767382167306       -0.59302836345001
C            1.84611802703111        0.19529120007400       -0.18211068638488
C            2.81515982236429       -0.27951170162675       -1.28379233933530
C            4.24163710235559       -0.09437331106810       -0.84938790336905
C            4.88853913828184        1.11406295408550       -1.04708335851713
C            6.20361449852505        1.29010447376901       -0.64436549135022
C            6.89797536967123        0.25822056279312       -0.03071500791185
O            8.17674429206908        0.31123539440224        0.38927323364517
C            8.92149709867020        1.48767412217065        0.17455694561541
C            6.23929960906660       -0.98273449932198        0.18650351691486
O            6.98802778708697       -1.93033972780459        0.78778049077453
C            6.43764940193357       -3.20672270040550        1.00744604676494
C            4.92421746301902       -1.13458912065241       -0.22226063194648
C           -0.07837972736504       -1.27770305160885       -0.60498018208711
C           -4.01157408784547        2.87867317853263        0.42306621812943
C           -4.97464196094692        2.40915106015246        1.50726405562000
C           -3.15542195410925        4.04909285973851        0.93976813247599
H           -4.81041357293658        0.52477481733560       -1.44927216506217
H           -6.96578527118606       -0.28816785353602       -1.91899640967589
H           -7.21471334982794       -1.80634511026117       -2.81386871096316
H           -5.74702321199540       -0.84356185562845       -3.10529673061224
H           -4.81610457519454       -3.96775139395916        2.52895676414299
H           -5.14326379061536       -5.28150834180104        1.37296240037912
H           -3.50442571503407       -4.59525769600832        1.48854709049287
H           -3.13145777720226       -2.35128784941040        2.17371421334167
H           -2.31169305403733       -0.08270634104600        1.95899210053932
H           -3.34085406801331        2.00385597361657       -2.08847314295804
H           -2.04714885603228        3.03638278944389       -1.48846588605282
H           -1.88805516267715        0.00561594261422       -1.81933553741489
H           -1.24234415060766        1.20547932098462       -2.94254929784386
H           -0.98672265877567        1.55126799061245        1.23370923180700
H            0.32874210127277        2.04165918549038       -1.11579175786458
H            2.01155303607585       -0.39322454708220        0.72430244039625
H            2.05358077419868        1.24284850977332        0.04580693071306
H            2.62312790095109        0.30157978266997       -2.18771480748585
H            2.62628087926581       -1.33114603517374       -1.50260264503303
H            4.37455122412385        1.92865152889882       -1.53456153769298
H            6.68352315979342        2.23853365812165       -0.82165615160295
H            8.48858146962682        2.33968806068442        0.70756390768296
H            8.99880916732983        1.72364161090108       -0.89109051859778
H            9.91363935530042        1.28106160413324        0.57113005342428
H            7.23067130310822       -3.79060956287923        1.47055013050068
H            5.57901797971360       -3.16299358894362        1.68530994833559
H            6.13960471684648       -3.68291701742072        0.06815902273680
H            4.41935662916824       -2.07614684969238       -0.07202698360055
H           -0.08862149710503       -1.69883678289642       -1.61327809570580
H           -1.09808327052338       -1.27294954275885       -0.21545608370819
H            0.53003171013465       -1.91716872680565        0.03002202821755
H           -4.58461020739466        3.17872719138892       -0.45497149229466
H           -4.43262120511649        2.10844231067011        2.40165262277313
H           -5.56962627651129        1.56613173954888        1.16621898383851
H           -5.64858238672451        3.22145745145007        1.76968444617871
H           -4.02366164760341        5.76111369252211        3.09221864876639
H           -2.94416938449346        4.78529081630539        0.15638954903309
H           -3.62200001023205        4.60684850437644        1.78685309571011
H           -1.29058249904089        3.86657867810939        1.98891567699603

          :  Hamiltonian                  GFN2-xTB          :
         :: total energy             -99.339975907884 Eh    ::
         :: gradient norm              0.005887128532 Eh/a0 ::
         :: HOMO-LUMO gap              0.501562941228 eV    ::
         :: SCC energy              -100.694714897574 Eh    ::
         :: -> dispersion             -0.075556467579 Eh    ::
         :: repulsion energy           1.353634620289 Eh    ::

    * Orbital Energies and Occupations

         #    Occupation            Energy/Eh            Energy/eV
      -------------------------------------------------------------
         1        2.0000           -0.8071227             -21.9629
       ...           ...                  ...                  ...
        78        1.9994           -0.5369983             -14.6125
        79        1.9993           -0.5362506             -14.5921
        80        1.9991           -0.5309464             -14.4478
        81        1.9989           -0.5287261             -14.3874
        82        1.9988           -0.5271303             -14.3439
        83        1.9986           -0.5243159             -14.2674
        84        1.9981           -0.5201352             -14.1536
        85        1.9976           -0.5159999             -14.0411
        86        1.9883           -0.4910424             -13.3619
        87        1.9819           -0.4840947             -13.1729
        88        1.9180           -0.4596985             -12.5090
        89        1.8680           -0.4517393             -12.2925
        90        1.2748           -0.4187126             -11.3938 (HOMO)
        91        0.7087           -0.4002805             -10.8922 (LUMO)
        92        0.2579           -0.3795338             -10.3276
        93        0.0058           -0.3174380              -8.6379
        94        0.0049           -0.3144678              -8.5571
        95        0.0032           -0.3079065              -8.3786
        96        0.0028           -0.3055898              -8.3155
        97        0.0000           -0.1919804              -5.2241
        98        0.0000           -0.1828497              -4.9756
        99                         -0.1294707              -3.5231
       100                         -0.1096120              -2.9827
       101                         -0.0833375              -2.2677
       ...                                ...                  ...
       171                          0.5814983              15.8234
      -------------------------------------------------------------
                  HL-Gap            0.0184321 Eh            0.5016 eV

     #   Z          covCN         q      C6AA      α(0)
     1   7 N        2.711    -0.061    22.424     7.033
     2   6 C        2.897     0.008    27.841     8.651
     3   6 C        3.931     0.013    20.296     6.402
     4   6 C        2.968    -0.003    28.107     8.696
     5   6 C        2.921    -0.082    30.042     8.988
     6   6 C        2.863     0.129    25.177     8.225
     7   8 O        1.706    -0.233    17.855     5.705
     8   6 C        3.644     0.028    20.439     6.498
     9   6 C        2.864     0.129    25.175     8.224
    10   8 O        1.706    -0.230    17.821     5.700
    11   6 C        3.645     0.027    20.450     6.499
    12   6 C        2.914    -0.075    29.879     8.963
    13   6 C        2.922    -0.057    29.418     8.894
    14   6 C        3.811    -0.066    21.756     6.639
    15   6 C        3.803    -0.069    21.821     6.650
    16   6 C        2.843    -0.011    28.272     8.714
    17   7 N        2.729     0.002    21.235     6.844
    18   6 C        3.755    -0.016    20.918     6.521
    19   6 C        3.808    -0.070    21.837     6.652
    20   6 C        2.968    -0.002    28.068     8.690
    21   6 C        2.922    -0.050    29.243     8.868
    22   6 C        2.914    -0.068    29.705     8.937
    23   6 C        2.865     0.132    25.105     8.213
    24   8 O        1.706    -0.225    17.737     5.686
    25   6 C        3.645     0.026    20.470     6.502
    26   6 C        2.863     0.132    25.112     8.214
    27   8 O        1.706    -0.228    17.779     5.693
    28   6 C        3.645     0.028    20.437     6.498
    29   6 C        2.920    -0.080    30.001     8.982
    30   6 C        3.699    -0.071    22.027     6.712
    31   6 C        3.888    -0.020    20.875     6.495
    32   6 C        3.754    -0.115    22.762     6.803
    33   6 C        3.786    -0.020    20.949     6.519
    34   1 H        0.926     0.049     2.330     2.387
    35   1 H        0.924     0.051     2.311     2.377
    36   1 H        0.925     0.081     1.971     2.195
    37   1 H        0.924     0.046     2.366     2.405
    38   1 H        0.924     0.053     2.278     2.360
    39   1 H        0.925     0.081     1.973     2.197
    40   1 H        0.924     0.047     2.355     2.400
    41   1 H        0.926     0.051     2.303     2.373
    42   1 H        0.926     0.036     2.504     2.474
    43   1 H        0.925     0.062     2.172     2.305
    44   1 H        0.924     0.050     2.319     2.382
    45   1 H        0.925     0.066     2.129     2.282
    46   1 H        0.924     0.078     1.997     2.210
    47   1 H        0.926     0.060     2.196     2.318
    48   1 H        0.926     0.059     2.212     2.326
    49   1 H        0.924     0.064     2.152     2.294
    50   1 H        0.924     0.064     2.156     2.296
    51   1 H        0.924     0.053     2.279     2.361
    52   1 H        0.924     0.054     2.267     2.354
    53   1 H        0.926     0.042     2.421     2.433
    54   1 H        0.926     0.056     2.243     2.342
    55   1 H        0.924     0.052     2.290     2.366
    56   1 H        0.924     0.054     2.269     2.356
    57   1 H        0.925     0.081     1.970     2.195
    58   1 H        0.925     0.080     1.975     2.198
    59   1 H        0.924     0.047     2.355     2.400
    60   1 H        0.924     0.051     2.308     2.376
    61   1 H        0.926     0.046     2.374     2.410
    62   1 H        0.924     0.073     2.054     2.241
    63   1 H        0.924     0.079     1.989     2.206
    64   1 H        0.925     0.077     2.015     2.220
    65   1 H        0.924     0.055     2.260     2.351
    66   1 H        0.925     0.048     2.346     2.395
    67   1 H        0.925     0.052     2.298     2.371
    68   1 H        0.925     0.063     2.168     2.303
    69   1 H        0.000    -0.226    32.282    10.389
    70   1 H        0.924     0.067     2.118     2.276
    71   1 H        0.920     0.106     1.730     2.057
    72   1 H        0.860     0.189     1.164     1.690

Wiberg/Mayer (AO) data.
largest (>0.10) Wiberg bond orders for each atom

     #   Z sym  total        # sym  WBO       # sym  WBO       # sym  WBO
 ---------------------------------------------------------------------------
     1   7 N    3.417 --     2 C    1.410    33 C    1.000    72 H    0.935
     2   6 C    3.551 --     1 N    1.410     3 C    1.022    47 H    0.960
     3   6 C    3.983 --     2 C    1.022     4 C    0.983    14 C    0.940
                            31 C    0.939
     4   6 C    3.953 --    13 C    1.422     5 C    1.365     3 C    0.983
     5   6 C    3.967 --     6 C    1.406     4 C    1.365    34 H    0.959
     6   6 C    3.916 --     5 C    1.406     9 C    1.226     7 O    1.097
     7   8 O    2.260 --     6 C    1.097     8 C    0.979
     8   6 C    3.934 --     7 O    0.979    36 H    0.977    35 H    0.974
                            37 H    0.974
     9   6 C    3.914 --    12 C    1.397     6 C    1.226    10 O    1.101
    10   8 O    2.261 --     9 C    1.101    11 C    0.978
    11   6 C    3.933 --    10 O    0.978    39 H    0.977    40 H    0.974
                            38 H    0.974
    12   6 C    3.968 --    13 C    1.399     9 C    1.397    41 H    0.964
    13   6 C    3.964 --     4 C    1.422    12 C    1.399    42 H    0.964
    14   6 C    3.949 --    15 C    0.985    44 H    0.975    43 H    0.965
                             3 C    0.940
    15   6 C    3.989 --    16 C    1.057    14 C    0.985    45 H    0.964
                            46 H    0.931
    16   6 C    3.538 --    17 N    1.367    15 C    1.057    48 H    0.960
    17   7 N    3.433 --    16 C    1.367    30 C    1.000    18 C    0.990
    18   6 C    3.957 --    17 N    0.990    50 H    0.968    49 H    0.966
                            19 C    0.965
    19   6 C    3.974 --    20 C    1.008    52 H    0.972    51 H    0.972
                            18 C    0.965
    20   6 C    3.949 --    21 C    1.413    29 C    1.378    19 C    1.008
    21   6 C    3.954 --    22 C    1.415    20 C    1.413    53 H    0.969
    22   6 C    3.963 --    21 C    1.415    23 C    1.387    54 H    0.963
    23   6 C    3.900 --    22 C    1.387    26 C    1.223    24 O    1.106
    24   8 O    2.255 --    23 C    1.106    25 C    0.977
    25   6 C    3.930 --    57 H    0.977    24 O    0.977    56 H    0.973
                            55 H    0.973
    26   6 C    3.904 --    29 C    1.398    23 C    1.223    27 O    1.100
    27   8 O    2.254 --    26 C    1.100    28 C    0.979
    28   6 C    3.934 --    27 O    0.979    58 H    0.977    59 H    0.974
                            60 H    0.974
    29   6 C    3.961 --    26 C    1.398    20 C    1.378    61 H    0.963
    30   6 C    3.959 --    17 N    1.000    64 H    0.977    62 H    0.966
                            63 H    0.961
    31   6 C    3.979 --    32 C    1.013    33 C    0.989    65 H    0.968
                             3 C    0.939
    32   6 C    3.988 --    31 C    1.013    66 H    0.985    67 H    0.981
                            68 H    0.980
    33   6 C    3.900 --     1 N    1.000    31 C    0.989    70 H    0.951
                            71 H    0.895
    34   1 H    0.996 --     5 C    0.959
    35   1 H    0.995 --     8 C    0.974
    36   1 H    0.993 --     8 C    0.977
    37   1 H    0.995 --     8 C    0.974
    38   1 H    0.994 --    11 C    0.974
    39   1 H    0.993 --    11 C    0.977
    40   1 H    0.995 --    11 C    0.974
    41   1 H    0.996 --    12 C    0.964
    42   1 H    0.998 --    13 C    0.964
    43   1 H    0.991 --    14 C    0.965
    44   1 H    0.997 --    14 C    0.975
    45   1 H    0.995 --    15 C    0.964
    46   1 H    0.970 --    15 C    0.931
    47   1 H    0.996 --     2 C    0.960
    48   1 H    0.996 --    16 C    0.960
    49   1 H    0.992 --    18 C    0.966
    50   1 H    0.995 --    18 C    0.968
    51   1 H    0.996 --    19 C    0.972
    52   1 H    0.996 --    19 C    0.972
    53   1 H    0.998 --    21 C    0.969
    54   1 H    0.995 --    22 C    0.963
    55   1 H    0.993 --    25 C    0.973
    56   1 H    0.993 --    25 C    0.973
    57   1 H    0.993 --    25 C    0.977
    58   1 H    0.993 --    28 C    0.977
    59   1 H    0.994 --    28 C    0.974
    60   1 H    0.994 --    28 C    0.974
    61   1 H    0.997 --    29 C    0.963
    62   1 H    0.983 --    30 C    0.966
    63   1 H    0.987 --    30 C    0.961
    64   1 H    0.994 --    30 C    0.977
    65   1 H    0.996 --    31 C    0.968
    66   1 H    0.997 --    32 C    0.985
    67   1 H    0.997 --    32 C    0.981
    68   1 H    0.995 --    32 C    0.980
    69   1 H    0.084
    70   1 H    0.982 --    33 C    0.951
    71   1 H    0.982 --    33 C    0.895
    72   1 H    0.963 --     1 N    0.935
 ---------------------------------------------------------------------------

molecular dipole:
                 x           y           z       tot (Debye)
 q only:        0.568      -0.133      -1.071
   full:        0.718       0.145      -1.012       3.176

           -------------------------------------------------
          | TOTAL ENERGY              -99.339975907884 Eh   |
          | GRADIENT NORM               0.005887128532 Eh/α |
          | HOMO-LUMO GAP               0.501562941228 eV   |
           -------------------------------------------------

 * finished run on 2024/04/06 at 11:12:10.292
