   * xtb version 6.6.1 (8d0f1dd) compiled by 'conda@1efc2f54142f' on 2023-08-01
          program call               : xtb struc.xyz --opt loose --input .xc1 --gfn2

   ID    Z sym.   atoms
    1    6 C      1, 3, 5-7, 10, 11, 14
    2    7 N      2, 4, 9, 13
    3    8 O      8, 12
    4    1 H      15-25
constraining bond 3 17 to    5.1400000 Å, actual value:    3.3163079 Å

          :  Hamiltonian                  GFN2-xTB          :
 * total energy  :   -18.4941907 Eh     change       -0.6650680E-10 Eh
 * total energy  :   -32.4365256 Eh     change       -0.1394233E+02 Eh
 * total energy  :   -39.1853588 Eh     change       -0.6748833E+01 Eh
 * total energy  :   -41.6384697 Eh     change       -0.2453111E+01 Eh
 * total energy  :   -41.9376931 Eh     change       -0.2992234E+00 Eh
 * total energy  :   -41.9435254 Eh     change       -0.5832279E-02 Eh
 * total energy  :   -41.9529092 Eh     change       -0.9383865E-02 Eh
 * total energy  :   -41.9665166 Eh     change       -0.1360736E-01 Eh
 * total energy  :   -41.9752956 Eh     change       -0.8778997E-02 Eh
 * total energy  :   -41.9813541 Eh     change       -0.6058550E-02 Eh
 * total energy  :   -42.0578175 Eh     change       -0.6185386E-02 Eh
 * total energy  :   -42.0619900 Eh     change       -0.4172529E-02 Eh
 * total energy  :   -42.0777108 Eh     change       -0.1572077E-01 Eh
 * total energy  :   -42.0848652 Eh     change       -0.7154430E-02 Eh
 * total energy  :   -42.0865742 Eh     change       -0.1708996E-02 Eh
 * total energy  :   -42.0873849 Eh     change       -0.8107428E-03 Eh
 * total energy  :   -42.0877576 Eh     change       -0.3726174E-03 Eh
 * total energy  :   -42.0878505 Eh     change       -0.9297880E-04 Eh
 * total energy  :   -42.0878777 Eh     change       -0.2717632E-04 Eh
   *** GEOMETRY OPTIMIZATION CONVERGED AFTER 28 ITERATIONS ***

 final structure:
================
25
 xtb: 6.6.1 (8d0f1dd)
C            3.11986885353118        1.57066235455703        0.01741146957284
N            2.37025134462802        0.38823761422858       -0.01591908725896
C            2.51218285579864       -2.60170569663759       -0.00912465620552
N            1.26336771005510       -2.31025943214486       -0.00912075364915
C            0.52460384988293       -1.11780488043843       -0.00909292791142
C            1.09753397763963        0.18683250878830       -0.00660772076355
C            0.14122623113853        1.36046127712580       -0.00147348410229
O            0.53684310308973        2.50149449174022        0.00468080092146
N           -1.18928222146826        1.05289083451444       -0.00804216728059
C           -2.16045104375104        2.14146149732604       -0.00906718593450
C           -1.73639565139450       -0.21151799163974       -0.00453188725362
O           -2.92315621371753       -0.39261813471627       -0.00086089847444
N           -0.83049840177315       -1.28286917332493       -0.00401297470584
C           -1.44786461374577       -2.60059463496967        0.00501146648730
H            3.67408885075192        1.58336398285178        0.96357989715032
H            3.86450990414903        1.51115624640606       -0.78430344890045
H            2.56585825067397        2.53603880166573       -0.07208645155131
H            3.26553167047092       -1.82083179212631       -0.01020415391355
H           -1.62523993755211        3.08705757974087       -0.00257699445735
H           -2.78845420880760        2.06647746767665       -0.89657125450350
H           -2.79827733789782        2.05972328924579        0.87078309169361
H           -1.18753450340990       -3.15773216868419        0.90737600030954
H           -1.20135746578219       -3.16426746442549       -0.89713194597111
H           -2.52845343677354       -2.44307968440072        0.01246440079092
H            0.64152994836333       -3.12433835075918       -0.00940751618880

          :  Hamiltonian                  GFN2-xTB          :
         :: total energy             -42.087877717579 Eh    ::
         :: gradient norm              0.002085086495 Eh/a0 ::
         :: HOMO-LUMO gap              0.176414787656 eV    ::
         :: SCC energy               -42.595007376248 Eh    ::
         :: -> dispersion             -0.022098053285 Eh    ::
         :: repulsion energy           0.506982744228 Eh    ::

    * Orbital Energies and Occupations

         #    Occupation            Energy/Eh            Energy/eV
      -------------------------------------------------------------
         1        2.0000           -0.8962725             -24.3888
       ...           ...                  ...                  ...
        25        1.9999           -0.6768307             -18.4175
        26        1.9998           -0.6676832             -18.1686
        27        1.9994           -0.6473323             -17.6148
        28        1.9993           -0.6432451             -17.5036
        29        1.9988           -0.6356878             -17.2979
        30        1.9986           -0.6323892             -17.2082
        31        1.9969           -0.6203306             -16.8801
        32        1.9943           -0.6103878             -16.6095
        33        1.9910           -0.6031610             -16.4128
        34        1.9836           -0.5936802             -16.1549
        35        1.9669           -0.5824131             -15.8483
        36        1.7363           -0.5475691             -14.9001
        37        1.2483           -0.5257574             -14.3066 (HOMO)
        38        1.0488           -0.5192743             -14.1302 (LUMO)
        39        0.0362           -0.4544976             -12.3675
        40        0.0015           -0.4041896             -10.9986
        41        0.0005           -0.3853753             -10.4866
        42        0.0000           -0.3020665              -8.2196
        43                         -0.2115088              -5.7554
        44                         -0.1758796              -4.7859
        45                         -0.1517379              -4.1290
        46                         -0.1016430              -2.7658
        47                         -0.0889065              -2.4193
        48                         -0.0577984              -1.5728
       ...                                ...                  ...
        67                          0.5388034              14.6616
      -------------------------------------------------------------
                  HL-Gap            0.0064831 Eh            0.1764 eV

     #   Z          covCN         q      C6AA      α(0)
     1   6 C        3.685    -0.053    21.741     6.675
     2   7 N        1.831    -0.118    24.337     7.310
     3   6 C        1.841    -0.061    32.822     9.255
     4   7 N        2.687     0.005    21.180     6.835
     5   6 C        2.832     0.089    26.017     8.358
     6   6 C        2.883     0.054    26.786     8.485
     7   6 C        2.768     0.269    22.460     7.762
     8   8 O        0.859    -0.323    20.196     6.025
     9   7 N        2.738    -0.065    22.490     7.043
    10   6 C        3.711    -0.063    21.848     6.680
    11   6 C        2.727     0.318    21.591     7.607
    12   8 O        0.860    -0.347    20.655     6.093
    13   7 N        2.743    -0.044    22.100     6.982
    14   6 C        3.702    -0.084    22.268     6.748
    15   1 H        0.924     0.125     1.573     1.961
    16   1 H        0.924     0.122     1.595     1.975
    17   1 H        0.920     0.137     1.482     1.904
    18   1 H        0.925     0.130     1.535     1.938
    19   1 H        0.925     0.115     1.654     2.011
    20   1 H        0.925     0.107     1.722     2.052
    21   1 H        0.925     0.107     1.720     2.051
    22   1 H        0.924     0.094     1.838     2.120
    23   1 H        0.924     0.094     1.836     2.119
    24   1 H        0.924     0.141     1.451     1.884
    25   1 H        0.859     0.250     0.884     1.473

Wiberg/Mayer (AO) data.
largest (>0.10) Wiberg bond orders for each atom

     #   Z sym  total        # sym  WBO       # sym  WBO       # sym  WBO
 ---------------------------------------------------------------------------
     1   6 C    3.863 --     2 N    1.108    16 H    0.916    15 H    0.905
                            17 H    0.879
     2   7 N    2.836 --     6 C    1.566     1 C    1.108
     3   6 C    2.674 --     4 N    1.626    18 H    0.907
     4   7 N    3.662 --     3 C    1.626     5 C    1.083    25 H    0.865
     5   6 C    3.666 --    13 N    1.215     6 C    1.207     4 N    1.083
     6   6 C    3.916 --     2 N    1.566     5 C    1.207     7 C    0.928
     7   6 C    3.893 --     8 O    1.702     9 N    1.165     6 C    0.928
     8   8 O    2.019 --     7 C    1.702     9 N    0.137
     9   7 N    3.549 --     7 C    1.165    11 C    1.106    10 C    0.960
                             8 O    0.137    12 O    0.119
    10   6 C    3.891 --    19 H    0.967     9 N    0.960    21 H    0.959
                            20 H    0.959
    11   6 C    3.939 --    12 O    1.695     9 N    1.106    13 N    1.054
    12   8 O    2.011 --    11 C    1.695     9 N    0.119    13 N    0.109
    13   7 N    3.482 --     5 C    1.215    11 C    1.054    14 C    0.978
                            12 O    0.109
    14   6 C    3.913 --    13 N    0.978    22 H    0.958    23 H    0.958
                            24 H    0.950
    15   1 H    0.944 --     1 C    0.905
    16   1 H    0.947 --     1 C    0.916
    17   1 H    0.914 --     1 C    0.879
    18   1 H    0.939 --     3 C    0.907
    19   1 H    0.984 --    10 C    0.967
    20   1 H    0.979 --    10 C    0.959
    21   1 H    0.979 --    10 C    0.959
    22   1 H    0.981 --    14 C    0.958
    23   1 H    0.981 --    14 C    0.958
    24   1 H    0.978 --    14 C    0.950
    25   1 H    0.917 --     4 N    0.865
 ---------------------------------------------------------------------------

molecular dipole:
                 x           y           z       tot (Debye)
 q only:        1.341      -1.514       0.017
   full:        1.238      -1.322       0.024       4.605

           -------------------------------------------------
          | TOTAL ENERGY              -42.087877717579 Eh   |
          | GRADIENT NORM               0.002085086495 Eh/α |
          | HOMO-LUMO GAP               0.176414787656 eV   |
           -------------------------------------------------

 * finished run on 2024/06/05 at 20:00:08.618
