   * xtb version 6.6.1 (8d0f1dd) compiled by 'conda@1efc2f54142f' on 2023-08-01
          program call               : xtb xtbopt.xyz --opt crude --input .xc2 --gfn2

   ID    Z sym.   atoms
    1    6 C      1, 3, 5-7, 10, 11, 14
    2    7 N      2, 4, 9, 13
    3    8 O      8, 12
    4    1 H      15-25
########################################################################
[WARNING] Please study the warnings concerning your input carefully
-1- readin_getIntValue: could not parse ''
########################################################################

          :  Hamiltonian                  GFN2-xTB          :
 * total energy  :   -42.0878957 Eh     change       -0.1287503E-10 Eh
 * total energy  :   -42.0912497 Eh     change       -0.3353970E-02 Eh
 * total energy  :   -42.0939425 Eh     change       -0.2692757E-02 Eh
 * total energy  :   -42.0943775 Eh     change       -0.4349914E-03 Eh
   *** GEOMETRY OPTIMIZATION CONVERGED AFTER 4 ITERATIONS ***

 final structure:
================
25
 xtb: 6.6.1 (8d0f1dd)
C            3.15262760900656        1.41548112330928        0.01785150280675
N            2.34820701385947        0.27668411719759       -0.00421028759564
C            2.57970181450029       -2.30387637858471       -0.01060077746488
N            1.29610582072564       -2.22832666247666       -0.00811692563334
C            0.46954840372950       -1.10922308509640       -0.00411924793457
C            1.06149938420873        0.16980005273553        0.00138975775279
C            0.13381718160322        1.35606582325294        0.00265907077717
O            0.54568849361351        2.49231872039631        0.00699555064772
N           -1.20099505848338        1.05340383182152       -0.00662582344353
C           -2.16164995679850        2.15166091108284       -0.00944521754843
C           -1.76652271778618       -0.20808763455946       -0.00495438375466
O           -2.95443889608092       -0.37752568282708       -0.00520149644540
N           -0.87434133828117       -1.29043080874225       -0.00262208850001
C           -1.46815032217316       -2.61565309143391        0.00349105687358
H            3.71076628897262        1.45145164707071        0.95952157023718
H            3.88322729988215        1.36123120942793       -0.79423889617758
H            2.55514763237032        2.32986012451814       -0.07835214901823
H            3.21630340907564       -1.42229740334242       -0.00536528761063
H           -1.61632004154955        3.09168758884852       -0.00308300621756
H           -2.78964546463227        2.08315708255946       -0.89747489777507
H           -2.80122051402314        2.07780514230896        0.86987523339782
H           -1.18943584301246       -3.16752599885150        0.90287752189850
H           -1.20016213764416       -3.17187090689881       -0.89656285236133
H           -2.55098647683112       -2.47922173519386        0.00922179242735
H            0.78165992984779       -3.11832944492275       -0.01173810143796

          :  Hamiltonian                  GFN2-xTB          :
         :: total energy             -42.094377467017 Eh    ::
         :: gradient norm              0.009608058834 Eh/a0 ::
         :: HOMO-LUMO gap              0.131320681971 eV    ::
         :: SCC energy               -42.608231034443 Eh    ::
         :: -> dispersion             -0.022354871851 Eh    ::
         :: repulsion energy           0.513722787098 Eh    ::

    * Orbital Energies and Occupations

         #    Occupation            Energy/Eh            Energy/eV
      -------------------------------------------------------------
         1        2.0000           -0.8955659             -24.3696
       ...           ...                  ...                  ...
        25        1.9999           -0.6783111             -18.4578
        26        1.9999           -0.6768053             -18.4168
        27        1.9995           -0.6469192             -17.6036
        28        1.9993           -0.6423971             -17.4805
        29        1.9991           -0.6391482             -17.3921
        30        1.9987           -0.6326344             -17.2149
        31        1.9970           -0.6197856             -16.8652
        32        1.9946           -0.6103219             -16.6077
        33        1.9920           -0.6040144             -16.4361
        34        1.9855           -0.5945912             -16.1797
        35        1.9671           -0.5814440             -15.8219
        36        1.8583           -0.5574172             -15.1681
        37        1.1566           -0.5216659             -14.1953 (HOMO)
        38        1.0056           -0.5168400             -14.0639 (LUMO)
        39        0.0448           -0.4568849             -12.4325
        40        0.0017           -0.4046249             -11.0104
        41        0.0005           -0.3858878             -10.5005
        42        0.0000           -0.3006214              -8.1803
        43                         -0.2085732              -5.6756
        44                         -0.1696194              -4.6156
        45                         -0.1484749              -4.0402
        46                         -0.1001912              -2.7263
        47                         -0.0824823              -2.2445
        48                         -0.0437017              -1.1892
       ...                                ...                  ...
        67                          0.5393281              14.6759
      -------------------------------------------------------------
                  HL-Gap            0.0048259 Eh            0.1313 eV

     #   Z          covCN         q      C6AA      α(0)
     1   6 C        3.691    -0.055    21.761     6.675
     2   7 N        1.838    -0.119    24.366     7.315
     3   6 C        1.847    -0.068    33.000     9.280
     4   7 N        2.688     0.011    21.061     6.816
     5   6 C        2.854     0.088    26.043     8.364
     6   6 C        2.892     0.049    26.904     8.504
     7   6 C        2.767     0.270    22.445     7.759
     8   8 O        0.858    -0.325    20.243     6.032
     9   7 N        2.738    -0.067    22.535     7.050
    10   6 C        3.710    -0.063    21.844     6.679
    11   6 C        2.726     0.318    21.599     7.608
    12   8 O        0.860    -0.346    20.621     6.088
    13   7 N        2.740    -0.042    22.058     6.975
    14   6 C        3.700    -0.080    22.201     6.738
    15   1 H        0.924     0.120     1.612     1.985
    16   1 H        0.924     0.118     1.633     1.998
    17   1 H        0.924     0.137     1.486     1.907
    18   1 H        0.925     0.157     1.348     1.816
    19   1 H        0.925     0.115     1.655     2.012
    20   1 H        0.925     0.107     1.724     2.053
    21   1 H        0.925     0.107     1.723     2.053
    22   1 H        0.924     0.092     1.855     2.130
    23   1 H        0.924     0.093     1.854     2.129
    24   1 H        0.924     0.138     1.479     1.902
    25   1 H        0.859     0.248     0.892     1.480

Wiberg/Mayer (AO) data.
largest (>0.10) Wiberg bond orders for each atom

     #   Z sym  total        # sym  WBO       # sym  WBO       # sym  WBO
 ---------------------------------------------------------------------------
     1   6 C    3.873 --     2 N    1.095    16 H    0.922    15 H    0.912
                            17 H    0.884
     2   7 N    2.901 --     6 C    1.535     1 C    1.095     3 C    0.109
     3   6 C    2.732 --     4 N    1.615    18 H    0.858     2 N    0.109
     4   7 N    3.668 --     3 C    1.615     5 C    1.091    25 H    0.874
     5   6 C    3.699 --     6 C    1.222    13 N    1.215     4 N    1.091
     6   6 C    3.917 --     2 N    1.535     5 C    1.222     7 C    0.937
     7   6 C    3.899 --     8 O    1.697     9 N    1.164     6 C    0.937
     8   8 O    2.038 --     7 C    1.697     9 N    0.140
     9   7 N    3.552 --     7 C    1.164    11 C    1.102    10 C    0.961
                             8 O    0.140    12 O    0.120
    10   6 C    3.892 --    19 H    0.967     9 N    0.961    21 H    0.959
                            20 H    0.959
    11   6 C    3.940 --    12 O    1.699     9 N    1.102    13 N    1.053
    12   8 O    2.013 --    11 C    1.699     9 N    0.120    13 N    0.110
    13   7 N    3.483 --     5 C    1.215    11 C    1.053    14 C    0.977
                            12 O    0.110
    14   6 C    3.914 --    13 N    0.977    22 H    0.961    23 H    0.961
                            24 H    0.955
    15   1 H    0.948 --     1 C    0.912
    16   1 H    0.952 --     1 C    0.922
    17   1 H    0.928 --     1 C    0.884
    18   1 H    0.937 --     3 C    0.858
    19   1 H    0.984 --    10 C    0.967
    20   1 H    0.979 --    10 C    0.959
    21   1 H    0.979 --    10 C    0.959
    22   1 H    0.982 --    14 C    0.961
    23   1 H    0.981 --    14 C    0.961
    24   1 H    0.980 --    14 C    0.955
    25   1 H    0.917 --     4 N    0.874
 ---------------------------------------------------------------------------

molecular dipole:
                 x           y           z       tot (Debye)
 q only:        1.434      -1.627       0.010
   full:        1.288      -1.504       0.019       5.034

           -------------------------------------------------
          | TOTAL ENERGY              -42.094377467017 Eh   |
          | GRADIENT NORM               0.009608058834 Eh/α |
          | HOMO-LUMO GAP               0.131320681971 eV   |
           -------------------------------------------------

 * finished run on 2024/06/05 at 20:00:08.829
