   * xtb version 6.6.1 (8d0f1dd) compiled by 'conda@1efc2f54142f' on 2023-08-01
          program call               : xtb struc.xyz --opt loose --input .xc1 --gfn2

   ID    Z sym.   atoms
    1    7 N      1, 17
    2    6 C      2-6, 8, 9, 11-16, 18-23, 25, 26, 28-33
    3    8 O      7, 10, 24, 27
    4    1 H      34-72
constraining bond 2 48 to    5.7133300 Å, actual value:    3.0105382 Å

          :  Hamiltonian                  GFN2-xTB          :
 * total energy  :  -100.7084770 Eh     change       -0.4035485E-08 Eh
 * total energy  :  -101.4015382 Eh     change       -0.6930611E+00 Eh
 * total energy  :  -102.1686234 Eh     change       -0.7670852E+00 Eh
 * total energy  :  -103.0544632 Eh     change       -0.8858398E+00 Eh
 * total energy  :  -101.1813527 Eh     change        0.1873111E+01 Eh
 * total energy  :  -103.3715905 Eh     change       -0.2190238E+01 Eh
 * total energy  :  -103.4479738 Eh     change       -0.7638328E-01 Eh
 * total energy  :  -103.4933400 Eh     change       -0.4536615E-01 Eh
 * total energy  :  -103.5222945 Eh     change       -0.2895453E-01 Eh
 * total energy  :  -103.5413684 Eh     change       -0.1907390E-01 Eh
 * total energy  :  -103.6618387 Eh     change       -0.4783801E-04 Eh
 * total energy  :  -103.6619406 Eh     change       -0.1019063E-03 Eh
 * total energy  :  -103.6620001 Eh     change       -0.5953709E-04 Eh
 * total energy  :  -103.6620908 Eh     change       -0.9067624E-04 Eh
 * total energy  :  -103.6621461 Eh     change       -0.5533114E-04 Eh
 * total energy  :  -103.6622016 Eh     change       -0.5546771E-04 Eh
 * total energy  :  -103.6622463 Eh     change       -0.4468949E-04 Eh
 * total energy  :  -103.6622822 Eh     change       -0.3594122E-04 Eh
 * total energy  :  -103.6623155 Eh     change       -0.3332174E-04 Eh
   *** GEOMETRY OPTIMIZATION CONVERGED AFTER 77 ITERATIONS ***

 final structure:
================
72
 xtb: 6.6.1 (8d0f1dd)
N           -1.11918747431688        1.57559426881483        1.75584593314729
C           -1.55214488566202        2.21394999783890        0.73411239186073
C           -2.85507581135808        1.81413102697507        0.03576458835894
C           -3.38827769234222        0.40420430547076        0.23049247303799
C           -4.43210888947417       -0.03639858838178       -0.58983395454542
C           -4.97916532645756       -1.30234479499930       -0.46143894370456
O           -5.98144408643144       -1.79923192866071       -1.21741930087986
C           -6.58566542945198       -0.98250959329917       -2.19146217436578
C           -4.47778450939200       -2.18574542980347        0.53204705432832
O           -5.05880134726145       -3.40099750299524        0.57900230139721
C           -4.65509001520105       -4.31481596574447        1.57185573126727
C           -3.45890196072689       -1.73692314134643        1.35691457524206
C           -2.92441884911964       -0.46405639730343        1.20819522861040
C           -2.56194141064535        2.05974088436188       -1.46300399875901
C           -1.56704515548113        1.01621835064124       -1.99595998392786
C           -0.26267499431398        1.10980322681198       -1.30370014715103
N            0.39090099294345        0.09969665262763       -0.75384191200197
C            1.74280108551116        0.26628777138288       -0.27858029842776
C            2.76522071200337       -0.25510531886083       -1.30863430229806
C            4.16805642618041       -0.05066736896198       -0.80980899230037
C            4.78657776000964        1.18307504900509       -0.93749885034939
C            6.07651029185990        1.38296668625519       -0.47201076867021
C            6.77668356902888        0.34904215255225        0.13339462972162
O            8.03244418799634        0.42488060157487        0.61086844773574
C            8.74915846459943        1.63011900550903        0.47300040600214
C            6.14857234046399       -0.91947249629025        0.27435033692539
O            6.90032229523133       -1.86641055337918        0.86901700655807
C            6.38718515974461       -3.16954766649095        1.00990089633395
C            4.85562542145207       -1.09358618249139       -0.19467249550842
C           -0.16254899012422       -1.23184128793549       -0.69879320091627
C           -3.95738967856446        2.80338195807809        0.54813336540626
C           -4.35233687697805        2.46486837888755        1.98419091682713
C           -3.55441470891042        4.27619699419308        0.46508392849862
H           -4.84251248636390        0.62347836793658       -1.33544874401654
H           -7.03752778739732       -0.09140898932833       -1.74494240655507
H           -7.36608329755255       -1.59349468394099       -2.64067408143586
H           -5.87175347848065       -0.68362908488592       -2.96606196137862
H           -4.83521734892422       -3.92029206584085        2.57594075951116
H           -5.26544772429870       -5.20230011690816        1.41756853138386
H           -3.59814522794049       -4.57949706579527        1.46766495598845
H           -3.07275250167203       -2.37186905054231        2.13795833943946
H           -2.14836813194534       -0.13431716620532        1.87760926970554
H           -3.47512369869177        2.01736252399707       -2.05324933013126
H           -2.13592816907336        3.05455244988743       -1.59850080045578
H           -2.00148676238355        0.02297885484900       -1.90136433320367
H           -1.40711296929825        1.21949522434770       -3.06131878439496
H            0.25852693336778        2.05415634946323       -1.34522396550066
H           -1.26774130894007        2.80743405048806        0.46810923250771
H            1.86048218839472       -0.27705709162054        0.66223470813697
H            1.93680607548847        1.32402315218222       -0.08998376907283
H            2.62197436031526        0.28773148829829       -2.24479108803596
H            2.58617523957274       -1.31443456723295       -1.49462322708443
H            4.26903702765197        1.99966895234892       -1.41783168626358
H            6.53317965749629        2.35147815042303       -0.59232742013527
H            8.27253947811939        2.44531074575571        1.02578903347249
H            8.85588736553217        1.91411126625138       -0.57804133415654
H            9.73249100777254        1.43463087111392        0.89585812943698
H            7.17959177804530       -3.74511599902890        1.48423353415166
H            5.49836710495227       -3.18480232149098        1.64857495838574
H            6.14912075519899       -3.61395408630790        0.03864566612136
H            4.37466021038892       -2.05446822979221       -0.09950017450933
H           -0.25000335263423       -1.66377020903448       -1.69765805018868
H           -1.14956560232017       -1.21055380705784       -0.23103225157300
H            0.48759989411877       -1.86430361894025       -0.10098381737883
H           -4.83242180416712        2.65823308270815       -0.09361343294073
H           -3.47765400491515        2.45683052060742        2.63038922453598
H           -4.82507832262543        1.48812759178444        2.04033637931659
H           -5.05212443514122        3.20771195709063        2.35856308760672
H           -2.74889873530392        4.50684873904546        1.15802936585264
H           -3.25473379266845        4.56602715562428       -0.53854854623020
H           -4.40779250909517        4.89097447474349        0.74010341576723
H           -0.28009064238955        1.97373861344985        2.17386456846381

          :  Hamiltonian                  GFN2-xTB          :
         :: total energy            -103.662315549511 Eh    ::
         :: gradient norm              0.002150008549 Eh/a0 ::
         :: HOMO-LUMO gap              1.550412260485 eV    ::
         :: SCC energy              -100.808699416688 Eh    ::
         :: -> dispersion             -0.076412164226 Eh    ::
         :: repulsion energy           1.615122247036 Eh    ::

    * Orbital Energies and Occupations

         #    Occupation            Energy/Eh            Energy/eV
      -------------------------------------------------------------
         1        2.0000           -0.8059559             -21.9312
       ...           ...                  ...                  ...
        78        1.9986           -0.5322025             -14.4820
        79        1.9985           -0.5307299             -14.4419
        80        1.9982           -0.5278381             -14.3632
        81        1.9974           -0.5220341             -14.2053
        82        1.9970           -0.5197931             -14.1443
        83        1.9968           -0.5186172             -14.1123
        84        1.9961           -0.5154996             -14.0275
        85        1.9946           -0.5103839             -13.8883
        86        1.9782           -0.4881996             -13.2846
        87        1.9742           -0.4855174             -13.2116
        88        1.9239           -0.4679914             -12.7347
        89        1.8396           -0.4554647             -12.3938
        90        1.8321           -0.4546721             -12.3723 (HOMO)
        91        0.4598           -0.3976955             -10.8218 (LUMO)
        92        0.0138           -0.3381840              -9.2025
        93        0.0026           -0.3118885              -8.4869
        94        0.0026           -0.3114472              -8.4749
        95        0.0023           -0.3099573              -8.4344
        96        0.0019           -0.3070470              -8.3552
        97        0.0000           -0.1871593              -5.0929
        98        0.0000           -0.1854564              -5.0465
        99                         -0.1302131              -3.5433
       100                         -0.0696567              -1.8955
       101                         -0.0614643              -1.6725
       ...                                ...                  ...
       171                          1.7799180              48.4340
      -------------------------------------------------------------
                  HL-Gap            0.0569766 Eh            1.5504 eV

     #   Z          covCN         q      C6AA      α(0)
     1   7 N        1.773    -0.323    29.201     8.002
     2   6 C        2.833     0.061    26.631     8.457
     3   6 C        3.906    -0.001    20.539     6.442
     4   6 C        2.968     0.006    27.889     8.662
     5   6 C        2.922    -0.081    30.035     8.987
     6   6 C        2.861     0.129    25.175     8.224
     7   8 O        1.706    -0.230    17.812     5.698
     8   6 C        3.644     0.028    20.436     6.498
     9   6 C        2.864     0.129    25.165     8.223
    10   8 O        1.706    -0.227    17.768     5.691
    11   6 C        3.646     0.026    20.463     6.501
    12   6 C        2.914    -0.074    29.838     8.957
    13   6 C        2.922    -0.060    29.494     8.906
    14   6 C        3.818    -0.067    21.770     6.640
    15   6 C        3.804    -0.069    21.817     6.650
    16   6 C        2.847     0.006    27.875     8.653
    17   7 N        2.729     0.025    20.815     6.776
    18   6 C        3.756    -0.018    20.957     6.527
    19   6 C        3.808    -0.071    21.848     6.654
    20   6 C        2.968     0.000    28.017     8.682
    21   6 C        2.922    -0.049    29.214     8.864
    22   6 C        2.914    -0.067    29.679     8.933
    23   6 C        2.865     0.134    25.078     8.209
    24   8 O        1.706    -0.221    17.672     5.676
    25   6 C        3.645     0.025    20.490     6.506
    26   6 C        2.863     0.133    25.079     8.209
    27   8 O        1.706    -0.224    17.712     5.682
    28   6 C        3.645     0.027    20.463     6.502
    29   6 C        2.919    -0.079    29.972     8.978
    30   6 C        3.701    -0.078    22.147     6.730
    31   6 C        3.855    -0.009    20.706     6.472
    32   6 C        3.756    -0.114    22.728     6.797
    33   6 C        3.754    -0.112    22.703     6.794
    34   1 H        0.926     0.048     2.346     2.395
    35   1 H        0.924     0.053     2.289     2.366
    36   1 H        0.925     0.081     1.973     2.197
    37   1 H        0.924     0.047     2.357     2.401
    38   1 H        0.924     0.056     2.248     2.345
    39   1 H        0.925     0.081     1.972     2.196
    40   1 H        0.924     0.049     2.327     2.386
    41   1 H        0.926     0.053     2.280     2.361
    42   1 H        0.926     0.090     1.880     2.144
    43   1 H        0.925     0.055     2.253     2.347
    44   1 H        0.924     0.048     2.347     2.396
    45   1 H        0.925     0.066     2.131     2.283
    46   1 H        0.924     0.077     2.009     2.217
    47   1 H        0.926     0.067     2.122     2.278
    48   1 H        0.931     0.088     1.899     2.155
    49   1 H        0.924     0.073     2.056     2.242
    50   1 H        0.924     0.067     2.115     2.274
    51   1 H        0.924     0.055     2.253     2.347
    52   1 H        0.924     0.056     2.246     2.344
    53   1 H        0.926     0.044     2.396     2.421
    54   1 H        0.926     0.058     2.218     2.329
    55   1 H        0.924     0.055     2.264     2.353
    56   1 H        0.924     0.056     2.250     2.346
    57   1 H        0.925     0.083     1.953     2.185
    58   1 H        0.925     0.082     1.957     2.188
    59   1 H        0.924     0.050     2.321     2.382
    60   1 H        0.924     0.053     2.285     2.364
    61   1 H        0.926     0.049     2.337     2.390
    62   1 H        0.924     0.077     2.014     2.219
    63   1 H        0.924     0.091     1.871     2.139
    64   1 H        0.925     0.082     1.962     2.191
    65   1 H        0.924     0.042     2.427     2.436
    66   1 H        0.925     0.049     2.328     2.386
    67   1 H        0.925     0.043     2.408     2.427
    68   1 H        0.925     0.052     2.298     2.370
    69   1 H        0.925     0.040     2.446     2.446
    70   1 H        0.925     0.037     2.484     2.465
    71   1 H        0.925     0.053     2.284     2.363
    72   1 H        0.860     0.141     1.461     1.893

Wiberg/Mayer (AO) data.
largest (>0.10) Wiberg bond orders for each atom

     #   Z sym  total        # sym  WBO       # sym  WBO       # sym  WBO
 ---------------------------------------------------------------------------
     1   7 N    2.922 --     2 C    1.864    72 H    0.946
     2   6 C    3.920 --     1 N    1.864     3 C    0.985    48 H    0.972
     3   6 C    3.975 --     4 C    0.989     2 C    0.985    14 C    0.970
                            31 C    0.920
     4   6 C    3.936 --    13 C    1.404     5 C    1.369     3 C    0.989
     5   6 C    3.955 --     6 C    1.400     4 C    1.369    34 H    0.956
     6   6 C    3.894 --     5 C    1.400     9 C    1.219     7 O    1.097
     7   8 O    2.245 --     6 C    1.097     8 C    0.979
     8   6 C    3.933 --     7 O    0.979    36 H    0.977    37 H    0.973
                            35 H    0.973
     9   6 C    3.890 --    12 C    1.387     6 C    1.219    10 O    1.102
    10   8 O    2.247 --     9 C    1.102    11 C    0.978
    11   6 C    3.931 --    10 O    0.978    39 H    0.977    40 H    0.973
                            38 H    0.973
    12   6 C    3.957 --    13 C    1.406     9 C    1.387    41 H    0.963
    13   6 C    3.930 --    12 C    1.406     4 C    1.404    42 H    0.941
    14   6 C    3.970 --    15 C    0.978    44 H    0.971     3 C    0.970
                            43 H    0.968
    15   6 C    3.987 --    16 C    1.057    14 C    0.978    45 H    0.964
                            46 H    0.934
    16   6 C    3.596 --    17 N    1.425    15 C    1.057    47 H    0.958
    17   7 N    3.485 --    16 C    1.425    30 C    0.997    18 C    0.989
    18   6 C    3.955 --    17 N    0.989    50 H    0.968    19 C    0.965
                            49 H    0.963
    19   6 C    3.976 --    20 C    1.008    52 H    0.972    51 H    0.970
                            18 C    0.965
    20   6 C    3.944 --    21 C    1.406    29 C    1.382    19 C    1.008
    21   6 C    3.949 --    22 C    1.419    20 C    1.406    53 H    0.968
    22   6 C    3.959 --    21 C    1.419    23 C    1.382    54 H    0.963
    23   6 C    3.894 --    22 C    1.382    26 C    1.220    24 O    1.111
    24   8 O    2.255 --    23 C    1.111    25 C    0.976
    25   6 C    3.928 --    57 H    0.977    24 O    0.976    56 H    0.973
                            55 H    0.972
    26   6 C    3.898 --    29 C    1.393    23 C    1.220    27 O    1.105
    27   8 O    2.255 --    26 C    1.105    28 C    0.978
    28   6 C    3.931 --    27 O    0.978    58 H    0.977    60 H    0.973
                            59 H    0.973
    29   6 C    3.958 --    26 C    1.393    20 C    1.382    61 H    0.962
    30   6 C    3.953 --    17 N    0.997    64 H    0.977    62 H    0.965
                            63 H    0.953
    31   6 C    3.979 --    32 C    1.010    33 C    1.008    65 H    0.961
                             3 C    0.920
    32   6 C    3.987 --    31 C    1.010    67 H    0.982    66 H    0.982
                            68 H    0.982
    33   6 C    3.990 --    31 C    1.008    69 H    0.984    70 H    0.982
                            71 H    0.981
    34   1 H    0.996 --     5 C    0.956
    35   1 H    0.993 --     8 C    0.973
    36   1 H    0.993 --     8 C    0.977
    37   1 H    0.993 --     8 C    0.973
    38   1 H    0.992 --    11 C    0.973
    39   1 H    0.993 --    11 C    0.977
    40   1 H    0.992 --    11 C    0.973
    41   1 H    0.995 --    12 C    0.963
    42   1 H    0.989 --    13 C    0.941
    43   1 H    0.994 --    14 C    0.968
    44   1 H    0.997 --    14 C    0.971
    45   1 H    0.995 --    15 C    0.964
    46   1 H    0.973 --    15 C    0.934
    47   1 H    0.995 --    16 C    0.958
    48   1 H    0.985 --     2 C    0.972
    49   1 H    0.990 --    18 C    0.963
    50   1 H    0.994 --    18 C    0.968
    51   1 H    0.995 --    19 C    0.970
    52   1 H    0.996 --    19 C    0.972
    53   1 H    0.997 --    21 C    0.968
    54   1 H    0.995 --    22 C    0.963
    55   1 H    0.991 --    25 C    0.972
    56   1 H    0.992 --    25 C    0.973
    57   1 H    0.992 --    25 C    0.977
    58   1 H    0.993 --    28 C    0.977
    59   1 H    0.993 --    28 C    0.973
    60   1 H    0.993 --    28 C    0.973
    61   1 H    0.996 --    29 C    0.962
    62   1 H    0.984 --    30 C    0.965
    63   1 H    0.984 --    30 C    0.953
    64   1 H    0.993 --    30 C    0.977
    65   1 H    0.995 --    31 C    0.961
    66   1 H    0.996 --    32 C    0.982
    67   1 H    0.997 --    32 C    0.982
    68   1 H    0.996 --    32 C    0.982
    69   1 H    0.997 --    33 C    0.984
    70   1 H    0.998 --    33 C    0.982
    71   1 H    0.995 --    33 C    0.981
    72   1 H    0.973 --     1 N    0.946
 ---------------------------------------------------------------------------

molecular dipole:
                 x           y           z       tot (Debye)
 q only:        0.604       0.075      -0.915
   full:        0.670       0.584      -1.153       3.699

           -------------------------------------------------
          | TOTAL ENERGY             -103.662315549511 Eh   |
          | GRADIENT NORM               0.002150008549 Eh/α |
          | HOMO-LUMO GAP               1.550412260485 eV   |
           -------------------------------------------------

 * finished run on 2024/04/06 at 11:15:43.489
