   * xtb version 6.6.1 (8d0f1dd) compiled by 'conda@1efc2f54142f' on 2023-08-01
          program call               : xtb xtbopt.xyz --opt crude --input .xc2 --gfn2

   ID    Z sym.   atoms
    1    7 N      1, 17
    2    6 C      2-6, 8, 9, 11-16, 18-23, 25, 26, 28-33
    3    8 O      7, 10, 24, 27
    4    1 H      34-72
########################################################################
[WARNING] Please study the warnings concerning your input carefully
-1- readin_getIntValue: could not parse ''
########################################################################

          :  Hamiltonian                  GFN2-xTB          :
 * total energy  :   -99.1922437 Eh     change       -0.7815970E-12 Eh
 * total energy  :   -99.4052229 Eh     change       -0.2129792E+00 Eh
 * total energy  :   -99.4073537 Eh     change       -0.2130808E-02 Eh
 * total energy  :   -99.4082919 Eh     change       -0.9382486E-03 Eh
 * total energy  :   -99.4086398 Eh     change       -0.3478165E-03 Eh
 * total energy  :   -99.4087591 Eh     change       -0.1193815E-03 Eh
   *** GEOMETRY OPTIMIZATION CONVERGED AFTER 6 ITERATIONS ***

 final structure:
================
72
 xtb: 6.6.1 (8d0f1dd)
N           -1.08329365211794        1.55191417930111        1.75386401267213
C           -1.57079668296693        2.16831480105658        0.76931572388176
C           -2.84483815990430        1.81211733472121        0.04517343499401
C           -3.38534645024205        0.39863174077474        0.23403962295187
C           -4.43298932033505       -0.03525967046833       -0.58545243548669
C           -4.98342218219088       -1.30059166126861       -0.46027267604557
O           -5.98703553890883       -1.79441352613458       -1.21682557638940
C           -6.59125525361173       -0.97803914230177       -2.19090019382253
C           -4.48403737982024       -2.18869317803333        0.52961389330948
O           -5.07120882622613       -3.40118194250045        0.57688179007138
C           -4.66833935908210       -4.31687718631084        1.56836381369804
C           -3.46059517563493       -1.74721201774636        1.35253690800399
C           -2.92213333077526       -0.47544513663823        1.20690944366830
C           -2.55403561826674        2.05433386127541       -1.45345262225965
C           -1.56849922945824        1.00750308336451       -2.00194966472449
C           -0.25385275681340        1.09332015252274       -1.33088342810015
N            0.39263784780731        0.09068996060242       -0.76260254931673
C            1.74400872401166        0.26514169267621       -0.28683670120445
C            2.76905430682040       -0.25843055081958       -1.31219373821513
C            4.17094074166658       -0.05125227389570       -0.81154991178037
C            4.78943798971936        1.18224633953330       -0.94046862149766
C            6.07908158808132        1.38250167592636       -0.47397500900783
C            6.77888827202691        0.34927762855508        0.13304348258237
O            8.03434351775134        0.42556128387858        0.61131441500772
C            8.74917240640676        1.63260060494129        0.47844949361095
C            6.15079523515034       -0.91908341794904        0.27488039037888
O            6.90176447821881       -1.86672972951982        0.86953746473956
C            6.38417447889274       -3.16800548184840        1.01307202854423
C            4.85794273569118       -1.09321996649485       -0.19420569333655
C           -0.16141859952996       -1.23931156436201       -0.68875927604716
C           -3.95694460264586        2.79577332058939        0.55476343492372
C           -4.35688178441360        2.45563008443533        1.98941166868400
C           -3.57711634051702        4.27399656721441        0.47367690219415
H           -4.84514527760262        0.62751083184491       -1.32787644651569
H           -7.04030366152620       -0.08499013520226       -1.74551389898278
H           -7.37427312769640       -1.58810926848422       -2.63728188310012
H           -5.87860473506657       -0.68284244493616       -2.96815093829994
H           -4.83970467876586       -3.91982845750920        2.57334411839989
H           -5.28587533242481       -5.20044853387983        1.41932858961866
H           -3.61383611072814       -4.58937923674922        1.45822545417113
H           -3.07336358159691       -2.38674498803764        2.12898043469640
H           -2.14393361981854       -0.15296936640233        1.87702973381589
H           -3.47195261109165        2.01507670447082       -2.03639519481110
H           -2.12527203059979        3.04717121532012       -1.59122400493699
H           -2.00402231363929        0.01473152564592       -1.90830919755202
H           -1.42299080016300        1.21880381147411       -3.06803840160862
H            0.26947452783098        2.03626093813891       -1.37820181622531
H           -1.13946559321788        3.10016632576557        0.38325841749899
H            1.86200324429336       -0.27119068776563        0.65773710479074
H            1.93263144109618        1.32438954382342       -0.10359736281660
H            2.62733324026064        0.28114950973999       -2.25078257038018
H            2.59170185310330       -1.31870686818408       -1.49489833244510
H            4.27247970227989        1.99817073340792       -1.42239857965916
H            6.53623314618139        2.35074778705870       -0.59526690167338
H            8.26661452926471        2.44670832089081        1.02780786345578
H            8.86297208745956        1.91673409190738       -0.57197286332306
H            9.73011976449335        1.43956197504292        0.90835776945428
H            7.17474496043202       -3.74585111696386        1.48778557416266
H            5.49559196536069       -3.17876384521748        1.65230894923317
H            6.14367749536433       -3.61306177319872        0.04256081521183
H            4.37582849603724       -2.05336694114479       -0.09777995421305
H           -0.26019647970888       -1.68043789629211       -1.68309186093363
H           -1.14333961926432       -1.21238650690948       -0.21055681330417
H            0.49444135782117       -1.86828332660470       -0.09292771140646
H           -4.82687006977542        2.63806624530007       -0.09125351737638
H           -3.48889427570281        2.47142800389063        2.64411662557816
H           -4.81052020787670        1.47012954648216        2.04904925061864
H           -5.07558334608546        3.18556590016673        2.35313463314467
H           -2.78990323962411        4.51867535809787        1.18247541954036
H           -3.26170297553626        4.56476401143083       -0.52485667223372
H           -4.44712807033745        4.87436722066797        0.72945774680992
H           -0.25465253520854        1.96551345031673        2.17216143751009

          :  Hamiltonian                  GFN2-xTB          :
         :: total energy             -99.408759132721 Eh    ::
         :: gradient norm              0.004074811048 Eh/a0 ::
         :: HOMO-LUMO gap              1.599994896303 eV    ::
         :: SCC energy              -100.785468942405 Eh    ::
         :: -> dispersion             -0.076393172269 Eh    ::
         :: repulsion energy           1.375373942773 Eh    ::

    * Orbital Energies and Occupations

         #    Occupation            Energy/Eh            Energy/eV
      -------------------------------------------------------------
         1        2.0000           -0.8060780             -21.9345
       ...           ...                  ...                  ...
        78        1.9987           -0.5322953             -14.4845
        79        1.9985           -0.5308963             -14.4464
        80        1.9982           -0.5277560             -14.3610
        81        1.9975           -0.5222256             -14.2105
        82        1.9971           -0.5197860             -14.1441
        83        1.9970           -0.5193374             -14.1319
        84        1.9962           -0.5158648             -14.0374
        85        1.9948           -0.5108449             -13.9008
        86        1.9783           -0.4880354             -13.2801
        87        1.9753           -0.4859444             -13.2232
        88        1.9405           -0.4717326             -12.8365
        89        1.8407           -0.4553125             -12.3897
        90        1.8389           -0.4551185             -12.3844 (HOMO)
        91        0.4357           -0.3963198             -10.7844 (LUMO)
        92        0.0108           -0.3339128              -9.0862
        93        0.0027           -0.3119760              -8.4893
        94        0.0027           -0.3117182              -8.4823
        95        0.0024           -0.3097813              -8.4296
        96        0.0020           -0.3075715              -8.3694
        97        0.0000           -0.1869859              -5.0881
        98        0.0000           -0.1858923              -5.0584
        99                         -0.1305873              -3.5535
       100                         -0.0740434              -2.0148
       101                         -0.0620292              -1.6879
       ...                                ...                  ...
       171                          0.5773898              15.7116
      -------------------------------------------------------------
                  HL-Gap            0.0587987 Eh            1.6000 eV

     #   Z          covCN         q      C6AA      α(0)
     1   7 N        1.772    -0.307    28.757     7.941
     2   6 C        2.828     0.095    25.877     8.336
     3   6 C        3.905     0.004    20.448     6.428
     4   6 C        2.968     0.005    27.900     8.664
     5   6 C        2.922    -0.081    30.032     8.987
     6   6 C        2.861     0.129    25.177     8.224
     7   8 O        1.706    -0.230    17.817     5.699
     8   6 C        3.643     0.029    20.435     6.498
     9   6 C        2.864     0.129    25.167     8.223
    10   8 O        1.706    -0.227    17.773     5.692
    11   6 C        3.646     0.027    20.460     6.501
    12   6 C        2.914    -0.074    29.847     8.959
    13   6 C        2.922    -0.060    29.500     8.907
    14   6 C        3.816    -0.065    21.733     6.635
    15   6 C        3.804    -0.069    21.812     6.649
    16   6 C        2.847     0.008    27.836     8.647
    17   7 N        2.729     0.027    20.783     6.771
    18   6 C        3.757    -0.019    20.965     6.528
    19   6 C        3.808    -0.071    21.847     6.654
    20   6 C        2.968     0.000    28.019     8.683
    21   6 C        2.922    -0.049    29.214     8.864
    22   6 C        2.914    -0.067    29.679     8.933
    23   6 C        2.865     0.134    25.078     8.209
    24   8 O        1.706    -0.221    17.674     5.676
    25   6 C        3.645     0.025    20.490     6.506
    26   6 C        2.863     0.133    25.080     8.209
    27   8 O        1.706    -0.224    17.714     5.683
    28   6 C        3.645     0.027    20.462     6.502
    29   6 C        2.919    -0.079    29.974     8.978
    30   6 C        3.701    -0.078    22.150     6.730
    31   6 C        3.855    -0.009    20.696     6.470
    32   6 C        3.756    -0.113    22.709     6.795
    33   6 C        3.754    -0.112    22.690     6.792
    34   1 H        0.926     0.048     2.351     2.398
    35   1 H        0.924     0.052     2.292     2.367
    36   1 H        0.925     0.081     1.973     2.197
    37   1 H        0.924     0.047     2.359     2.402
    38   1 H        0.924     0.056     2.252     2.347
    39   1 H        0.925     0.081     1.973     2.196
    40   1 H        0.924     0.049     2.329     2.387
    41   1 H        0.926     0.053     2.282     2.362
    42   1 H        0.926     0.088     1.903     2.157
    43   1 H        0.925     0.057     2.237     2.339
    44   1 H        0.925     0.050     2.315     2.379
    45   1 H        0.925     0.066     2.135     2.285
    46   1 H        0.924     0.078     1.997     2.210
    47   1 H        0.926     0.069     2.102     2.267
    48   1 H        0.924     0.013     2.837     2.634
    49   1 H        0.924     0.073     2.051     2.240
    50   1 H        0.924     0.068     2.108     2.271
    51   1 H        0.924     0.056     2.251     2.346
    52   1 H        0.924     0.056     2.245     2.343
    53   1 H        0.926     0.044     2.395     2.420
    54   1 H        0.926     0.058     2.218     2.329
    55   1 H        0.924     0.054     2.265     2.353
    56   1 H        0.924     0.056     2.249     2.345
    57   1 H        0.925     0.083     1.953     2.186
    58   1 H        0.925     0.082     1.957     2.188
    59   1 H        0.924     0.050     2.322     2.383
    60   1 H        0.924     0.053     2.286     2.365
    61   1 H        0.926     0.049     2.338     2.391
    62   1 H        0.924     0.077     2.011     2.217
    63   1 H        0.924     0.091     1.869     2.138
    64   1 H        0.925     0.082     1.958     2.188
    65   1 H        0.924     0.042     2.419     2.432
    66   1 H        0.925     0.047     2.355     2.400
    67   1 H        0.925     0.043     2.410     2.428
    68   1 H        0.925     0.052     2.292     2.368
    69   1 H        0.925     0.042     2.419     2.432
    70   1 H        0.925     0.038     2.478     2.461
    71   1 H        0.925     0.053     2.282     2.363
    72   1 H        0.860     0.148     1.418     1.865

Wiberg/Mayer (AO) data.
largest (>0.10) Wiberg bond orders for each atom

     #   Z sym  total        # sym  WBO       # sym  WBO       # sym  WBO
 ---------------------------------------------------------------------------
     1   7 N    2.978 --     2 C    1.899    72 H    0.945
     2   6 C    3.925 --     1 N    1.899     3 C    1.001    48 H    0.935
     3   6 C    3.980 --     2 C    1.001     4 C    0.983    14 C    0.969
                            31 C    0.917
     4   6 C    3.938 --    13 C    1.406     5 C    1.370     3 C    0.983
     5   6 C    3.957 --     6 C    1.400     4 C    1.370    34 H    0.956
     6   6 C    3.895 --     5 C    1.400     9 C    1.220     7 O    1.097
     7   8 O    2.246 --     6 C    1.097     8 C    0.979
     8   6 C    3.933 --     7 O    0.979    36 H    0.977    37 H    0.973
                            35 H    0.973
     9   6 C    3.892 --    12 C    1.388     6 C    1.220    10 O    1.102
    10   8 O    2.248 --     9 C    1.102    11 C    0.978
    11   6 C    3.931 --    10 O    0.978    39 H    0.977    40 H    0.973
                            38 H    0.973
    12   6 C    3.958 --    13 C    1.405     9 C    1.388    41 H    0.963
    13   6 C    3.934 --     4 C    1.406    12 C    1.405    42 H    0.943
    14   6 C    3.969 --    15 C    0.976    44 H    0.969     3 C    0.969
                            43 H    0.967
    15   6 C    3.987 --    16 C    1.059    14 C    0.976    45 H    0.965
                            46 H    0.934
    16   6 C    3.596 --    17 N    1.432    15 C    1.059    47 H    0.957
    17   7 N    3.490 --    16 C    1.432    30 C    0.997    18 C    0.988
    18   6 C    3.954 --    17 N    0.988    50 H    0.968    19 C    0.966
                            49 H    0.963
    19   6 C    3.976 --    20 C    1.008    52 H    0.972    51 H    0.970
                            18 C    0.966
    20   6 C    3.944 --    21 C    1.407    29 C    1.382    19 C    1.008
    21   6 C    3.949 --    22 C    1.419    20 C    1.407    53 H    0.968
    22   6 C    3.959 --    21 C    1.419    23 C    1.382    54 H    0.963
    23   6 C    3.894 --    22 C    1.382    26 C    1.220    24 O    1.111
    24   8 O    2.255 --    23 C    1.111    25 C    0.976
    25   6 C    3.928 --    57 H    0.977    24 O    0.976    56 H    0.973
                            55 H    0.972
    26   6 C    3.898 --    29 C    1.393    23 C    1.220    27 O    1.105
    27   8 O    2.255 --    26 C    1.105    28 C    0.978
    28   6 C    3.931 --    27 O    0.978    58 H    0.977    59 H    0.973
                            60 H    0.973
    29   6 C    3.959 --    26 C    1.393    20 C    1.382    61 H    0.962
    30   6 C    3.952 --    17 N    0.997    64 H    0.977    62 H    0.965
                            63 H    0.952
    31   6 C    3.980 --    32 C    1.010    33 C    1.009    65 H    0.961
                             3 C    0.917
    32   6 C    3.988 --    31 C    1.010    66 H    0.983    67 H    0.982
                            68 H    0.982
    33   6 C    3.989 --    31 C    1.009    69 H    0.983    70 H    0.982
                            71 H    0.981
    34   1 H    0.996 --     5 C    0.956
    35   1 H    0.993 --     8 C    0.973
    36   1 H    0.993 --     8 C    0.977
    37   1 H    0.993 --     8 C    0.973
    38   1 H    0.992 --    11 C    0.973
    39   1 H    0.993 --    11 C    0.977
    40   1 H    0.993 --    11 C    0.973
    41   1 H    0.995 --    12 C    0.963
    42   1 H    0.989 --    13 C    0.943
    43   1 H    0.994 --    14 C    0.967
    44   1 H    0.997 --    14 C    0.969
    45   1 H    0.995 --    15 C    0.965
    46   1 H    0.973 --    15 C    0.934
    47   1 H    0.995 --    16 C    0.957
    48   1 H    0.987 --     2 C    0.935
    49   1 H    0.990 --    18 C    0.963
    50   1 H    0.994 --    18 C    0.968
    51   1 H    0.995 --    19 C    0.970
    52   1 H    0.996 --    19 C    0.972
    53   1 H    0.997 --    21 C    0.968
    54   1 H    0.995 --    22 C    0.963
    55   1 H    0.991 --    25 C    0.972
    56   1 H    0.992 --    25 C    0.973
    57   1 H    0.992 --    25 C    0.977
    58   1 H    0.993 --    28 C    0.977
    59   1 H    0.993 --    28 C    0.973
    60   1 H    0.993 --    28 C    0.973
    61   1 H    0.996 --    29 C    0.962
    62   1 H    0.984 --    30 C    0.965
    63   1 H    0.984 --    30 C    0.952
    64   1 H    0.993 --    30 C    0.977
    65   1 H    0.995 --    31 C    0.961
    66   1 H    0.996 --    32 C    0.983
    67   1 H    0.997 --    32 C    0.982
    68   1 H    0.996 --    32 C    0.982
    69   1 H    0.997 --    33 C    0.983
    70   1 H    0.998 --    33 C    0.982
    71   1 H    0.995 --    33 C    0.981
    72   1 H    0.973 --     1 N    0.945
 ---------------------------------------------------------------------------

molecular dipole:
                 x           y           z       tot (Debye)
 q only:        0.563      -0.001      -0.894
   full:        0.622       0.533      -1.123       3.532

           -------------------------------------------------
          | TOTAL ENERGY              -99.408759132721 Eh   |
          | GRADIENT NORM               0.004074811048 Eh/α |
          | HOMO-LUMO GAP               1.599994896303 eV   |
           -------------------------------------------------

 * finished run on 2024/04/06 at 11:15:44.765
