   * xtb version 6.6.1 (8d0f1dd) compiled by 'conda@1efc2f54142f' on 2023-08-01
          program call               : xtb xtbopt.xyz --opt crude --input .xc2 --gfn2

   ID    Z sym.   atoms
    1    6 C      1, 3, 5-7, 10, 11, 14
    2    7 N      2, 4, 9, 13
    3    8 O      8, 12
    4    1 H      15-25
########################################################################
[WARNING] Please study the warnings concerning your input carefully
-1- readin_getIntValue: could not parse ''
########################################################################

          :  Hamiltonian                  GFN2-xTB          :
 * total energy  :   -42.1035497 Eh     change       -0.2508216E-11 Eh
 * total energy  :   -42.1044352 Eh     change       -0.8855213E-03 Eh
 * total energy  :   -42.1056035 Eh     change       -0.1168249E-02 Eh
 * total energy  :   -42.1061202 Eh     change       -0.5167298E-03 Eh
 * total energy  :   -42.1066453 Eh     change       -0.5251111E-03 Eh
 * total energy  :   -42.1074071 Eh     change       -0.7617190E-03 Eh
 * total energy  :   -42.1083669 Eh     change       -0.9598099E-03 Eh
 * total energy  :   -42.1093636 Eh     change       -0.9967261E-03 Eh
 * total energy  :   -42.1104429 Eh     change       -0.1079293E-02 Eh
 * total energy  :   -42.1117057 Eh     change       -0.1262849E-02 Eh
 * total energy  :   -42.1171658 Eh     change       -0.1714572E-02 Eh
 * total energy  :   -42.1187862 Eh     change       -0.1620423E-02 Eh
 * total energy  :   -42.1198928 Eh     change       -0.1106604E-02 Eh
 * total energy  :   -42.1192597 Eh     change        0.6330632E-03 Eh
 * total energy  :   -42.1214849 Eh     change       -0.2225186E-02 Eh
 * total energy  :   -42.1215853 Eh     change       -0.1003931E-03 Eh
 * total energy  :   -42.1225526 Eh     change       -0.9673041E-03 Eh
 * total energy  :   -42.1230565 Eh     change       -0.5039087E-03 Eh
 * total energy  :   -42.1234856 Eh     change       -0.4290959E-03 Eh
   *** GEOMETRY OPTIMIZATION CONVERGED AFTER 22 ITERATIONS ***

 final structure:
================
25
 xtb: 6.6.1 (8d0f1dd)
C            3.06415848555478        1.13234838898889        0.35019487553443
N            2.27524779119170       -0.04636859097006        0.10067369834021
C            2.86195413391964       -1.26909200997028       -0.07913959386334
N            2.27297291130027       -2.36759123548754       -0.23270418999655
C            0.20536521407342       -1.19757086749388        0.02780042017812
C            0.89783769422147       -0.03906356740819        0.09325726162128
C            0.09258301786278        1.21250364452917        0.10434759529121
O            0.55926165285785        2.31033301520303        0.27218978847449
N           -1.25007402241903        1.00908778084871       -0.15972237836337
C           -2.09110243042109        2.18865554074602       -0.31952210514577
C           -1.91517360636484       -0.19557448011330       -0.21667301290657
O           -3.09608476214883       -0.31512690842651       -0.37114232943660
N           -1.09934056897356       -1.34426050151329       -0.04887428123343
C           -1.77814423515671       -2.61328644082387        0.12038923888651
H            2.96114432909953        1.44718347193738        1.39339384293274
H            4.11166834791402        0.92546490641909        0.14317314156802
H            2.72749476549232        1.96118799722382       -0.27457591713860
H            3.94704656834522       -1.28873885923986       -0.08627913997744
H           -1.45685947471134        3.04388907472355       -0.54201045250429
H           -2.79874857695520        2.00992759803719       -1.12838251619177
H           -2.65261655713853        2.38163977903784        0.59571928477393
H           -1.05843604230851       -3.38145888097976        0.38996623310224
H           -2.29687781912253       -2.88890776640380       -0.79927873466765
H           -2.52801283056057       -2.51020008779887        0.90590526656289
H            1.20516752854821       -2.34674245946469       -0.20753437794110

          :  Hamiltonian                  GFN2-xTB          :
         :: total energy             -42.123485612019 Eh    ::
         :: gradient norm              0.005056597208 Eh/a0 ::
         :: HOMO-LUMO gap              0.876073542133 eV    ::
         :: SCC energy               -42.648311092300 Eh    ::
         :: -> dispersion             -0.022196610146 Eh    ::
         :: repulsion energy           0.524704275823 Eh    ::

    * Orbital Energies and Occupations

         #    Occupation            Energy/Eh            Energy/eV
      -------------------------------------------------------------
         1        2.0000           -0.9027929             -24.5662
       ...           ...                  ...                  ...
        25        1.9997           -0.6677008             -18.1691
        26        1.9992           -0.6540146             -17.7966
        27        1.9990           -0.6502174             -17.6933
        28        1.9989           -0.6476682             -17.6239
        29        1.9985           -0.6430272             -17.4977
        30        1.9982           -0.6402920             -17.4232
        31        1.9947           -0.6232851             -16.9605
        32        1.9934           -0.6199484             -16.8697
        33        1.9844           -0.6062470             -16.4968
        34        1.9687           -0.5950799             -16.1929
        35        1.9599           -0.5910653             -16.0837
        36        1.9494           -0.5872947             -15.9811
        37        1.5404           -0.5486407             -14.9293 (HOMO)
        38        0.6099           -0.5164456             -14.0532 (LUMO)
        39        0.0046           -0.4334807             -11.7956
        40        0.0013           -0.4134632             -11.2509
        41        0.0002           -0.3841815             -10.4541
        42        0.0000           -0.3106191              -8.4524
        43                         -0.2133813              -5.8064
        44                         -0.1649628              -4.4889
        45                         -0.1540486              -4.1919
        46                         -0.0832812              -2.2662
        47                         -0.0584235              -1.5898
        48                         -0.0449979              -1.2245
       ...                                ...                  ...
        67                          0.5360284              14.5861
      -------------------------------------------------------------
                  HL-Gap            0.0321951 Eh            0.8761 eV

     #   Z          covCN         q      C6AA      α(0)
     1   6 C        3.695    -0.081    22.223     6.744
     2   7 N        2.743     0.030    20.718     6.760
     3   6 C        2.796     0.118    25.397     8.256
     4   7 N        1.778    -0.219    26.592     7.637
     5   6 C        2.143    -0.003    30.816     8.973
     6   6 C        2.929     0.021    27.541     8.607
     7   6 C        2.774     0.277    22.311     7.736
     8   8 O        0.858    -0.323    20.198     6.026
     9   7 N        2.740    -0.068    22.555     7.054
    10   6 C        3.710    -0.063    21.847     6.680
    11   6 C        2.735     0.318    21.595     7.608
    12   8 O        0.859    -0.319    20.125     6.015
    13   7 N        2.740     0.005    21.176     6.835
    14   6 C        3.700    -0.070    22.005     6.708
    15   1 H        0.924     0.113     1.669     2.020
    16   1 H        0.925     0.100     1.785     2.089
    17   1 H        0.924     0.126     1.566     1.957
    18   1 H        0.925     0.136     1.492     1.910
    19   1 H        0.925     0.116     1.644     2.005
    20   1 H        0.925     0.113     1.674     2.023
    21   1 H        0.924     0.109     1.707     2.043
    22   1 H        0.925     0.103     1.759     2.074
    23   1 H        0.924     0.119     1.618     1.989
    24   1 H        0.924     0.118     1.633     1.998
    25   1 H        1.038     0.223     0.984     1.550

Wiberg/Mayer (AO) data.
largest (>0.10) Wiberg bond orders for each atom

     #   Z sym  total        # sym  WBO       # sym  WBO       # sym  WBO
 ---------------------------------------------------------------------------
     1   6 C    3.901 --     2 N    0.997    16 H    0.970    15 H    0.944
                            17 H    0.943
     2   7 N    3.480 --     3 C    1.167     6 C    1.145     1 C    0.997
     3   6 C    3.939 --     4 N    1.795     2 N    1.167    18 H    0.905
     4   7 N    2.825 --     3 C    1.795    25 H    0.692     5 C    0.143
     5   6 C    3.438 --     6 C    1.489    13 N    1.334    25 H    0.228
                             4 N    0.143
     6   6 C    3.836 --     5 C    1.489     2 N    1.145     7 C    0.975
     7   6 C    3.915 --     8 O    1.702     9 N    1.129     6 C    0.975
     8   8 O    2.039 --     7 C    1.702     9 N    0.135
     9   7 N    3.550 --     7 C    1.129    11 C    1.127    10 C    0.963
                             8 O    0.135    12 O    0.130
    10   6 C    3.884 --    19 H    0.965     9 N    0.963    20 H    0.960
                            21 H    0.952
    11   6 C    3.929 --    12 O    1.716     9 N    1.127    13 N    0.994
    12   8 O    2.033 --    11 C    1.716     9 N    0.130
    13   7 N    3.531 --     5 C    1.334    11 C    0.994    14 C    0.972
    14   6 C    3.895 --    22 H    0.974    13 N    0.972    24 H    0.953
                            23 H    0.951
    15   1 H    0.962 --     1 C    0.944
    16   1 H    0.986 --     1 C    0.970
    17   1 H    0.966 --     1 C    0.943
    18   1 H    0.951 --     3 C    0.905
    19   1 H    0.982 --    10 C    0.965
    20   1 H    0.979 --    10 C    0.960
    21   1 H    0.974 --    10 C    0.952
    22   1 H    0.987 --    14 C    0.974
    23   1 H    0.970 --    14 C    0.951
    24   1 H    0.973 --    14 C    0.953
    25   1 H    0.948 --     4 N    0.692     5 C    0.228
 ---------------------------------------------------------------------------

molecular dipole:
                 x           y           z       tot (Debye)
 q only:        1.281      -0.879       0.069
   full:        1.330      -0.716       0.119       3.851

           -------------------------------------------------
          | TOTAL ENERGY              -42.123485612019 Eh   |
          | GRADIENT NORM               0.005056597208 Eh/α |
          | HOMO-LUMO GAP               0.876073542133 eV   |
           -------------------------------------------------

 * finished run on 2024/06/05 at 19:57:55.211
