   * xtb version 6.6.1 (8d0f1dd) compiled by 'conda@1efc2f54142f' on 2023-08-01
          program call               : xtb xtbopt.xyz --opt crude --input .xc2 --gfn2

   ID    Z sym.   atoms
    1    7 N      1, 17
    2    6 C      2-6, 8, 9, 11-16, 18-23, 25, 26, 28-33
    3    8 O      7, 10, 24, 27
    4    1 H      34-72

          :  Hamiltonian                  GFN2-xTB          :
 * total energy  :   -99.3610647 Eh     change       -0.4263256E-13 Eh
   *** GEOMETRY OPTIMIZATION CONVERGED AFTER 1 ITERATIONS ***

 final structure:
================
72
 xtb: 6.6.1 (8d0f1dd)
N           -1.89859269682671        2.90501789667290        2.29288938674423
C           -1.86109983901107        2.15539448454462        1.29548281749978
C           -3.02101538511638        1.88572554338392        0.38044209128961
C           -3.43616856005348        0.42949377118711        0.50818908097007
C           -4.29330012664190       -0.13647215765851       -0.43752746219745
C           -4.69795848472324       -1.44569164541656       -0.33262238875295
O           -5.11139151036686        0.17404415785421       -3.36238700919490
C           -6.04307428991180       -0.41572005121434       -3.83495833713252
C           -4.27506214109845       -2.24570214504304        0.73553603158860
O           -4.72991240654768       -3.51569394182095        0.73492313334035
C           -4.45847080857217       -4.34567860003069        1.84359684052297
C           -3.43176480114141       -1.68580626527274        1.69229756965949
C           -3.02456165843755       -0.36619583483766        1.57016619158435
C           -2.51583632972133        2.17573462662067       -1.05737885724682
C           -1.56980076656990        1.11026786951376       -1.63957156694740
C           -0.22955275752211        1.08621857339286       -1.01747240961936
N            0.42679165120429       -0.00374686297057       -0.64917141260909
C            1.81380152994727        0.06890281376012       -0.25156095810858
C            2.76123546617002       -0.36705750930321       -1.38689654197943
C            4.19042849242775       -0.16316719905598       -0.96577199844922
C            4.81108719155666        1.06072404806102       -1.15989333279660
C            6.11809552036341        1.26916013180545       -0.74800238548394
C            6.83255668309349        0.25411893588984       -0.12793655521158
O            8.10081812490040        0.33999809702190        0.31207287935630
C            8.81926761631446        1.53650568958792        0.11630310664883
C            6.20421083526672       -1.00619404161841        0.07667117733484
O            6.97352978520200       -1.93356016388682        0.67921623863946
C            6.45892803367051       -3.22509149919109        0.89932640137703
C            4.89511538247447       -1.18966190430683       -0.34116946015022
C           -0.18365148266516       -1.31181048549047       -0.69487828424840
C           -4.27080440176093        2.76757407976967        0.67898734968823
C           -4.86933100393673        2.45258534164549        2.04774578366841
C           -3.98752282927210        4.26328858706244        0.57570897147037
H           -4.64889397726423        0.44587556469962       -1.27101816213768
H           -7.08515456491500       -0.18085445137557       -3.57682959921093
H           -5.35918989222241       -1.88184073918913       -1.06325774863948
H           -5.91383028773261       -1.23973943712593       -4.55497704350825
H           -4.84530633611850       -3.90979627854495        2.76998750597262
H           -4.97422406494316       -5.28196360641668        1.64136706223756
H           -3.38610174813397       -4.53919480313715        1.94954373666615
H           -3.09436939202965       -2.25938098052309        2.54079684147921
H           -2.38895810423398        0.05253017629329        2.33682404011235
H           -3.37712214983463        2.24147466487099       -1.72064080331830
H           -2.01242227779265        3.14325506382842       -1.06461982542635
H           -2.05536709389383        0.13735082672362       -1.60748122982600
H           -1.42900120864695        1.37345845905064       -2.69608439612244
H           -0.94580805986618        1.63254750586240        0.95169442784691
H            0.32096297199572        2.01589946000248       -0.98217366747415
H            1.97169731295394       -0.57253207946082        0.61960676377824
H            2.05538528078317        1.09554413385646        0.03190321421070
H            2.54675584605888        0.23478451339733       -2.27177992302459
H            2.58516451651436       -1.41519385955802       -1.63100325183225
H            4.28050205120882        1.86354838638028       -1.64902756287746
H            6.57518295626911        2.22996566845463       -0.91871138869572
H            8.36146924383460        2.37155811771870        0.65538070975044
H            8.89934570985399        1.78616547593729       -0.94576873791263
H            9.81273279934909        1.34907011109744        0.51913517228456
H            7.26568992517423       -3.78357194611897        1.37032749605228
H            5.59463761059172       -3.20390035988301        1.57087943620175
H            6.18212427240514       -3.71270414401291       -0.04058098699351
H            4.41380470831064       -2.14435583029092       -0.19678706481008
H           -0.37606850876317       -1.62185385005854       -1.72390087947348
H           -1.12934232194631       -1.30936725815825       -0.14796485776193
H            0.48282779279632       -2.03542589675592       -0.23282555777620
H           -5.01521507437811        2.50505664022404       -0.08148123486004
H           -4.15694904979524        2.69035490040697        2.83163478038777
H           -5.14591219909671        1.40395415355507        2.12500755235242
H           -5.76298899365096        3.05228445950313        2.19950025850043
H           -3.24549139923542        4.55626785599932        1.31150836012087
H           -3.64213200725816        4.54400254013797       -0.41484150549337
H           -4.90179578036103        4.81498650550521        0.77683352362927
H           -1.04711694160141        3.03837551900582        2.82873329685947

          :  Hamiltonian                  GFN2-xTB          :
         :: total energy             -99.361064737085 Eh    ::
         :: gradient norm              0.004544136084 Eh/a0 ::
         :: HOMO-LUMO gap              1.696946813962 eV    ::
         :: SCC energy              -100.765427531028 Eh    ::
         :: -> dispersion             -0.073856399894 Eh    ::
         :: repulsion energy           1.403122979667 Eh    ::

    * Orbital Energies and Occupations

         #    Occupation            Energy/Eh            Energy/eV
      -------------------------------------------------------------
         1        2.0000           -0.8079563             -21.9856
       ...           ...                  ...                  ...
        78        1.9977           -0.5262474             -14.3199
        79        1.9976           -0.5258946             -14.3103
        80        1.9969           -0.5214188             -14.1885
        81        1.9945           -0.5125989             -13.9485
        82        1.9938           -0.5106334             -13.8950
        83        1.9934           -0.5096121             -13.8673
        84        1.9920           -0.5066378             -13.7863
        85        1.9876           -0.4996333             -13.5957
        86        1.9798           -0.4918029             -13.3826
        87        1.9775           -0.4900309             -13.3344
        88        1.9289           -0.4714534             -12.8289
        89        1.9092           -0.4674140             -12.7190
        90        1.8350           -0.4573230             -12.4444 (HOMO)
        91        0.3561           -0.3949613             -10.7474 (LUMO)
        92        0.0482           -0.3605605              -9.8114
        93        0.0120           -0.3382146              -9.2033
        94        0.0034           -0.3181407              -8.6570
        95        0.0026           -0.3139809              -8.5439
        96        0.0023           -0.3117824              -8.4840
        97        0.0021           -0.3103246              -8.4444
        98        0.0000           -0.1893103              -5.1514
        99        0.0000           -0.1876805              -5.1070
       100                         -0.1373948              -3.7387
       101                         -0.0667529              -1.8164
       ...                                ...                  ...
       171                          0.5746219              15.6363
      -------------------------------------------------------------
                  HL-Gap            0.0623616 Eh            1.6969 eV

     #   Z          covCN         q      C6AA      α(0)
     1   7 N        1.774    -0.266    27.736     7.799
     2   6 C        2.827     0.103    25.703     8.307
     3   6 C        3.907     0.006    20.418     6.423
     4   6 C        2.976     0.002    27.976     8.676
     5   6 C        2.923    -0.041    29.029     8.836
     6   6 C        2.919    -0.052    29.280     8.873
     7   8 O        0.856    -0.301    19.806     5.967
     8   6 C        2.702     0.177    24.192     8.050
     9   6 C        2.864     0.148    24.792     8.162
    10   8 O        1.706    -0.248    18.110     5.746
    11   6 C        3.644     0.029    20.420     6.496
    12   6 C        2.915    -0.070    29.739     8.943
    13   6 C        2.923    -0.041    29.025     8.835
    14   6 C        3.812    -0.068    21.788     6.644
    15   6 C        3.802    -0.072    21.875     6.659
    16   6 C        2.844     0.013    27.707     8.627
    17   7 N        2.729     0.015    20.986     6.804
    18   6 C        3.755    -0.017    20.935     6.524
    19   6 C        3.807    -0.071    21.845     6.653
    20   6 C        2.969     0.000    28.020     8.683
    21   6 C        2.922    -0.049    29.206     8.862
    22   6 C        2.913    -0.067    29.673     8.932
    23   6 C        2.865     0.134    25.070     8.207
    24   8 O        1.706    -0.220    17.658     5.674
    25   6 C        3.645     0.024    20.497     6.507
    26   6 C        2.862     0.134    25.078     8.208
    27   8 O        1.706    -0.223    17.704     5.681
    28   6 C        3.644     0.027    20.463     6.502
    29   6 C        2.919    -0.079    29.977     8.978
    30   6 C        3.700    -0.071    22.033     6.713
    31   6 C        3.853    -0.008    20.691     6.470
    32   6 C        3.756    -0.117    22.805     6.809
    33   6 C        3.755    -0.119    22.835     6.814
    34   1 H        0.926     0.076     2.018     2.222
    35   1 H        0.923     0.050     2.323     2.383
    36   1 H        0.926     0.056     2.245     2.343
    37   1 H        0.923     0.047     2.352     2.399
    38   1 H        0.924     0.054     2.276     2.359
    39   1 H        0.925     0.077     2.011     2.218
    40   1 H        0.924     0.047     2.364     2.404
    41   1 H        0.926     0.045     2.383     2.414
    42   1 H        0.926     0.035     2.512     2.479
    43   1 H        0.925     0.076     2.023     2.224
    44   1 H        0.924     0.053     2.284     2.363
    45   1 H        0.925     0.075     2.033     2.230
    46   1 H        0.924     0.089     1.886     2.148
    47   1 H        0.922     0.004     2.984     2.702
    48   1 H        0.926     0.072     2.066     2.248
    49   1 H        0.924     0.068     2.105     2.269
    50   1 H        0.924     0.068     2.107     2.270
    51   1 H        0.924     0.056     2.242     2.342
    52   1 H        0.924     0.056     2.242     2.341
    53   1 H        0.926     0.046     2.372     2.409
    54   1 H        0.926     0.059     2.208     2.324
    55   1 H        0.924     0.055     2.258     2.350
    56   1 H        0.924     0.057     2.240     2.341
    57   1 H        0.925     0.083     1.948     2.183
    58   1 H        0.925     0.083     1.953     2.186
    59   1 H        0.924     0.049     2.328     2.386
    60   1 H        0.924     0.053     2.280     2.362
    61   1 H        0.926     0.048     2.346     2.395
    62   1 H        0.924     0.080     1.979     2.200
    63   1 H        0.924     0.081     1.966     2.193
    64   1 H        0.925     0.080     1.975     2.198
    65   1 H        0.924     0.045     2.388     2.416
    66   1 H        0.925     0.067     2.121     2.278
    67   1 H        0.925     0.036     2.501     2.473
    68   1 H        0.925     0.052     2.295     2.369
    69   1 H        0.925     0.062     2.179     2.308
    70   1 H        0.925     0.037     2.491     2.468
    71   1 H        0.925     0.055     2.262     2.352
    72   1 H        0.860     0.157     1.354     1.822

Wiberg/Mayer (AO) data.
largest (>0.10) Wiberg bond orders for each atom

     #   Z sym  total        # sym  WBO       # sym  WBO       # sym  WBO
 ---------------------------------------------------------------------------
     1   7 N    3.040 --     2 C    1.956    72 H    0.941
     2   6 C    3.931 --     1 N    1.956     3 C    0.996    47 H    0.900
     3   6 C    3.972 --     2 C    0.996     4 C    0.969    14 C    0.956
                            31 C    0.939
     4   6 C    3.945 --    13 C    1.408     5 C    1.366     3 C    0.969
     5   6 C    3.971 --     6 C    1.487     4 C    1.366    34 H    0.949
     6   6 C    3.958 --     5 C    1.487     9 C    1.318    36 H    0.965
     7   8 O    2.053 --     8 C    1.950
     8   6 C    3.843 --     7 O    1.950    35 H    0.943    37 H    0.943
     9   6 C    3.909 --    12 C    1.356     6 C    1.318    10 O    1.093
    10   8 O    2.241 --     9 C    1.093    11 C    0.977
    11   6 C    3.934 --    39 H    0.978    10 O    0.977    38 H    0.975
                            40 H    0.974
    12   6 C    3.958 --    13 C    1.435     9 C    1.356    41 H    0.965
    13   6 C    3.973 --    12 C    1.435     4 C    1.408    42 H    0.963
    14   6 C    3.970 --    15 C    0.978    44 H    0.972    43 H    0.965
                             3 C    0.956
    15   6 C    3.983 --    16 C    1.065    14 C    0.978    45 H    0.959
                            46 H    0.921
    16   6 C    3.621 --    17 N    1.419    15 C    1.065    48 H    0.956
    17   7 N    3.498 --    16 C    1.419    30 C    0.997    18 C    0.987
    18   6 C    3.955 --    17 N    0.987    50 H    0.968    19 C    0.966
                            49 H    0.964
    19   6 C    3.977 --    20 C    1.008    52 H    0.972    51 H    0.971
                            18 C    0.966
    20   6 C    3.942 --    21 C    1.407    29 C    1.381    19 C    1.008
    21   6 C    3.948 --    22 C    1.418    20 C    1.407    53 H    0.968
    22   6 C    3.958 --    21 C    1.418    23 C    1.382    54 H    0.963
    23   6 C    3.893 --    22 C    1.382    26 C    1.218    24 O    1.112
    24   8 O    2.255 --    23 C    1.112    25 C    0.975
    25   6 C    3.927 --    57 H    0.977    24 O    0.975    56 H    0.972
                            55 H    0.972
    26   6 C    3.897 --    29 C    1.394    23 C    1.218    27 O    1.106
    27   8 O    2.255 --    26 C    1.106    28 C    0.978
    28   6 C    3.931 --    27 O    0.978    58 H    0.977    59 H    0.973
                            60 H    0.973
    29   6 C    3.958 --    26 C    1.394    20 C    1.381    61 H    0.962
    30   6 C    3.956 --    17 N    0.997    64 H    0.978    62 H    0.966
                            63 H    0.962
    31   6 C    3.967 --    33 C    1.008    32 C    1.008    65 H    0.958
                             3 C    0.939
    32   6 C    3.976 --    31 C    1.008    67 H    0.981    68 H    0.980
                            66 H    0.974
    33   6 C    3.979 --    31 C    1.008    70 H    0.982    71 H    0.979
                            69 H    0.975
    34   1 H    0.992 --     5 C    0.949
    35   1 H    0.991 --     8 C    0.943
    36   1 H    0.995 --     6 C    0.965
    37   1 H    0.992 --     8 C    0.943
    38   1 H    0.993 --    11 C    0.975
    39   1 H    0.993 --    11 C    0.978
    40   1 H    0.994 --    11 C    0.974
    41   1 H    0.996 --    12 C    0.965
    42   1 H    0.997 --    13 C    0.963
    43   1 H    0.993 --    14 C    0.965
    44   1 H    0.996 --    14 C    0.972
    45   1 H    0.994 --    15 C    0.959
    46   1 H    0.969 --    15 C    0.921
    47   1 H    0.984 --     2 C    0.900
    48   1 H    0.994 --    16 C    0.956
    49   1 H    0.991 --    18 C    0.964
    50   1 H    0.994 --    18 C    0.968
    51   1 H    0.995 --    19 C    0.971
    52   1 H    0.996 --    19 C    0.972
    53   1 H    0.997 --    21 C    0.968
    54   1 H    0.995 --    22 C    0.963
    55   1 H    0.991 --    25 C    0.972
    56   1 H    0.991 --    25 C    0.972
    57   1 H    0.992 --    25 C    0.977
    58   1 H    0.992 --    28 C    0.977
    59   1 H    0.993 --    28 C    0.973
    60   1 H    0.992 --    28 C    0.973
    61   1 H    0.996 --    29 C    0.962
    62   1 H    0.985 --    30 C    0.966
    63   1 H    0.987 --    30 C    0.962
    64   1 H    0.993 --    30 C    0.978
    65   1 H    0.990 --    31 C    0.958
    66   1 H    0.990 --    32 C    0.974
    67   1 H    0.996 --    32 C    0.981
    68   1 H    0.993 --    32 C    0.980
    69   1 H    0.992 --    33 C    0.975
    70   1 H    0.996 --    33 C    0.982
    71   1 H    0.993 --    33 C    0.979
    72   1 H    0.969 --     1 N    0.941
 ---------------------------------------------------------------------------

molecular dipole:
                 x           y           z       tot (Debye)
 q only:        0.833      -0.343      -0.590
   full:        0.949      -0.639      -0.758       3.490

           -------------------------------------------------
          | TOTAL ENERGY              -99.361064737085 Eh   |
          | GRADIENT NORM               0.004544136084 Eh/α |
          | HOMO-LUMO GAP               1.696946813962 eV   |
           -------------------------------------------------

 * finished run on 2024/04/06 at 11:12:53.326
