   * xtb version 6.6.1 (8d0f1dd) compiled by 'conda@1efc2f54142f' on 2023-08-01
          program call               : xtb xtbopt.xyz --opt crude --input .xc2 --gfn2

   ID    Z sym.   atoms
    1    6 C      1, 3, 5-7, 10, 11, 14
    2    7 N      2, 4, 9, 13
    3    8 O      8, 12
    4    1 H      15-25

          :  Hamiltonian                  GFN2-xTB          :
 * total energy  :   -42.1450097 Eh     change       -0.2664535E-11 Eh
   *** GEOMETRY OPTIMIZATION CONVERGED AFTER 1 ITERATIONS ***

 final structure:
================
25
 xtb: 6.6.1 (8d0f1dd)
C            4.08094268544089        0.80633907957674       -0.02219861379173
N            3.03372760958426       -0.17390596028520       -0.03066239501737
C            3.15840605728359       -1.48347184040351       -0.11617181997862
N            1.96330051867696       -2.08252722350939       -0.08670549815673
C            0.93242433980215       -1.12227088393602        0.02912368460150
C            1.66686245845827        0.14583504612963        0.06396132031005
C            1.15453102115726        1.36519903303902        0.16486752696196
O            0.64150273938672        2.39746222516540        0.25333171296500
N           -3.62859378483670        1.28287278761706       -0.02180402151822
C           -3.90448222954258        2.65888655666686       -0.00359103143418
C           -3.96999388036892        0.14747371893555       -0.03904368128202
O           -4.08991942437516       -1.00495036943459       -0.05607270427818
N           -0.31287352678913       -1.27190954431091        0.08909642136374
C           -1.00859949387878       -2.51679822247169        0.05475209121008
H            4.10641326537398        1.32441263297772        0.93899025778092
H            5.04004284976247        0.32067304021075       -0.19061412228729
H            3.91030316239626        1.54443026668397       -0.80801523435317
H            4.09750388825482       -1.99919517090608       -0.19933071378413
H           -2.95181641167634        3.18839998418547        0.02422083218938
H           -4.45423096432632        2.95523331227053       -0.89972835213137
H           -4.48864077889007        2.92438176779002        0.88089033394673
H           -0.74560537622034       -3.14705741642277        0.90894769502310
H           -0.80710971631643       -3.06950797722390       -0.86695691656740
H           -2.07386644807626       -2.29386144668582        0.10121889917029
H            1.81020295381854       -3.07790485406166       -0.13733405304204

          :  Hamiltonian                  GFN2-xTB          :
         :: total energy             -42.145009677391 Eh    ::
         :: gradient norm              0.002611499195 Eh/a0 ::
         :: HOMO-LUMO gap              2.287270026278 eV    ::
         :: SCC energy               -42.766545414994 Eh    ::
         :: -> dispersion             -0.017482210929 Eh    ::
         :: repulsion energy           0.621493976448 Eh    ::

    * Orbital Energies and Occupations

         #    Occupation            Energy/Eh            Energy/eV
      -------------------------------------------------------------
         1        2.0000           -0.9093793             -24.7455
       ...           ...                  ...                  ...
        25        2.0000           -0.6490650             -17.6620
        26        2.0000           -0.6422134             -17.4755
        27        1.9999           -0.6401591             -17.4196
        28        1.9999           -0.6393855             -17.3986
        29        1.9997           -0.6144622             -16.7204
        30        1.9997           -0.6120926             -16.6559
        31        1.9997           -0.6120547             -16.6549
        32        1.9994           -0.6007398             -16.3470
        33        1.9991           -0.5949009             -16.1881
        34        1.9396           -0.5275630             -14.3557
        35        1.9299           -0.5251051             -14.2888
        36        1.9147           -0.5218745             -14.2009
        37        1.8938           -0.5182404             -14.1020 (HOMO)
        38        0.1622           -0.4341848             -11.8148 (LUMO)
        39        0.1591           -0.4338511             -11.8057
        40        0.0031           -0.3704227             -10.0797
        41        0.0000           -0.2894390              -7.8760
        42        0.0000           -0.2875075              -7.8235
        43        0.0000           -0.2709420              -7.3727
        44                         -0.1784515              -4.8559
        45                         -0.1440829              -3.9207
        46                         -0.0871291              -2.3709
        47                         -0.0609324              -1.6581
        48                         -0.0474718              -1.2918
       ...                                ...                  ...
        67                          1.2415263              33.7837
      -------------------------------------------------------------
                  HL-Gap            0.0840556 Eh            2.2873 eV

     #   Z          covCN         q      C6AA      α(0)
     1   6 C        3.691    -0.084    22.293     6.756
     2   7 N        2.801     0.059    20.211     6.677
     3   6 C        2.958     0.078    26.246     8.403
     4   7 N        2.772    -0.091    23.023     7.126
     5   6 C        2.926     0.156    24.635     8.140
     6   6 C        3.042    -0.021    28.486     8.754
     7   6 C        1.844     0.252    25.334     8.131
     8   8 O        0.856    -0.119    16.795     5.495
     9   7 N        1.820    -0.141    24.828     7.383
    10   6 C        3.685    -0.032    21.347     6.615
    11   6 C        1.769     0.313    24.198     7.953
    12   8 O        0.856    -0.258    19.033     5.849
    13   7 N        1.824    -0.211    26.431     7.618
    14   6 C        3.700    -0.042    21.488     6.629
    15   1 H        0.924     0.102     1.769     2.080
    16   1 H        0.925     0.103     1.762     2.076
    17   1 H        0.924     0.101     1.778     2.085
    18   1 H        0.926     0.114     1.666     2.018
    19   1 H        0.924     0.093     1.846     2.125
    20   1 H        0.924     0.088     1.896     2.153
    21   1 H        0.924     0.088     1.895     2.153
    22   1 H        0.924     0.066     2.133     2.284
    23   1 H        0.924     0.064     2.156     2.296
    24   1 H        0.925     0.103     1.757     2.073
    25   1 H        0.860     0.219     1.013     1.577

Wiberg/Mayer (AO) data.
largest (>0.10) Wiberg bond orders for each atom

     #   Z sym  total        # sym  WBO       # sym  WBO       # sym  WBO
 ---------------------------------------------------------------------------
     1   6 C    3.934 --     2 N    0.994    16 H    0.973    17 H    0.964
                            15 H    0.961
     2   7 N    3.619 --     3 C    1.402     6 C    1.042     1 C    0.994
                             4 N    0.111
     3   6 C    3.839 --     2 N    1.402     4 N    1.316    18 H    0.949
     4   7 N    3.536 --     3 C    1.316     5 C    1.033    25 H    0.923
                             2 N    0.111
     5   6 C    3.927 --    13 N    1.708     6 C    1.041     4 N    1.033
     6   6 C    3.872 --     7 C    1.478     2 N    1.042     5 C    1.041
                             8 O    0.151
     7   6 C    3.700 --     8 O    2.081     6 C    1.478
     8   8 O    2.355 --     7 C    2.081     6 C    0.151
     9   7 N    3.361 --    11 C    1.986    10 C    1.026    12 O    0.348
    10   6 C    3.923 --     9 N    1.026    19 H    0.960    20 H    0.950
                            21 H    0.950
    11   6 C    3.936 --     9 N    1.986    12 O    1.880
    12   8 O    2.272 --    11 C    1.880     9 N    0.348
    13   7 N    3.016 --     5 C    1.708    14 C    1.029
    14   6 C    3.940 --    13 N    1.029    24 H    0.960    23 H    0.953
                            22 H    0.952
    15   1 H    0.986 --     1 C    0.961
    16   1 H    0.989 --     1 C    0.973
    17   1 H    0.987 --     1 C    0.964
    18   1 H    0.984 --     3 C    0.949
    19   1 H    0.980 --    10 C    0.960
    20   1 H    0.975 --    10 C    0.950
    21   1 H    0.975 --    10 C    0.950
    22   1 H    0.979 --    14 C    0.952
    23   1 H    0.979 --    14 C    0.953
    24   1 H    0.976 --    14 C    0.960
    25   1 H    0.950 --     4 N    0.923
 ---------------------------------------------------------------------------

molecular dipole:
                 x           y           z       tot (Debye)
 q only:        3.018      -0.207      -0.085
   full:        3.283      -0.626      -0.132       8.501

           -------------------------------------------------
          | TOTAL ENERGY              -42.145009677391 Eh   |
          | GRADIENT NORM               0.002611499195 Eh/α |
          | HOMO-LUMO GAP               2.287270026278 eV   |
           -------------------------------------------------

 * finished run on 2024/06/05 at 19:57:58.758
