   * xtb version 6.6.1 (8d0f1dd) compiled by 'conda@1efc2f54142f' on 2023-08-01
          program call               : xtb struc.xyz --opt loose --input .xc1 --gfn2

   ID    Z sym.   atoms
    1    7 N      1, 17
    2    6 C      2-6, 8, 9, 11-16, 18-23, 25, 26, 28-33
    3    8 O      7, 10, 24, 27
    4    1 H      34-72
constraining bond 36 37 to    3.2800000 Å, actual value:    1.7789263 Å

          :  Hamiltonian                  GFN2-xTB          :
 * total energy  :   -99.0018109 Eh     change       -0.4035485E-08 Eh
 * total energy  :   -99.1620974 Eh     change       -0.1602866E+00 Eh
 * total energy  :   -99.2359836 Eh     change       -0.7388615E-01 Eh
 * total energy  :   -99.2540303 Eh     change       -0.1804671E-01 Eh
 * total energy  :   -99.2570628 Eh     change       -0.3032532E-02 Eh
 * total energy  :   -99.2579185 Eh     change       -0.8556601E-03 Eh
 * total energy  :   -99.2587865 Eh     change       -0.8680403E-03 Eh
 * total energy  :   -99.2594256 Eh     change       -0.6390681E-03 Eh
 * total energy  :   -99.2605653 Eh     change       -0.1139707E-02 Eh
 * total energy  :   -99.2631353 Eh     change       -0.2569976E-02 Eh
 * total energy  :   -99.3312850 Eh     change       -0.8242220E-03 Eh
 * total energy  :   -99.3322856 Eh     change       -0.1000525E-02 Eh
 * total energy  :   -99.3327270 Eh     change       -0.4414310E-03 Eh
 * total energy  :   -99.3330730 Eh     change       -0.3459926E-03 Eh
 * total energy  :   -99.3332740 Eh     change       -0.2009648E-03 Eh
 * total energy  :   -99.3334694 Eh     change       -0.1954676E-03 Eh
 * total energy  :   -99.3335607 Eh     change       -0.9131800E-04 Eh
 * total energy  :   -99.3336436 Eh     change       -0.8285009E-04 Eh
 * total energy  :   -99.3336915 Eh     change       -0.4792382E-04 Eh
   *** GEOMETRY OPTIMIZATION CONVERGED AFTER 54 ITERATIONS ***

 final structure:
================
72
 xtb: 6.6.1 (8d0f1dd)
N           -1.90269920889573        2.78219085649859        2.22797689723041
C           -1.86388220681207        2.10314612926134        1.17982186924885
C           -3.02385443127007        1.91361407116673        0.23820529786581
C           -3.51019175982554        0.47950408552679        0.33009710487377
C           -4.57876700497752        0.03575369716501       -0.62360573012452
C           -4.87812044852265       -1.42245187134504       -0.54937355831805
O           -5.52470839168406       -1.97101999444461       -1.56074607750906
C           -6.03431410981589       -1.28083403799004       -2.54281686877757
C           -4.43839261113193       -2.23854382317920        0.51442580722415
O           -4.91374711731819       -3.50328567714026        0.51115162881067
C           -4.63701168184644       -4.33023803290712        1.61689997416038
C           -3.55910702814597       -1.70125177202061        1.43486109818030
C           -3.08803205843878       -0.37286030492752        1.29416930850759
C           -2.47360498578930        2.20137877563829       -1.18428259902992
C           -1.53923043533366        1.11214903134027       -1.74154042436429
C           -0.20022684777635        1.09672422929236       -1.10874969912625
N            0.46358779875182       -0.00006891774140       -0.74653013498033
C            1.84401496812726        0.08371976827544       -0.33347856963854
C            2.81158651846983       -0.33686086234976       -1.45669336833232
C            4.23033105066515       -0.14017790743143       -1.00048014621245
C            4.87207278593116        1.07115412022697       -1.19633931958234
C            6.16751708228690        1.27014717408825       -0.74369595225643
C            6.84588934724182        0.25926754934555       -0.07926590727509
O            8.10062172549485        0.33988586017254        0.40408781145585
C            8.82680983150009        1.53479196208509        0.23196781532614
C            6.19504734468570       -0.98765773351253        0.12772798771765
O            6.92844528300252       -1.91491227587660        0.77777851925875
C            6.38036469287570       -3.19071087427795        1.00553218494677
C            4.89988728129560       -1.16291085186175       -0.33214145477546
C           -0.13347886697639       -1.31183384737651       -0.81126553589403
C           -4.21402902728508        2.87678610495580        0.54158477716220
C           -4.86975085831916        2.55033886782950        1.88178558208586
C           -3.81724529286933        4.35042726288278        0.51574428412340
H           -5.49242880285704        0.61328137117579       -0.41568681055554
H           -6.17649760189930       -0.21844480871879       -2.52283016879207
H           -6.32293848661215       -1.84343594552555       -3.39593024529444
H           -4.35640523057909        0.21636044671941       -1.69107556325351
H           -4.98020778828034       -3.87349154675905        2.54800168392005
H           -5.18960197058759       -5.25079310431459        1.43971934519800
H           -3.57066711205563       -4.55717654219570        1.69269102095868
H           -3.19558638724152       -2.28680281437838        2.26183316885626
H           -2.36563148369872       -0.03735328450643        2.02332685703564
H           -3.31481917921949        2.31643952561366       -1.86773124582041
H           -1.93540989953521        3.14951548343109       -1.16484213929849
H           -2.01625532216772        0.13716070765917       -1.66842957806426
H           -1.39816055656078        1.33576953156584       -2.80752762339498
H           -0.95364010883304        1.59545870470293        0.80640787404628
H            0.35071987514052        2.02456199451703       -1.08084012916329
H            1.99747685328799       -0.55987262758121        0.53711405724271
H            2.07080927339046        1.11108795789548       -0.04150200414563
H            2.61481291954917        0.27688436425458       -2.33732862919838
H            2.63951787080312       -1.38177101494379       -1.71761278559686
H            4.36864509879426        1.87161091728949       -1.71708139405269
H            6.64311517449539        2.22122665752661       -0.91818027562556
H            8.33675263742285        2.37703961231925        0.73002561398312
H            8.96869763765979        1.76851714218524       -0.82745334966046
H            9.79549165336806        1.35647492721975        0.69479135417667
H            7.15578807774897       -3.75353611213309        1.52157981632872
H            5.48985207453346       -3.13819170463198        1.64039816565998
H            6.13205664129983       -3.69493334376283        0.06632687746460
H            4.39983972720983       -2.10763526677380       -0.18577369587328
H           -0.29973323845584       -1.62082691369077       -1.84577368809989
H           -1.08931821600732       -1.32368172820132       -0.28162276765966
H            0.53076581215330       -2.03081900985463       -0.33912197314662
H           -4.95202725250833        2.72142238818455       -0.25418222502232
H           -4.16713321686894        2.73219999756317        2.68813896782410
H           -5.19249445586959        1.51323405254159        1.92930597932530
H           -5.73812078661393        3.18742043154008        2.02799430856166
H           -3.06964371826346        4.55473710013523        1.27529251121884
H           -3.43581918256735        4.65254817295069       -0.45584606552113
H           -4.69341972225726        4.95648769138830        0.73134442080548
H           -1.04764734763183        2.85810535069316        2.77053257522442

          :  Hamiltonian                  GFN2-xTB          :
         :: total energy             -99.333691515075 Eh    ::
         :: gradient norm              0.003455726552 Eh/a0 ::
         :: HOMO-LUMO gap              1.152364674645 eV    ::
         :: SCC energy              -100.699702336886 Eh    ::
         :: -> dispersion             -0.074986547927 Eh    ::
         :: repulsion energy           1.364421090950 Eh    ::

    * Orbital Energies and Occupations

         #    Occupation            Energy/Eh            Energy/eV
      -------------------------------------------------------------
         1        2.0000           -0.8514857             -23.1701
       ...           ...                  ...                  ...
        78        1.9990           -0.5299008             -14.4193
        79        1.9989           -0.5277822             -14.3617
        80        1.9988           -0.5261233             -14.3165
        81        1.9986           -0.5238192             -14.2538
        82        1.9977           -0.5159368             -14.0394
        83        1.9975           -0.5149772             -14.0132
        84        1.9972           -0.5130991             -13.9621
        85        1.9970           -0.5119714             -13.9315
        86        1.9815           -0.4831315             -13.1467
        87        1.9788           -0.4809617             -13.0876
        88        1.9573           -0.4696845             -12.7808
        89        1.8654           -0.4507543             -12.2656
        90        1.6088           -0.4315166             -11.7422 (HOMO)
        91        0.4418           -0.3891679             -10.5898 (LUMO)
        92        0.1570           -0.3701319             -10.0718
        93        0.0206           -0.3368402              -9.1659
        94        0.0038           -0.3099175              -8.4333
        95        0.0032           -0.3070237              -8.3545
        96        0.0027           -0.3045455              -8.2871
        97        0.0000           -0.2276745              -6.1953
        98        0.0000           -0.1820282              -4.9532
        99                         -0.1316169              -3.5815
       100                         -0.0744915              -2.0270
       101                         -0.0672109              -1.8289
       ...                                ...                  ...
       171                          0.5824955              15.8505
      -------------------------------------------------------------
                  HL-Gap            0.0423486 Eh            1.1524 eV

     #   Z          covCN         q      C6AA      α(0)
     1   7 N        1.773    -0.273    27.904     7.822
     2   6 C        2.827     0.098    25.821     8.327
     3   6 C        3.906     0.006    20.426     6.424
     4   6 C        2.959    -0.008    28.224     8.714
     5   6 C        3.810    -0.073    21.897     6.661
     6   6 C        2.884     0.082    26.173     8.387
     7   8 O        1.711    -0.084    15.606     5.334
     8   6 C        2.758    -0.005    28.134     8.686
     9   6 C        2.851     0.132    25.107     8.212
    10   8 O        1.706    -0.242    18.017     5.731
    11   6 C        3.647     0.028    20.438     6.496
    12   6 C        2.912    -0.089    30.219     9.014
    13   6 C        2.907    -0.049    29.212     8.862
    14   6 C        3.812    -0.066    21.753     6.639
    15   6 C        3.802    -0.068    21.799     6.647
    16   6 C        2.842     0.000    28.015     8.674
    17   7 N        2.729     0.004    21.189     6.837
    18   6 C        3.756    -0.015    20.904     6.519
    19   6 C        3.808    -0.070    21.836     6.652
    20   6 C        2.970    -0.002    28.062     8.689
    21   6 C        2.922    -0.050    29.236     8.867
    22   6 C        2.914    -0.068    29.699     8.936
    23   6 C        2.865     0.132    25.104     8.213
    24   8 O        1.706    -0.225    17.735     5.686
    25   6 C        3.645     0.026    20.471     6.503
    26   6 C        2.863     0.132    25.112     8.214
    27   8 O        1.706    -0.228    17.778     5.693
    28   6 C        3.645     0.028    20.434     6.497
    29   6 C        2.920    -0.080    30.003     8.982
    30   6 C        3.699    -0.068    21.970     6.704
    31   6 C        3.852    -0.007    20.673     6.467
    32   6 C        3.756    -0.120    22.861     6.817
    33   6 C        3.755    -0.119    22.830     6.813
    34   1 H        0.923     0.079     1.994     2.208
    35   1 H        0.926     0.055     2.258     2.350
    36   1 H        0.927     0.080     1.978     2.199
    37   1 H        0.922     0.062     2.180     2.309
    38   1 H        0.924     0.055     2.259     2.350
    39   1 H        0.925     0.080     1.981     2.201
    40   1 H        0.924     0.049     2.331     2.388
    41   1 H        0.926     0.052     2.298     2.371
    42   1 H        0.926     0.042     2.418     2.432
    43   1 H        0.925     0.055     2.256     2.349
    44   1 H        0.924     0.055     2.264     2.353
    45   1 H        0.925     0.062     2.174     2.306
    46   1 H        0.923     0.075     2.034     2.231
    47   1 H        0.922     0.007     2.939     2.681
    48   1 H        0.926     0.066     2.127     2.281
    49   1 H        0.924     0.065     2.139     2.287
    50   1 H        0.924     0.066     2.128     2.281
    51   1 H        0.924     0.054     2.271     2.357
    52   1 H        0.924     0.054     2.270     2.356
    53   1 H        0.926     0.043     2.403     2.424
    54   1 H        0.926     0.057     2.237     2.339
    55   1 H        0.924     0.053     2.288     2.366
    56   1 H        0.924     0.054     2.266     2.354
    57   1 H        0.925     0.081     1.971     2.195
    58   1 H        0.925     0.080     1.976     2.198
    59   1 H        0.924     0.047     2.360     2.402
    60   1 H        0.924     0.051     2.308     2.376
    61   1 H        0.926     0.045     2.380     2.413
    62   1 H        0.924     0.073     2.050     2.239
    63   1 H        0.924     0.076     2.020     2.223
    64   1 H        0.925     0.078     1.995     2.209
    65   1 H        0.924     0.032     2.561     2.503
    66   1 H        0.925     0.070     2.081     2.256
    67   1 H        0.925     0.033     2.538     2.491
    68   1 H        0.925     0.050     2.321     2.383
    69   1 H        0.925     0.061     2.182     2.310
    70   1 H        0.925     0.034     2.531     2.488
    71   1 H        0.925     0.054     2.273     2.358
    72   1 H        0.860     0.156     1.363     1.829

Wiberg/Mayer (AO) data.
largest (>0.10) Wiberg bond orders for each atom

     #   Z sym  total        # sym  WBO       # sym  WBO       # sym  WBO
 ---------------------------------------------------------------------------
     1   7 N    3.037 --     2 C    1.954    72 H    0.943
     2   6 C    3.923 --     1 N    1.954     3 C    0.992    47 H    0.899
     3   6 C    3.978 --     2 C    0.992     4 C    0.980    14 C    0.956
                            31 C    0.937
     4   6 C    3.837 --    13 C    1.637     5 C    1.020     3 C    0.980
     5   6 C    3.985 --     6 C    1.024     4 C    1.020    37 H    0.927
                            34 H    0.914
     6   6 C    3.775 --     9 C    1.247     7 O    1.167     5 C    1.024
                             8 C    0.215
     7   8 O    2.538 --     8 C    1.255     6 C    1.167
     8   6 C    3.564 --     7 O    1.255    36 H    0.971    35 H    0.967
                             6 C    0.215
     9   6 C    3.895 --    12 C    1.401     6 C    1.247    10 O    1.091
    10   8 O    2.251 --     9 C    1.091    11 C    0.975
    11   6 C    3.931 --    39 H    0.977    10 O    0.975    38 H    0.975
                            40 H    0.975
    12   6 C    3.811 --     9 C    1.401    13 C    1.250    41 H    0.966
    13   6 C    3.968 --     4 C    1.637    12 C    1.250    42 H    0.959
    14   6 C    3.970 --    15 C    0.983    44 H    0.972    43 H    0.970
                             3 C    0.956
    15   6 C    3.988 --    16 C    1.056    14 C    0.983    45 H    0.962
                            46 H    0.931
    16   6 C    3.561 --    17 N    1.378    15 C    1.056    48 H    0.958
    17   7 N    3.456 --    16 C    1.378    30 C    1.000    18 C    0.990
    18   6 C    3.957 --    17 N    0.990    50 H    0.968    19 C    0.967
                            49 H    0.964
    19   6 C    3.976 --    20 C    1.007    51 H    0.972    52 H    0.972
                            18 C    0.967
    20   6 C    3.949 --    21 C    1.413    29 C    1.378    19 C    1.007
    21   6 C    3.954 --    22 C    1.414    20 C    1.413    53 H    0.968
    22   6 C    3.962 --    21 C    1.414    23 C    1.387    54 H    0.963
    23   6 C    3.900 --    22 C    1.387    26 C    1.223    24 O    1.106
    24   8 O    2.255 --    23 C    1.106    25 C    0.977
    25   6 C    3.930 --    57 H    0.977    24 O    0.977    55 H    0.973
                            56 H    0.973
    26   6 C    3.903 --    29 C    1.398    23 C    1.223    27 O    1.099
    27   8 O    2.254 --    26 C    1.099    28 C    0.980
    28   6 C    3.934 --    27 O    0.980    58 H    0.977    59 H    0.974
                            60 H    0.974
    29   6 C    3.961 --    26 C    1.398    20 C    1.378    61 H    0.963
    30   6 C    3.960 --    17 N    1.000    64 H    0.978    62 H    0.967
                            63 H    0.964
    31   6 C    3.969 --    33 C    1.010    32 C    1.009    65 H    0.960
                             3 C    0.937
    32   6 C    3.983 --    31 C    1.009    67 H    0.982    68 H    0.982
                            66 H    0.975
    33   6 C    3.986 --    31 C    1.010    70 H    0.983    71 H    0.980
                            69 H    0.977
    34   1 H    0.965 --     5 C    0.914
    35   1 H    0.997 --     8 C    0.967
    36   1 H    0.993 --     8 C    0.971
    37   1 H    0.981 --     5 C    0.927
    38   1 H    0.994 --    11 C    0.975
    39   1 H    0.993 --    11 C    0.977
    40   1 H    0.995 --    11 C    0.975
    41   1 H    0.996 --    12 C    0.966
    42   1 H    0.998 --    13 C    0.959
    43   1 H    0.996 --    14 C    0.970
    44   1 H    0.996 --    14 C    0.972
    45   1 H    0.995 --    15 C    0.962
    46   1 H    0.969 --    15 C    0.931
    47   1 H    0.990 --     2 C    0.899
    48   1 H    0.995 --    16 C    0.958
    49   1 H    0.991 --    18 C    0.964
    50   1 H    0.994 --    18 C    0.968
    51   1 H    0.996 --    19 C    0.972
    52   1 H    0.996 --    19 C    0.972
    53   1 H    0.998 --    21 C    0.968
    54   1 H    0.995 --    22 C    0.963
    55   1 H    0.993 --    25 C    0.973
    56   1 H    0.992 --    25 C    0.973
    57   1 H    0.993 --    25 C    0.977
    58   1 H    0.993 --    28 C    0.977
    59   1 H    0.994 --    28 C    0.974
    60   1 H    0.994 --    28 C    0.974
    61   1 H    0.997 --    29 C    0.963
    62   1 H    0.985 --    30 C    0.967
    63   1 H    0.987 --    30 C    0.964
    64   1 H    0.994 --    30 C    0.978
    65   1 H    0.995 --    31 C    0.960
    66   1 H    0.992 --    32 C    0.975
    67   1 H    0.998 --    32 C    0.982
    68   1 H    0.995 --    32 C    0.982
    69   1 H    0.994 --    33 C    0.977
    70   1 H    0.998 --    33 C    0.983
    71   1 H    0.994 --    33 C    0.980
    72   1 H    0.971 --     1 N    0.943
 ---------------------------------------------------------------------------

molecular dipole:
                 x           y           z       tot (Debye)
 q only:       -0.335      -0.294      -0.949
   full:       -0.128      -0.376      -1.149       3.089

           -------------------------------------------------
          | TOTAL ENERGY              -99.333691515075 Eh   |
          | GRADIENT NORM               0.003455726552 Eh/α |
          | HOMO-LUMO GAP               1.152364674645 eV   |
           -------------------------------------------------

 * finished run on 2024/04/06 at 11:15:04.794
