   * xtb version 6.6.1 (8d0f1dd) compiled by 'conda@1efc2f54142f' on 2023-08-01
          program call               : xtb xtbopt.xyz --opt crude --input .xc2 --gfn2

   ID    Z sym.   atoms
    1    7 N      1, 17
    2    6 C      2-6, 8, 9, 11-16, 18-23, 25, 26, 28-33
    3    8 O      7, 10, 24, 27
    4    1 H      34-72
########################################################################
[WARNING] Please study the warnings concerning your input carefully
-1- readin_getIntValue: could not parse ''
########################################################################

          :  Hamiltonian                  GFN2-xTB          :
 * total energy  :   -99.3339647 Eh     change       -0.2216893E-11 Eh
 * total energy  :   -99.3356373 Eh     change       -0.1672543E-02 Eh
 * total energy  :   -99.3364554 Eh     change       -0.8180725E-03 Eh
 * total energy  :   -99.3368550 Eh     change       -0.3996449E-03 Eh
   *** GEOMETRY OPTIMIZATION CONVERGED AFTER 4 ITERATIONS ***

 final structure:
================
72
 xtb: 6.6.1 (8d0f1dd)
N           -1.90000387156206        2.79537142141163        2.23961713971419
C           -1.85963849654725        2.11289222702543        1.19358875133863
C           -3.01897267014803        1.92161871077511        0.25242150458178
C           -3.51038794119797        0.49017859922640        0.35300202397189
C           -4.55848677230928        0.05513145903740       -0.62838879104217
C           -4.85546831079642       -1.41196400390588       -0.59049456053716
O           -5.55676430057403       -1.98292917400915       -1.55748782574902
C           -6.11169589014531       -1.36793502124318       -2.56517821312346
C           -4.42728529960366       -2.22606702212080        0.48415284540075
O           -4.90687644199902       -3.48959263069663        0.48064442750932
C           -4.62564433912883       -4.32456957649829        1.58348543818049
C           -3.56332348251498       -1.69782045661498        1.42462401189947
C           -3.09047133501771       -0.36787641476547        1.31142947010894
C           -2.46647759695116        2.20318466525607       -1.17130988483040
C           -1.53422831603431        1.11109696186199       -1.72834815512634
C           -0.19401149793158        1.09737376071017       -1.09889572909826
N            0.46840446429109        0.00056497253861       -0.73400047427331
C            1.85009271955204        0.08436750030721       -0.32667765138545
C            2.81246220423273       -0.33734083227695       -1.45385994282196
C            4.23209594011907       -0.14118426074120       -1.00119161530856
C            4.87327938492592        1.07038093712283       -1.19673857832433
C            6.16880610614202        1.26909858915793       -0.74438989624233
C            6.84735422748498        0.25803761333577       -0.08039189760720
O            8.10226898714861        0.33936719474174        0.40273104656398
C            8.82759669454230        1.53455031920460        0.22883526436924
C            6.19681307372765       -0.98894096826287        0.12650073447379
O            6.92952620660602       -1.91678174377033        0.77671148050335
C            6.37994103701732       -3.19217428106501        1.00328665597432
C            4.90172484278355       -1.16406831835162       -0.33337238700869
C           -0.12808352349586       -1.31154259026652       -0.79952766953560
C           -4.21021557203612        2.88594928031431        0.54713642544437
C           -4.87033979996012        2.56266878957031        1.88557235370704
C           -3.81482447284594        4.35947473887759        0.51507126902431
H           -5.48683259630137        0.61741562773193       -0.43427987553482
H           -6.15135465855247       -0.29013339824369       -2.64871203803727
H           -6.55877653267770       -2.00991506257397       -3.31082617446615
H           -4.25681782172052        0.32653082434490       -1.65107572978117
H           -4.96792076998234       -3.87505179736529        2.52041445806556
H           -5.17804284302968       -5.24415281705368        1.40159543558161
H           -3.55730595698256       -4.55131515093404        1.65436486166443
H           -3.22218638123810       -2.28993919024048        2.25537698207782
H           -2.37403204199249       -0.04000617558089        2.05002806653901
H           -3.30648983777184        2.32224725107779       -1.85594140109446
H           -1.92631531557455        3.15002596144200       -1.15417789100497
H           -2.00817467859434        0.13479319970445       -1.65065216985277
H           -1.39621712828896        1.33083581705663       -2.79582820632864
H           -0.94986612523435        1.60243534620133        0.82341392448520
H            0.35715521294637        2.02502591859956       -1.07316439746017
H            2.00731230556384       -0.55826203644085        0.54389256077433
H            2.07807518675801        1.11214580772760       -0.03700794650682
H            2.61295269128127        0.27633382941732       -2.33392793609475
H            2.63867162488558       -1.38220064399655       -1.71371081671415
H            4.36930362717792        1.87106652264594       -1.71660218670210
H            6.64414845270857        2.22034975131059       -0.91850245708576
H            8.33777298945725        2.37684558112299        0.72707638965409
H            8.96770017142718        1.76766507781985       -0.83098738661373
H            9.79705944747294        1.35711321522015        0.69032927361328
H            7.15478910277339       -3.75670331314327        1.51827383030004
H            5.48978908697800       -3.13917527639157        1.63867037951588
H            6.13039982188962       -3.69494767309917        0.06363769803779
H            4.40128333095719       -2.10859620042931       -0.18716700251850
H           -0.29916911860288       -1.61819688095790       -1.83418718399293
H           -1.08122810802323       -1.32586526398208       -0.26520993177120
H            0.53916401758861       -2.03131324299593       -0.33253638526850
H           -4.94525197432219        2.72624227402547       -0.25055689303928
H           -4.17037794727859        2.74657023845158        2.69372744309647
H           -5.19188003064639        1.52520636028383        1.93363967043242
H           -5.74007863974038        3.19871467223539        2.02725010983558
H           -3.06623128178171        4.56717953802841        1.27275004052830
H           -3.43458369878508        4.65711843411601       -0.45842172708213
H           -4.69136330699170        4.96561488647371        0.72859196341122
H           -1.04573063654632        2.87191706497462        2.78314992115831

          :  Hamiltonian                  GFN2-xTB          :
         :: total energy             -99.336855010276 Eh    ::
         :: gradient norm              0.009144466881 Eh/a0 ::
         :: HOMO-LUMO gap              1.134370574560 eV    ::
         :: SCC energy              -100.696538377719 Eh    ::
         :: -> dispersion             -0.074936693798 Eh    ::
         :: repulsion energy           1.358393075045 Eh    ::

    * Orbital Energies and Occupations

         #    Occupation            Energy/Eh            Energy/eV
      -------------------------------------------------------------
         1        2.0000           -0.8501137             -23.1328
       ...           ...                  ...                  ...
        78        1.9990           -0.5295825             -14.4107
        79        1.9989           -0.5274556             -14.3528
        80        1.9988           -0.5262218             -14.3192
        81        1.9986           -0.5235217             -14.2458
        82        1.9976           -0.5154556             -14.0263
        83        1.9975           -0.5146884             -14.0054
        84        1.9972           -0.5127192             -13.9518
        85        1.9970           -0.5117681             -13.9259
        86        1.9817           -0.4828274             -13.1384
        87        1.9798           -0.4812864             -13.0965
        88        1.9575           -0.4692942             -12.7701
        89        1.8668           -0.4504569             -12.2576
        90        1.5994           -0.4305751             -11.7165 (HOMO)
        91        0.4460           -0.3888878             -10.5822 (LUMO)
        92        0.1591           -0.3698891             -10.0652
        93        0.0206           -0.3363999              -9.1539
        94        0.0037           -0.3090379              -8.4093
        95        0.0032           -0.3066866              -8.3454
        96        0.0027           -0.3041990              -8.2777
        97        0.0000           -0.2271120              -6.1800
        98        0.0000           -0.1816521              -4.9430
        99                         -0.1309700              -3.5639
       100                         -0.0773446              -2.1047
       101                         -0.0683556              -1.8601
       ...                                ...                  ...
       171                          0.5828635              15.8605
      -------------------------------------------------------------
                  HL-Gap            0.0416874 Eh            1.1344 eV

     #   Z          covCN         q      C6AA      α(0)
     1   7 N        1.773    -0.273    27.912     7.823
     2   6 C        2.827     0.098    25.822     8.327
     3   6 C        3.906     0.005    20.430     6.425
     4   6 C        2.960    -0.008    28.227     8.714
     5   6 C        3.810    -0.074    21.902     6.662
     6   6 C        2.865     0.080    26.213     8.392
     7   8 O        1.711    -0.081    15.569     5.327
     8   6 C        2.740    -0.001    28.038     8.670
     9   6 C        2.850     0.132    25.099     8.211
    10   8 O        1.705    -0.243    18.025     5.732
    11   6 C        3.645     0.027    20.455     6.500
    12   6 C        2.911    -0.089    30.226     9.015
    13   6 C        2.906    -0.048    29.203     8.861
    14   6 C        3.811    -0.066    21.747     6.638
    15   6 C        3.802    -0.068    21.797     6.647
    16   6 C        2.842    -0.000    28.031     8.677
    17   7 N        2.729     0.004    21.191     6.837
    18   6 C        3.756    -0.015    20.903     6.519
    19   6 C        3.808    -0.070    21.836     6.652
    20   6 C        2.970    -0.002    28.063     8.689
    21   6 C        2.922    -0.050    29.238     8.867
    22   6 C        2.914    -0.068    29.700     8.937
    23   6 C        2.865     0.132    25.106     8.213
    24   8 O        1.706    -0.225    17.739     5.687
    25   6 C        3.645     0.026    20.469     6.502
    26   6 C        2.863     0.132    25.113     8.214
    27   8 O        1.706    -0.228    17.782     5.693
    28   6 C        3.645     0.028    20.432     6.497
    29   6 C        2.920    -0.080    30.005     8.983
    30   6 C        3.699    -0.068    21.968     6.703
    31   6 C        3.852    -0.007    20.673     6.467
    32   6 C        3.756    -0.120    22.860     6.817
    33   6 C        3.755    -0.119    22.827     6.812
    34   1 H        0.923     0.078     2.000     2.212
    35   1 H        0.925     0.053     2.281     2.362
    36   1 H        0.926     0.083     1.945     2.181
    37   1 H        0.923     0.062     2.173     2.305
    38   1 H        0.924     0.055     2.255     2.348
    39   1 H        0.925     0.080     1.978     2.199
    40   1 H        0.924     0.049     2.328     2.386
    41   1 H        0.926     0.052     2.297     2.370
    42   1 H        0.926     0.042     2.422     2.434
    43   1 H        0.925     0.054     2.266     2.354
    44   1 H        0.924     0.055     2.263     2.353
    45   1 H        0.925     0.062     2.175     2.307
    46   1 H        0.923     0.074     2.042     2.235
    47   1 H        0.922     0.007     2.945     2.684
    48   1 H        0.926     0.066     2.131     2.283
    49   1 H        0.924     0.065     2.139     2.287
    50   1 H        0.924     0.066     2.128     2.281
    51   1 H        0.924     0.054     2.273     2.358
    52   1 H        0.924     0.054     2.272     2.357
    53   1 H        0.926     0.043     2.404     2.425
    54   1 H        0.926     0.057     2.238     2.339
    55   1 H        0.924     0.052     2.290     2.366
    56   1 H        0.924     0.054     2.267     2.355
    57   1 H        0.925     0.081     1.972     2.196
    58   1 H        0.925     0.080     1.977     2.199
    59   1 H        0.924     0.047     2.361     2.403
    60   1 H        0.924     0.051     2.309     2.376
    61   1 H        0.926     0.045     2.381     2.413
    62   1 H        0.924     0.073     2.053     2.241
    63   1 H        0.924     0.076     2.021     2.223
    64   1 H        0.925     0.078     1.996     2.209
    65   1 H        0.924     0.032     2.564     2.504
    66   1 H        0.925     0.070     2.083     2.257
    67   1 H        0.925     0.034     2.535     2.490
    68   1 H        0.925     0.050     2.323     2.383
    69   1 H        0.925     0.061     2.184     2.311
    70   1 H        0.925     0.034     2.533     2.489
    71   1 H        0.925     0.054     2.273     2.358
    72   1 H        0.860     0.156     1.364     1.829

Wiberg/Mayer (AO) data.
largest (>0.10) Wiberg bond orders for each atom

     #   Z sym  total        # sym  WBO       # sym  WBO       # sym  WBO
 ---------------------------------------------------------------------------
     1   7 N    3.036 --     2 C    1.954    72 H    0.943
     2   6 C    3.923 --     1 N    1.954     3 C    0.992    47 H    0.901
     3   6 C    3.979 --     2 C    0.992     4 C    0.980    14 C    0.956
                            31 C    0.937
     4   6 C    3.836 --    13 C    1.641     5 C    1.019     3 C    0.980
     5   6 C    3.986 --     4 C    1.019     6 C    1.018    37 H    0.934
                            34 H    0.916
     6   6 C    3.768 --     9 C    1.243     7 O    1.166     5 C    1.018
                             8 C    0.220
     7   8 O    2.544 --     8 C    1.265     6 C    1.166
     8   6 C    3.564 --     7 O    1.265    36 H    0.969    35 H    0.969
                             6 C    0.220
     9   6 C    3.893 --    12 C    1.403     6 C    1.243    10 O    1.092
    10   8 O    2.251 --     9 C    1.092    11 C    0.975
    11   6 C    3.931 --    39 H    0.977    38 H    0.975    10 O    0.975
                            40 H    0.975
    12   6 C    3.808 --     9 C    1.403    13 C    1.247    41 H    0.966
    13   6 C    3.966 --     4 C    1.641    12 C    1.247    42 H    0.959
    14   6 C    3.969 --    15 C    0.983    44 H    0.972    43 H    0.969
                             3 C    0.956
    15   6 C    3.989 --    16 C    1.056    14 C    0.983    45 H    0.962
                            46 H    0.931
    16   6 C    3.558 --    17 N    1.377    15 C    1.056    48 H    0.958
    17   7 N    3.454 --    16 C    1.377    30 C    1.000    18 C    0.990
    18   6 C    3.957 --    17 N    0.990    50 H    0.968    19 C    0.967
                            49 H    0.964
    19   6 C    3.976 --    20 C    1.008    51 H    0.972    52 H    0.972
                            18 C    0.967
    20   6 C    3.949 --    21 C    1.413    29 C    1.378    19 C    1.008
    21   6 C    3.954 --    22 C    1.414    20 C    1.413    53 H    0.968
    22   6 C    3.962 --    21 C    1.414    23 C    1.387    54 H    0.963
    23   6 C    3.900 --    22 C    1.387    26 C    1.224    24 O    1.106
    24   8 O    2.255 --    23 C    1.106    25 C    0.977
    25   6 C    3.930 --    57 H    0.977    24 O    0.977    55 H    0.973
                            56 H    0.973
    26   6 C    3.903 --    29 C    1.398    23 C    1.224    27 O    1.099
    27   8 O    2.254 --    26 C    1.099    28 C    0.980
    28   6 C    3.934 --    27 O    0.980    58 H    0.977    59 H    0.974
                            60 H    0.974
    29   6 C    3.962 --    26 C    1.398    20 C    1.378    61 H    0.963
    30   6 C    3.960 --    17 N    1.000    64 H    0.978    62 H    0.967
                            63 H    0.964
    31   6 C    3.970 --    33 C    1.010    32 C    1.009    65 H    0.960
                             3 C    0.937
    32   6 C    3.983 --    31 C    1.009    68 H    0.982    67 H    0.982
                            66 H    0.976
    33   6 C    3.986 --    31 C    1.010    70 H    0.983    71 H    0.980
                            69 H    0.977
    34   1 H    0.965 --     5 C    0.916
    35   1 H    0.997 --     8 C    0.969
    36   1 H    0.992 --     8 C    0.969
    37   1 H    0.980 --     5 C    0.934
    38   1 H    0.994 --    11 C    0.975
    39   1 H    0.993 --    11 C    0.977
    40   1 H    0.995 --    11 C    0.975
    41   1 H    0.996 --    12 C    0.966
    42   1 H    0.998 --    13 C    0.959
    43   1 H    0.996 --    14 C    0.969
    44   1 H    0.996 --    14 C    0.972
    45   1 H    0.995 --    15 C    0.962
    46   1 H    0.969 --    15 C    0.931
    47   1 H    0.990 --     2 C    0.901
    48   1 H    0.995 --    16 C    0.958
    49   1 H    0.991 --    18 C    0.964
    50   1 H    0.994 --    18 C    0.968
    51   1 H    0.996 --    19 C    0.972
    52   1 H    0.996 --    19 C    0.972
    53   1 H    0.998 --    21 C    0.968
    54   1 H    0.995 --    22 C    0.963
    55   1 H    0.993 --    25 C    0.973
    56   1 H    0.992 --    25 C    0.973
    57   1 H    0.993 --    25 C    0.977
    58   1 H    0.993 --    28 C    0.977
    59   1 H    0.994 --    28 C    0.974
    60   1 H    0.994 --    28 C    0.974
    61   1 H    0.997 --    29 C    0.963
    62   1 H    0.985 --    30 C    0.967
    63   1 H    0.987 --    30 C    0.964
    64   1 H    0.994 --    30 C    0.978
    65   1 H    0.995 --    31 C    0.960
    66   1 H    0.992 --    32 C    0.976
    67   1 H    0.998 --    32 C    0.982
    68   1 H    0.995 --    32 C    0.982
    69   1 H    0.994 --    33 C    0.977
    70   1 H    0.998 --    33 C    0.983
    71   1 H    0.994 --    33 C    0.980
    72   1 H    0.972 --     1 N    0.943
 ---------------------------------------------------------------------------

molecular dipole:
                 x           y           z       tot (Debye)
 q only:       -0.422      -0.354      -0.981
   full:       -0.203      -0.421      -1.192       3.255

           -------------------------------------------------
          | TOTAL ENERGY              -99.336855010276 Eh   |
          | GRADIENT NORM               0.009144466881 Eh/α |
          | HOMO-LUMO GAP               1.134370574560 eV   |
           -------------------------------------------------

 * finished run on 2024/04/06 at 11:15:05.765
