   * xtb version 6.6.1 (8d0f1dd) compiled by 'conda@1efc2f54142f' on 2023-08-01
          program call               : xtb xtbopt.xyz --opt crude --input .xc2 --gfn2

   ID    Z sym.   atoms
    1    6 C      1, 3, 5-7, 10, 11, 14
    2    7 N      2, 4, 9, 13
    3    8 O      8, 12
    4    1 H      15-25
########################################################################
[WARNING] Please study the warnings concerning your input carefully
-1- readin_getIntValue: could not parse ''
########################################################################

          :  Hamiltonian                  GFN2-xTB          :
 * total energy  :   -42.2401549 Eh     change       -0.7105427E-14 Eh
   *** GEOMETRY OPTIMIZATION CONVERGED AFTER 1 ITERATIONS ***

 final structure:
================
25
 xtb: 6.6.1 (8d0f1dd)
C            3.34156038484694        1.30660019074051        0.01902680083371
N            2.42988805603162        0.19400314342546        0.00003731851707
C            2.73698123038207       -1.11639018030881       -0.00453138466034
N            1.67682848899454       -1.90014214863803       -0.00605272655735
C            0.63419149418525       -1.06206477976484       -0.00094878558160
C            1.06190900440941        0.26503871368309        0.00350096952609
C            0.15014335516548        1.36687783586396       -0.00241318364858
O            0.38103524990168        2.54491429174688       -0.01083526713345
N           -1.21161980508387        0.88866777263159       -0.00008186116157
C           -2.25998607890224        1.89814803941608       -0.00066733280132
C           -1.57933508294558       -0.39697791906550       -0.00074060315204
O           -2.87270427458071       -0.63154202388730       -0.00050952282663
N           -0.69668885278834       -1.40158202642112       -0.00230905285339
C           -1.06341425064975       -2.80671531533848       -0.00601728786313
H            3.84573599010526        1.36483457993792        0.98501002071840
H            4.09255399164916        1.18765879454923       -0.76138487334722
H            2.78364373086337        2.22660918484289       -0.14608937018018
H            3.73423125227820       -1.50469065601378       -0.00834460263236
H           -1.77493291541666        2.87254819198908        0.00685814291031
H           -2.87778579403285        1.79901574120356       -0.89171886650532
H           -2.88769375631853        1.78913367869022        0.88215832336646
H           -1.62609941098047       -3.06850512525020        0.89135611031602
H           -1.62981589929809       -3.06274223854921       -0.90285932788012
H           -3.10439576972021       -1.57468440389123       -0.00156816862324
H           -0.12379882399563       -3.35977479999197       -0.00970385088020

          :  Hamiltonian                  GFN2-xTB          :
         :: total energy             -42.240154860422 Eh    ::
         :: gradient norm              0.002920071252 Eh/a0 ::
         :: HOMO-LUMO gap              3.522689256877 eV    ::
         :: SCC energy               -42.760521313734 Eh    ::
         :: -> dispersion             -0.022624586622 Eh    ::
         :: repulsion energy           0.520263567234 Eh    ::

    * Orbital Energies and Occupations

         #    Occupation            Energy/Eh            Energy/eV
      -------------------------------------------------------------
         1        2.0000           -0.9362916             -25.4778
       ...           ...                  ...                  ...
        25        2.0000           -0.6586962             -17.9240
        26        2.0000           -0.6577931             -17.8995
        27        1.9999           -0.6501968             -17.6928
        28        1.9999           -0.6435670             -17.5123
        29        1.9999           -0.6422429             -17.4763
        30        1.9997           -0.6241572             -16.9842
        31        1.9996           -0.6211066             -16.9012
        32        1.9995           -0.6170099             -16.7897
        33        1.9979           -0.5936254             -16.1534
        34        1.9955           -0.5813981             -15.8206
        35        1.9930           -0.5744551             -15.6317
        36        1.9748           -0.5540631             -15.0768
        37        1.9738           -0.5534730             -15.0608 (HOMO)
        38        0.0415           -0.4240165             -11.5381 (LUMO)
        39        0.0246           -0.4155685             -11.3082
        40        0.0005           -0.3522354              -9.5848
        41        0.0000           -0.2849994              -7.7552
        42                         -0.2170587              -5.9065
        43                         -0.1706231              -4.6429
        44                         -0.1378720              -3.7517
        45                         -0.1266219              -3.4456
        46                         -0.0735603              -2.0017
        47                         -0.0547290              -1.4893
        48                         -0.0355729              -0.9680
       ...                                ...                  ...
        67                          0.5607528              15.2589
      -------------------------------------------------------------
                  HL-Gap            0.1294564 Eh            3.5227 eV

     #   Z          covCN         q      C6AA      α(0)
     1   6 C        3.689    -0.079    22.218     6.746
     2   7 N        2.842     0.040    20.539     6.731
     3   6 C        3.215     0.095    25.258     8.176
     4   7 N        1.897    -0.239    27.086     7.716
     5   6 C        3.234     0.116    24.664     8.060
     6   6 C        3.113    -0.023    28.414     8.732
     7   6 C        2.761     0.266    22.518     7.771
     8   8 O        0.857    -0.342    20.562     6.080
     9   7 N        2.746    -0.047    22.157     6.991
    10   6 C        3.706    -0.074    22.073     6.716
    11   6 C        2.754     0.275    22.350     7.742
    12   8 O        1.662    -0.309    19.172     5.911
    13   7 N        2.739    -0.026    21.742     6.925
    14   6 C        3.698    -0.083    22.254     6.747
    15   1 H        0.924     0.098     1.807     2.102
    16   1 H        0.925     0.097     1.814     2.106
    17   1 H        0.925     0.114     1.666     2.018
    18   1 H        0.927     0.102     1.770     2.080
    19   1 H        0.925     0.129     1.545     1.944
    20   1 H        0.925     0.101     1.778     2.085
    21   1 H        0.925     0.101     1.777     2.085
    22   1 H        0.924     0.093     1.847     2.125
    23   1 H        0.924     0.093     1.847     2.125
    24   1 H        0.804     0.365     0.554     1.170
    25   1 H        0.924     0.139     1.471     1.896

Wiberg/Mayer (AO) data.
largest (>0.10) Wiberg bond orders for each atom

     #   Z sym  total        # sym  WBO       # sym  WBO       # sym  WBO
 ---------------------------------------------------------------------------
     1   6 C    3.930 --     2 N    0.990    17 H    0.970    16 H    0.966
                            15 H    0.960
     2   7 N    3.673 --     3 C    1.315     6 C    1.187     1 C    0.990
     3   6 C    3.930 --     4 N    1.461     2 N    1.315    18 H    0.957
     4   7 N    3.015 --     3 C    1.461     5 C    1.325
     5   6 C    3.937 --     4 N    1.325     6 C    1.313    13 N    1.088
     6   6 C    3.932 --     5 C    1.313     2 N    1.187     7 C    1.117
     7   6 C    3.937 --     8 O    1.732     6 C    1.117     9 N    0.984
     8   8 O    2.084 --     7 C    1.732     9 N    0.127
     9   7 N    3.592 --    11 C    1.303     7 C    0.984    10 C    0.967
                             8 O    0.127
    10   6 C    3.910 --     9 N    0.967    21 H    0.965    20 H    0.964
                            19 H    0.963
    11   6 C    3.922 --     9 N    1.303    13 N    1.280    12 O    1.185
    12   8 O    2.233 --    11 C    1.185    24 H    0.834
    13   7 N    3.601 --    11 C    1.280     5 C    1.088    14 C    0.967
    14   6 C    3.917 --    13 N    0.967    23 H    0.967    22 H    0.966
                            25 H    0.961
    15   1 H    0.987 --     1 C    0.960
    16   1 H    0.988 --     1 C    0.966
    17   1 H    0.986 --     1 C    0.970
    18   1 H    0.988 --     3 C    0.957
    19   1 H    0.983 --    10 C    0.963
    20   1 H    0.987 --    10 C    0.964
    21   1 H    0.987 --    10 C    0.965
    22   1 H    0.989 --    14 C    0.966
    23   1 H    0.989 --    14 C    0.967
    24   1 H    0.866 --    12 O    0.834
    25   1 H    0.980 --    14 C    0.961
 ---------------------------------------------------------------------------

molecular dipole:
                 x           y           z       tot (Debye)
 q only:       -0.680      -1.414       0.009
   full:       -0.706      -1.516       0.016       4.250

           -------------------------------------------------
          | TOTAL ENERGY              -42.240154860422 Eh   |
          | GRADIENT NORM               0.002920071252 Eh/α |
          | HOMO-LUMO GAP               3.522689256877 eV   |
           -------------------------------------------------

 * finished run on 2024/06/05 at 20:00:21.876
