   * xtb version 6.6.1 (8d0f1dd) compiled by 'conda@1efc2f54142f' on 2023-08-01
          program call               : xtb xtbopt.xyz --opt crude --input .xc2 --gfn2

   ID    Z sym.   atoms
    1    6 C      1, 3, 5-7, 10, 11, 14
    2    7 N      2, 4, 9, 13
    3    8 O      8, 12
    4    1 H      15-25
########################################################################
[WARNING] Please study the warnings concerning your input carefully
-1- readin_getIntValue: could not parse ''
########################################################################

          :  Hamiltonian                  GFN2-xTB          :
 * total energy  :   -42.1669700 Eh     change       -0.2202682E-12 Eh
 * total energy  :   -42.1725337 Eh     change       -0.5563717E-02 Eh
 * total energy  :   -42.1749971 Eh     change       -0.2463368E-02 Eh
 * total energy  :   -42.1759321 Eh     change       -0.9350372E-03 Eh
 * total energy  :   -42.1766392 Eh     change       -0.7070268E-03 Eh
 * total energy  :   -42.1770261 Eh     change       -0.3869225E-03 Eh
   *** GEOMETRY OPTIMIZATION CONVERGED AFTER 6 ITERATIONS ***

 final structure:
================
25
 xtb: 6.6.1 (8d0f1dd)
C            3.11609379632023        0.26970531844382       -0.30856224354327
N            1.69953723036671        0.18187049056010       -0.11538009228429
C            3.88747086220252       -0.77505649884687        0.48359557077449
N            1.04750515030684       -0.97179686737666       -0.14940134310473
C           -0.24395178626224       -0.67528411781132       -0.05909281665801
C           -0.45855443882204        0.72958808326738        0.01970750689636
C            0.85863375673204        1.33157169744805       -0.00328528956012
O            1.26661187506924        2.46499252979858        0.05645561213866
N           -1.77385452844617        0.96554068125790        0.03779833344947
C           -2.46695082152114        2.21531215745555        0.05805943034451
C           -2.43568399756987       -0.29104260070312       -0.02364008127038
O           -3.61853223268092       -0.45119849805778       -0.03752692880291
N           -1.44708392562563       -1.28819078598977       -0.07218264694436
C           -1.75904655335734       -2.68802055066064       -0.14768170514167
H            3.75046119794061       -0.62778022334022        1.55517432721940
H            3.32963981977966        0.13995497429618       -1.38204788421683
H            3.40849145797056        1.29049869313992       -0.03595871623647
H            4.94665380767014       -0.68649093347196        0.24854490755524
H           -1.74862650713132        3.02765998601010        0.15092634939113
H           -3.04487305815198        2.33055830959236       -0.86292019122535
H           -3.17288996970744        2.23319446385458        0.89133896834355
H           -1.33716541895212       -3.21879648357428        0.70734208919935
H           -1.34819967370288       -3.12050874691296       -1.06173051312296
H           -2.84421907555898       -2.78914324357991       -0.14662023662935
H            3.54896454724574       -1.77889929317404        0.22825921132830

          :  Hamiltonian                  GFN2-xTB          :
         :: total energy             -42.177026089944 Eh    ::
         :: gradient norm              0.006020909302 Eh/a0 ::
         :: HOMO-LUMO gap              0.548127481964 eV    ::
         :: SCC energy               -42.676973680980 Eh    ::
         :: -> dispersion             -0.021105535775 Eh    ::
         :: repulsion energy           0.499911119848 Eh    ::

    * Orbital Energies and Occupations

         #    Occupation            Energy/Eh            Energy/eV
      -------------------------------------------------------------
         1        2.0000           -0.9120781             -24.8189
       ...           ...                  ...                  ...
        25        1.9997           -0.6804634             -18.5164
        26        1.9991           -0.6607789             -17.9807
        27        1.9976           -0.6453856             -17.5618
        28        1.9971           -0.6429150             -17.4946
        29        1.9954           -0.6354922             -17.2926
        30        1.9937           -0.6304438             -17.1552
        31        1.9925           -0.6276200             -17.0784
        32        1.9771           -0.6097355             -16.5917
        33        1.9745           -0.6080613             -16.5462
        34        1.9721           -0.6065972             -16.5063
        35        1.9371           -0.5934293             -16.1480
        36        1.8530           -0.5793002             -15.7636
        37        1.4552           -0.5547262             -15.0949 (HOMO)
        38        0.8561           -0.5345829             -14.5467 (LUMO)
        39        0.0003           -0.4021198             -10.9422
        40        0.0000           -0.3665908              -9.9754
        41        0.0000           -0.3361653              -9.1475
        42                         -0.2231427              -6.0720
        43                         -0.1909282              -5.1954
        44                         -0.1787998              -4.8654
        45                         -0.1087384              -2.9589
        46                         -0.0507129              -1.3800
        47                         -0.0450439              -1.2257
        48                         -0.0405169              -1.1025
       ...                                ...                  ...
        67                          0.5651243              15.3778
      -------------------------------------------------------------
                  HL-Gap            0.0201433 Eh            0.5481 eV

     #   Z          covCN         q      C6AA      α(0)
     1   6 C        3.738    -0.013    20.883     6.521
     2   7 N        3.006     0.069    20.035     6.648
     3   6 C        3.751    -0.123    22.922     6.828
     4   7 N        1.948    -0.138    24.748     7.377
     5   6 C        3.175     0.120    24.995     8.165
     6   6 C        3.120     0.009    27.634     8.609
     7   6 C        2.827     0.251    22.794     7.823
     8   8 O        0.856    -0.289    19.591     5.934
     9   7 N        2.790     0.011    21.059     6.816
    10   6 C        3.689    -0.070    22.044     6.720
    11   6 C        2.908     0.311    21.740     7.645
    12   8 O        0.857    -0.298    19.753     5.959
    13   7 N        2.788    -0.023    21.685     6.916
    14   6 C        3.688    -0.070    22.036     6.719
    15   1 H        0.924     0.093     1.847     2.125
    16   1 H        0.923     0.119     1.620     1.991
    17   1 H        0.924     0.120     1.614     1.987
    18   1 H        0.925     0.102     1.770     2.080
    19   1 H        0.925     0.117     1.639     2.002
    20   1 H        0.924     0.125     1.572     1.961
    21   1 H        0.924     0.127     1.562     1.954
    22   1 H        0.924     0.113     1.668     2.020
    23   1 H        0.924     0.113     1.670     2.021
    24   1 H        0.925     0.123     1.592     1.973
    25   1 H        0.925     0.101     1.780     2.086

Wiberg/Mayer (AO) data.
largest (>0.10) Wiberg bond orders for each atom

     #   Z sym  total        # sym  WBO       # sym  WBO       # sym  WBO
 ---------------------------------------------------------------------------
     1   6 C    3.884 --     3 C    1.000     2 N    0.991    17 H    0.940
                            16 H    0.905
     2   7 N    3.439 --     4 N    1.230     7 C    1.015     1 C    0.991
     3   6 C    3.887 --     1 C    1.000    18 H    0.959    25 H    0.953
                            15 H    0.953
     4   7 N    2.758 --     5 C    1.345     2 N    1.230
     5   6 C    3.859 --     4 N    1.345    13 N    1.202     6 C    1.159
     6   6 C    3.705 --     9 N    1.282     5 C    1.159     7 C    1.066
     7   6 C    3.864 --     8 O    1.699     6 C    1.066     2 N    1.015
     8   8 O    1.882 --     7 C    1.699
     9   7 N    3.492 --     6 C    1.282    11 C    1.021    10 C    1.002
    10   6 C    3.896 --     9 N    1.002    19 H    0.969    21 H    0.939
                            20 H    0.934
    11   6 C    3.918 --    12 O    1.732    13 N    1.072     9 N    1.021
    12   8 O    1.982 --    11 C    1.732    13 N    0.111
    13   7 N    3.490 --     5 C    1.202    11 C    1.072    14 C    0.989
                            12 O    0.111
    14   6 C    3.891 --    13 N    0.989    24 H    0.965    22 H    0.947
                            23 H    0.947
    15   1 H    0.962 --     3 C    0.953
    16   1 H    0.932 --     1 C    0.905
    17   1 H    0.968 --     1 C    0.940
    18   1 H    0.973 --     3 C    0.959
    19   1 H    0.983 --    10 C    0.969
    20   1 H    0.959 --    10 C    0.934
    21   1 H    0.962 --    10 C    0.939
    22   1 H    0.965 --    14 C    0.947
    23   1 H    0.964 --    14 C    0.947
    24   1 H    0.981 --    14 C    0.965
    25   1 H    0.964 --     3 C    0.953
 ---------------------------------------------------------------------------

molecular dipole:
                 x           y           z       tot (Debye)
 q only:        0.525      -0.693      -0.125
   full:        0.452      -0.544      -0.150       1.837

           -------------------------------------------------
          | TOTAL ENERGY              -42.177026089944 Eh   |
          | GRADIENT NORM               0.006020909302 Eh/α |
          | HOMO-LUMO GAP               0.548127481964 eV   |
           -------------------------------------------------

 * finished run on 2024/06/05 at 19:57:54.119
