   * xtb version 6.6.1 (8d0f1dd) compiled by 'conda@1efc2f54142f' on 2023-08-01
          program call               : xtb struc.xyz --opt loose --input .xc1 --gfn2

   ID    Z sym.   atoms
    1    6 C      1, 3, 5-7, 10, 11, 14
    2    7 N      2, 4, 9, 13
    3    8 O      8, 12
    4    1 H      15-25
constraining bond 12 22 to    4.6333300 Å, actual value:    3.4782509 Å

          :  Hamiltonian                  GFN2-xTB          :
 * total energy  :   -44.6275541 Eh     change       -0.6633627E-10 Eh
 * total energy  :   -48.5828762 Eh     change       -0.3955322E+01 Eh
 * total energy  :   -54.3740134 Eh     change       -0.5791137E+01 Eh
 * total energy  :   -62.1077932 Eh     change       -0.7733780E+01 Eh
 * total energy  :   -71.0615204 Eh     change       -0.8953727E+01 Eh
 * total energy  :   -43.8872029 Eh     change        0.2717432E+02 Eh
 * total energy  :   -67.5075909 Eh     change       -0.2362039E+02 Eh
 * total energy  :   -67.8326531 Eh     change       -0.3250621E+00 Eh
 * total energy  :   -68.8226473 Eh     change       -0.9899943E+00 Eh
 * total energy  :   -71.1365775 Eh     change       -0.2313930E+01 Eh
 * total energy  :   -72.1065707 Eh     change       -0.1587650E-04 Eh
 * total energy  :   -72.1066059 Eh     change       -0.3512136E-04 Eh
 * total energy  :   -72.1066310 Eh     change       -0.2511128E-04 Eh
 * total energy  :   -72.1066597 Eh     change       -0.2874499E-04 Eh
 * total energy  :   -72.1066912 Eh     change       -0.3147331E-04 Eh
 * total energy  :   -72.1067375 Eh     change       -0.4626170E-04 Eh
 * total energy  :   -72.1066808 Eh     change        0.5664019E-04 Eh
 * total energy  :   -72.1067938 Eh     change       -0.1129641E-03 Eh
 * total energy  :   -72.1068219 Eh     change       -0.2807289E-04 Eh
   *** GEOMETRY OPTIMIZATION CONVERGED AFTER 116 ITERATIONS ***

 final structure:
================
25
 xtb: 6.6.1 (8d0f1dd)
C            3.30464426386273        1.21376002029318        0.04687392001245
N            2.36977926048647        0.11931648620192        0.01504101137666
C            2.64729340700755       -1.17626475421641        0.01268178912453
N            1.50756744845409       -1.89329454119000       -0.02250841440669
C            0.45999364835952       -1.01201319342907       -0.03727170887377
C            1.00452997113420        0.26246443975481       -0.01421294527529
C            0.15805575578915        1.43613460935777        0.00775486628707
O            0.52389476543312        2.59195948719748        0.01996024972469
N           -1.19034949218501        1.05930357474091        0.01803338460168
C           -2.12227332723869        2.17289097964970        0.06613239989166
C           -1.72735746750862       -0.17182071513111       -0.02408638851602
O           -2.87711792784444       -2.50023690791410       -0.02160744137200
N           -0.86629486410841       -1.22860280906320       -0.06997690589240
C           -1.35012766404715       -2.59627591972112       -0.01952665385312
H            3.92205020059508        1.15934305767731        0.94345861274682
H            3.95215573169234        1.18647915086503       -0.82954402394162
H            2.74022577818892        2.14655036697774        0.05078433082484
H            3.63360028135734       -1.59636433583831        0.03430830862356
H           -1.85286994729404        2.90321449993503       -0.69540210104726
H           -3.12769685733411        1.79874129837937       -0.10031762999833
H           -2.06316229458975        2.66158738214902        1.03828159766378
H           -3.04753198473738       -2.30350551056049       -0.33384650663060
H           -1.12497344836806       -3.07237652201891       -0.98356787303209
H           -3.14048214659147       -2.44341137215651        0.93229588295964
H            1.42687842358869       -2.89934023033866       -0.00256614309939

          :  Hamiltonian                  GFN2-xTB          :
         :: total energy             -72.106821855088 Eh    ::
         :: gradient norm              0.003296584728 Eh/a0 ::
         :: HOMO-LUMO gap              1.702113685588 eV    ::
         :: SCC energy               -42.594751256464 Eh    ::
         :: -> dispersion             -0.022684445519 Eh    ::
         :: repulsion energy           2.388398023708 Eh    ::

    * Orbital Energies and Occupations

         #    Occupation            Energy/Eh            Energy/eV
      -------------------------------------------------------------
         1        2.0000           -0.9393169             -25.5601
       ...           ...                  ...                  ...
        25        2.0000           -0.6458752             -17.5752
        26        2.0000           -0.6432350             -17.5033
        27        2.0000           -0.6284139             -17.1000
        28        2.0000           -0.6185244             -16.8309
        29        2.0000           -0.6176623             -16.8074
        30        2.0000           -0.6010368             -16.3550
        31        2.0000           -0.5993101             -16.3081
        32        2.0000           -0.5813954             -15.8206
        33        2.0000           -0.5615610             -15.2809
        34        2.0000           -0.5431457             -14.7797
        35        2.0000           -0.5412115             -14.7271
        36        1.9952           -0.4923204             -13.3967
        37        1.9643           -0.4762828             -12.9603 (HOMO)
        38        0.0399           -0.4137312             -11.2582 (LUMO)
        39        0.0006           -0.3802613             -10.3474
        40        0.0000           -0.3547851              -9.6542
        41                         -0.2574918              -7.0067
        42                         -0.2198415              -5.9822
        43                         -0.1734746              -4.7205
        44                         -0.1550358              -4.2187
        45                         -0.1017667              -2.7692
        46                         -0.0969575              -2.6383
        47                         -0.0718489              -1.9551
        48                         -0.0408365              -1.1112
       ...                                ...                  ...
        67                          5.6834399             154.6543
      -------------------------------------------------------------
                  HL-Gap            0.0625515 Eh            1.7021 eV

     #   Z          covCN         q      C6AA      α(0)
     1   6 C        3.691    -0.089    22.388     6.771
     2   7 N        2.837     0.072    19.980     6.639
     3   6 C        3.062     0.060    26.597     8.457
     4   7 N        2.794    -0.067    22.527     7.049
     5   6 C        3.067     0.107    25.583     8.294
     6   6 C        3.125    -0.015    28.201     8.696
     7   6 C        2.773     0.258    22.652     7.795
     8   8 O        0.857    -0.409    21.866     6.269
     9   7 N        2.752    -0.020    21.639     6.909
    10   6 C        3.720    -0.060    21.768     6.664
    11   6 C        1.889    -0.154    35.516     9.625
    12   8 O        2.435    -0.252    18.147     5.753
    13   7 N        2.744    -0.006    21.373     6.866
    14   6 C        2.686    -0.146    31.719     9.217
    15   1 H        0.925     0.100     1.788     2.091
    16   1 H        0.925     0.100     1.785     2.089
    17   1 H        0.924     0.135     1.497     1.913
    18   1 H        0.926     0.116     1.644     2.005
    19   1 H        0.925     0.089     1.893     2.151
    20   1 H        0.925     0.084     1.939     2.178
    21   1 H        0.925     0.082     1.963     2.191
    22   1 H        0.817     0.375     0.532     1.145
    23   1 H        0.923     0.031     2.570     2.507
    24   1 H        0.801     0.381     0.521     1.134
    25   1 H        0.860     0.229     0.970     1.543

Wiberg/Mayer (AO) data.
largest (>0.10) Wiberg bond orders for each atom

     #   Z sym  total        # sym  WBO       # sym  WBO       # sym  WBO
 ---------------------------------------------------------------------------
     1   6 C    3.921 --     2 N    0.985    15 H    0.962    16 H    0.962
                            17 H    0.962
     2   7 N    3.704 --     3 C    1.406     6 C    1.157     1 C    0.985
     3   6 C    3.911 --     2 N    1.406     4 N    1.301    18 H    0.954
     4   7 N    3.600 --     3 C    1.301     5 C    1.163    25 H    0.919
     5   6 C    3.957 --     6 C    1.351    13 N    1.210     4 N    1.163
     6   6 C    3.931 --     5 C    1.351     2 N    1.157     7 C    1.083
     7   6 C    3.963 --     8 O    1.665     9 N    1.087     6 C    1.083
     8   8 O    2.013 --     7 C    1.665     9 N    0.141
     9   7 N    3.655 --    11 C    1.343     7 C    1.087    10 C    0.987
                             8 O    0.141
    10   6 C    3.949 --     9 N    0.987    20 H    0.979    19 H    0.969
                            21 H    0.967
    11   6 C    2.879 --     9 N    1.343    13 N    1.248
    12   8 O    2.482 --    22 H    0.856    24 H    0.843    14 C    0.756
    13   7 N    3.641 --    11 C    1.248     5 C    1.210    14 C    0.976
    14   6 C    2.845 --    13 N    0.976    23 H    0.956    12 O    0.756
    15   1 H    0.989 --     1 C    0.962
    16   1 H    0.989 --     1 C    0.962
    17   1 H    0.982 --     1 C    0.962
    18   1 H    0.985 --     3 C    0.954
    19   1 H    0.992 --    10 C    0.969
    20   1 H    0.992 --    10 C    0.979
    21   1 H    0.993 --    10 C    0.967
    22   1 H    0.859 --    12 O    0.856
    23   1 H    0.993 --    14 C    0.956
    24   1 H    0.854 --    12 O    0.843
    25   1 H    0.947 --     4 N    0.919
 ---------------------------------------------------------------------------

molecular dipole:
                 x           y           z       tot (Debye)
 q only:        0.148      -2.916       0.440
   full:        0.499      -2.888       0.086       7.453

           -------------------------------------------------
          | TOTAL ENERGY              -72.106821855088 Eh   |
          | GRADIENT NORM               0.003296584728 Eh/α |
          | HOMO-LUMO GAP               1.702113685588 eV   |
           -------------------------------------------------

 * finished run on 2024/06/05 at 19:57:57.340
