   * xtb version 6.6.1 (8d0f1dd) compiled by 'conda@1efc2f54142f' on 2023-08-01
          program call               : xtb xtbopt.xyz --opt crude --input .xc2 --gfn2

   ID    Z sym.   atoms
    1    6 C      1, 3, 5-7, 10, 11, 14
    2    7 N      2, 4, 9, 13
    3    8 O      8, 12
    4    1 H      15-25
########################################################################
[WARNING] Please study the warnings concerning your input carefully
-1- readin_getIntValue: could not parse ''
########################################################################

          :  Hamiltonian                  GFN2-xTB          :
 * total energy  :   -40.2062527 Eh     change       -0.7105427E-14 Eh
 * total energy  :   -42.0426685 Eh     change       -0.1836416E+01 Eh
 * total energy  :   -42.0601420 Eh     change       -0.1747354E-01 Eh
 * total energy  :   -42.0643244 Eh     change       -0.4182409E-02 Eh
 * total energy  :   -42.0675313 Eh     change       -0.3206906E-02 Eh
 * total energy  :   -42.0681612 Eh     change       -0.6298379E-03 Eh
 * total energy  :   -42.0684364 Eh     change       -0.2752166E-03 Eh
 * total energy  :   -42.0686775 Eh     change       -0.2410898E-03 Eh
 * total energy  :   -42.0688564 Eh     change       -0.1789808E-03 Eh
 * total energy  :   -42.0689490 Eh     change       -0.9253465E-04 Eh
 * total energy  :   -42.0691081 Eh     change       -0.1591184E-03 Eh
 * total energy  :   -42.0692005 Eh     change       -0.9241539E-04 Eh
   *** GEOMETRY OPTIMIZATION CONVERGED AFTER 12 ITERATIONS ***

 final structure:
================
25
 xtb: 6.6.1 (8d0f1dd)
C            3.29003821798552        1.22213636692926        0.03626663687219
N            2.36793630935149        0.11691757640891        0.00819055983422
C            2.66230322457451       -1.17593765135983       -0.00048270145620
N            1.53136037451086       -1.90774664454818       -0.02790436821812
C            0.47142798778264       -1.04065736931346       -0.02975854651535
C            0.99972911188145        0.24060043906864       -0.01076062004067
C            0.14210402059507        1.40326987592740        0.02199406213619
O            0.49500981409758        2.56420725902265        0.04481306227590
N           -1.20313773161048        1.01411014153861        0.03190832374194
C           -2.13935807025016        2.12320947287298        0.09039841513458
C           -1.72976246867895       -0.22427854022818        0.00289118256079
O           -2.81703675640510       -2.57043788993340        0.05846317319486
N           -0.85407440030493       -1.27435700696580       -0.04216375427525
C           -1.34249818324489       -2.62230003973664        0.05628440809069
H            3.92307384467269        1.16425763895696        0.92157768680583
H            3.92236985678349        1.21337526222021       -0.85145212750065
H            2.71448362362157        2.14760736050220        0.06126264636986
H            3.65367807294845       -1.58380537341392        0.01253028883386
H           -1.91609150458086        2.82835192491993       -0.70978376373640
H           -3.15090890761005        1.74219045732460       -0.00954230446573
H           -2.02724616925644        2.64862130993405        1.03946126565500
H           -3.17515240323751       -2.03647990227476       -0.70315017616259
H           -1.06219223905306       -3.18827276256080       -0.83455041109202
H           -3.06596061328715       -2.07139760187731        0.86350858855519
H            1.47033650281624       -2.91494576181281        0.00117009130080

          :  Hamiltonian                  GFN2-xTB          :
         :: total energy             -42.069200512327 Eh    ::
         :: gradient norm              0.009107398482 Eh/a0 ::
         :: HOMO-LUMO gap              1.546892425687 eV    ::
         :: SCC energy               -42.564864718027 Eh    ::
         :: -> dispersion             -0.022744132504 Eh    ::
         :: repulsion energy           0.495558065377 Eh    ::

    * Orbital Energies and Occupations

         #    Occupation            Energy/Eh            Energy/eV
      -------------------------------------------------------------
         1        2.0000           -0.9073452             -24.6901
       ...           ...                  ...                  ...
        25        2.0000           -0.6469849             -17.6054
        26        2.0000           -0.6447563             -17.5447
        27        2.0000           -0.6304543             -17.1555
        28        2.0000           -0.6198952             -16.8682
        29        2.0000           -0.6180905             -16.8191
        30        2.0000           -0.6038693             -16.4321
        31        2.0000           -0.5994183             -16.3110
        32        2.0000           -0.5852144             -15.9245
        33        2.0000           -0.5633044             -15.3283
        34        2.0000           -0.5443156             -14.8116
        35        2.0000           -0.5430232             -14.7764
        36        1.9982           -0.4979346             -13.5495
        37        1.9467           -0.4707430             -12.8096 (HOMO)
        38        0.0541           -0.4138958             -11.2627 (LUMO)
        39        0.0010           -0.3822593             -10.4018
        40        0.0000           -0.3558535              -9.6833
        41                         -0.2588835              -7.0446
        42                         -0.2086590              -5.6779
        43                         -0.1760389              -4.7903
        44                         -0.1554043              -4.2288
        45                         -0.1007396              -2.7413
        46                         -0.0939566              -2.5567
        47                         -0.0740935              -2.0162
        48                         -0.0346133              -0.9419
       ...                                ...                  ...
        67                          0.5523115              15.0292
      -------------------------------------------------------------
                  HL-Gap            0.0568473 Eh            1.5469 eV

     #   Z          covCN         q      C6AA      α(0)
     1   6 C        3.691    -0.088    22.381     6.770
     2   7 N        2.836     0.071    20.012     6.644
     3   6 C        3.060     0.059    26.612     8.460
     4   7 N        2.794    -0.068    22.546     7.052
     5   6 C        3.062     0.105    25.613     8.299
     6   6 C        3.125    -0.014    28.178     8.692
     7   6 C        2.774     0.256    22.691     7.802
     8   8 O        0.857    -0.413    21.941     6.280
     9   7 N        2.752    -0.021    21.659     6.912
    10   6 C        3.720    -0.059    21.758     6.662
    11   6 C        1.888    -0.171    36.025     9.694
    12   8 O        2.444    -0.225    17.702     5.682
    13   7 N        2.744    -0.012    21.485     6.884
    14   6 C        2.699    -0.117    30.936     9.103
    15   1 H        0.925     0.099     1.792     2.093
    16   1 H        0.925     0.100     1.788     2.091
    17   1 H        0.925     0.135     1.498     1.914
    18   1 H        0.926     0.116     1.648     2.007
    19   1 H        0.925     0.088     1.902     2.157
    20   1 H        0.925     0.080     1.978     2.199
    21   1 H        0.924     0.083     1.945     2.181
    22   1 H        0.800     0.360     0.566     1.182
    23   1 H        0.924     0.030     2.588     2.516
    24   1 H        0.803     0.378     0.526     1.140
    25   1 H        0.860     0.228     0.975     1.546

Wiberg/Mayer (AO) data.
largest (>0.10) Wiberg bond orders for each atom

     #   Z sym  total        # sym  WBO       # sym  WBO       # sym  WBO
 ---------------------------------------------------------------------------
     1   6 C    3.921 --     2 N    0.985    15 H    0.963    16 H    0.962
                            17 H    0.962
     2   7 N    3.696 --     3 C    1.401     6 C    1.155     1 C    0.985
     3   6 C    3.899 --     2 N    1.401     4 N    1.299    18 H    0.954
     4   7 N    3.595 --     3 C    1.299     5 C    1.163    25 H    0.920
     5   6 C    3.956 --     6 C    1.353    13 N    1.203     4 N    1.163
     6   6 C    3.931 --     5 C    1.353     2 N    1.155     7 C    1.086
     7   6 C    3.961 --     8 O    1.658     6 C    1.086     9 N    1.086
     8   8 O    2.000 --     7 C    1.658     9 N    0.141
     9   7 N    3.653 --    11 C    1.339     7 C    1.086    10 C    0.989
                             8 O    0.141
    10   6 C    3.950 --     9 N    0.989    20 H    0.980    19 H    0.969
                            21 H    0.967
    11   6 C    2.908 --     9 N    1.339    13 N    1.238
    12   8 O    2.504 --    24 H    0.835    22 H    0.827    14 C    0.808
    13   7 N    3.639 --    11 C    1.238     5 C    1.203    14 C    0.996
    14   6 C    2.962 --    13 N    0.996    23 H    0.954    12 O    0.808
    15   1 H    0.989 --     1 C    0.963
    16   1 H    0.988 --     1 C    0.962
    17   1 H    0.982 --     1 C    0.962
    18   1 H    0.985 --     3 C    0.954
    19   1 H    0.992 --    10 C    0.969
    20   1 H    0.993 --    10 C    0.980
    21   1 H    0.992 --    10 C    0.967
    22   1 H    0.868 --    12 O    0.827
    23   1 H    0.992 --    14 C    0.954
    24   1 H    0.856 --    12 O    0.835
    25   1 H    0.948 --     4 N    0.920
 ---------------------------------------------------------------------------

molecular dipole:
                 x           y           z       tot (Debye)
 q only:        0.052      -2.621       0.088
   full:        0.498      -2.558      -0.266       6.658

           -------------------------------------------------
          | TOTAL ENERGY              -42.069200512327 Eh   |
          | GRADIENT NORM               0.009107398482 Eh/α |
          | HOMO-LUMO GAP               1.546892425687 eV   |
           -------------------------------------------------

 * finished run on 2024/06/05 at 19:57:58.011
