   * xtb version 6.6.1 (8d0f1dd) compiled by 'conda@1efc2f54142f' on 2023-08-01
          program call               : xtb struc.xyz --opt loose --input .xc1 --gfn2

   ID    Z sym.   atoms
    1    6 C      1, 3, 5-7, 10, 11, 14
    2    7 N      2, 4, 9, 13
    3    8 O      8, 12
    4    1 H      15-25
constraining bond 6 10 to    6.0000000 Å, actual value:    3.7045483 Å

          :  Hamiltonian                  GFN2-xTB          :
 * total energy  :    -4.6152821 Eh     change       -0.6650680E-10 Eh
 * total energy  :   -23.2749504 Eh     change       -0.1865967E+02 Eh
 * total energy  :   -33.7044244 Eh     change       -0.1042947E+02 Eh
 * total energy  :   -39.3122100 Eh     change       -0.5607786E+01 Eh
 * total energy  :   -41.2051463 Eh     change       -0.1892936E+01 Eh
 * total energy  :   -41.4191328 Eh     change       -0.2139865E+00 Eh
 * total energy  :   -41.4805961 Eh     change       -0.6146326E-01 Eh
 * total energy  :   -41.5531285 Eh     change       -0.7253238E-01 Eh
 * total energy  :   -41.5738889 Eh     change       -0.2076045E-01 Eh
 * total energy  :   -41.6324345 Eh     change       -0.5854558E-01 Eh
 * total energy  :   -42.0279832 Eh     change       -0.6922899E-03 Eh
 * total energy  :   -42.0294096 Eh     change       -0.1426469E-02 Eh
 * total energy  :   -42.0303729 Eh     change       -0.9632812E-03 Eh
 * total energy  :   -42.0308344 Eh     change       -0.4614463E-03 Eh
 * total energy  :   -42.0312972 Eh     change       -0.4628105E-03 Eh
 * total energy  :   -42.0316551 Eh     change       -0.3579174E-03 Eh
 * total energy  :   -42.0318007 Eh     change       -0.1456321E-03 Eh
 * total energy  :   -42.0318708 Eh     change       -0.7005204E-04 Eh
 * total energy  :   -42.0318989 Eh     change       -0.2814176E-04 Eh
   *** GEOMETRY OPTIMIZATION CONVERGED AFTER 74 ITERATIONS ***

 final structure:
================
25
 xtb: 6.6.1 (8d0f1dd)
C            3.99059704333347        0.44422082687569       -0.55900711151231
N            2.79004390065406       -0.34437212744529       -0.55788241484052
C            2.47879366275935       -1.19086797011017        0.55969698636611
N            1.28920746539340       -1.98247678593488        0.21850007277525
C            0.53846678182186       -0.88286105560880       -0.01032955197436
C            1.68994852000231        0.06154516869162        0.31074306834305
C            0.96854313542246        1.41637897027685        0.70388598208537
O            1.58016491266544        2.34344608209818        1.13905312785137
N           -0.41315868319620        1.50424118003618        0.47849745550155
C           -4.10485120203054        1.54314528146863       -0.02912414423611
C           -1.31530957990623        0.66048697577458        0.11587320699533
O           -2.62737829067162        0.71073255894646       -0.05988562791623
N           -0.77419897499781       -0.69884482798386       -0.13861859625552
C           -1.64290630965854       -1.84688744659940       -0.34221384665798
H            4.28146505497864        0.79693794641424        0.43619015274991
H            4.78970108733335       -0.16531311723679       -0.97950876119941
H            3.82642256874674        1.30621881791642       -1.20425181099461
H            3.13984466610658       -1.47439565750028        1.35950227283601
H           -3.88040944635563        2.59278032935145        0.10068724984998
H           -4.48113718007439        1.26845972403762       -1.00321066463148
H           -4.59132893719165        1.07190207827847        0.81130997024445
H           -1.45669815307962       -2.59904725474446        0.42537861576387
H           -1.46727125457570       -2.27953073130060       -1.32701675142024
H           -2.67523775288009       -1.51229040723603       -0.28098821133947
H            1.22711847949129       -2.92537001685966       -0.13610905047177

          :  Hamiltonian                  GFN2-xTB          :
         :: total energy             -42.031898911838 Eh    ::
         :: gradient norm              0.002655181587 Eh/a0 ::
         :: HOMO-LUMO gap              2.033733523826 eV    ::
         :: SCC energy               -42.492053087958 Eh    ::
         :: -> dispersion             -0.020588500561 Eh    ::
         :: repulsion energy           0.459501619667 Eh    ::

    * Orbital Energies and Occupations

         #    Occupation            Energy/Eh            Energy/eV
      -------------------------------------------------------------
         1        2.0000           -0.8913815             -24.2557
       ...           ...                  ...                  ...
        25        1.9999           -0.6590748             -17.9343
        26        1.9999           -0.6470866             -17.6081
        27        1.9999           -0.6454802             -17.5644
        28        1.9998           -0.6387446             -17.3811
        29        1.9996           -0.6275339             -17.0761
        30        1.9994           -0.6188319             -16.8393
        31        1.9990           -0.6112822             -16.6338
        32        1.9983           -0.6033985             -16.4193
        33        1.9960           -0.5900528             -16.0562
        34        1.9901           -0.5755314             -15.6610
        35        1.9825           -0.5664058             -15.4127
        36        1.9409           -0.5468107             -14.8795
        37        1.8631           -0.5328555             -14.4997 (HOMO)
        38        0.2163           -0.4581172             -12.4660 (LUMO)
        39        0.0100           -0.4077606             -11.0957
        40        0.0052           -0.3973300             -10.8119
        41        0.0002           -0.3423625              -9.3162
        42        0.0000           -0.2750995              -7.4858
        43        0.0000           -0.2366591              -6.4398
        44                         -0.2025960              -5.5129
        45                         -0.1901228              -5.1735
        46                         -0.1272947              -3.4639
        47                         -0.1121491              -3.0517
        48                         -0.0840012              -2.2858
       ...                                ...                  ...
        67                          0.5353542              14.5677
      -------------------------------------------------------------
                  HL-Gap            0.0747383 Eh            2.0337 eV

     #   Z          covCN         q      C6AA      α(0)
     1   6 C        3.690    -0.052    21.695     6.666
     2   7 N        2.736    -0.116    23.521     7.203
     3   6 C        4.118     0.111    18.681     6.139
     4   7 N        2.888    -0.129    23.798     7.245
     5   6 C        3.238     0.142    24.112     7.964
     6   6 C        4.037     0.023    20.114     6.371
     7   6 C        2.747     0.296    21.971     7.675
     8   8 O        0.858    -0.267    19.187     5.873
     9   7 N        1.831    -0.254    27.467     7.766
    10   6 C        3.458     0.011    22.706     7.182
    11   6 C        2.690     0.319    21.582     7.603
    12   8 O        1.537    -0.277    18.689     5.832
    13   7 N        2.733    -0.034    21.896     6.950
    14   6 C        3.697    -0.074    22.086     6.722
    15   1 H        0.924     0.073     2.057     2.243
    16   1 H        0.925     0.096     1.826     2.113
    17   1 H        0.925     0.098     1.808     2.103
    18   1 H        0.926     0.103     1.759     2.074
    19   1 H        0.926     0.136     1.487     1.907
    20   1 H        0.926     0.143     1.443     1.879
    21   1 H        0.926     0.140     1.464     1.892
    22   1 H        0.924     0.091     1.872     2.140
    23   1 H        0.925     0.095     1.828     2.114
    24   1 H        0.925     0.115     1.658     2.014
    25   1 H        0.860     0.213     1.044     1.600

Wiberg/Mayer (AO) data.
largest (>0.10) Wiberg bond orders for each atom

     #   Z sym  total        # sym  WBO       # sym  WBO       # sym  WBO
 ---------------------------------------------------------------------------
     1   6 C    3.935 --     2 N    1.010    17 H    0.964    15 H    0.961
                            16 H    0.959
     2   7 N    3.013 --     1 C    1.010     3 C    0.973     6 C    0.895
     3   6 C    3.862 --     2 N    0.973     4 N    0.969    18 H    0.950
                             6 C    0.860
     4   7 N    3.416 --     5 C    1.300     3 C    0.969    25 H    0.920
                            13 N    0.105
     5   6 C    3.815 --    13 N    1.372     4 N    1.300     6 C    0.990
     6   6 C    3.838 --     5 C    0.990     2 N    0.895     7 C    0.878
                             3 C    0.860
     7   6 C    3.917 --     8 O    1.830     9 N    1.120     6 C    0.878
     8   8 O    2.116 --     7 C    1.830
     9   7 N    3.081 --    11 C    1.561     7 C    1.120    12 O    0.143
    10   6 C    3.752 --    19 H    0.977    21 H    0.972    20 H    0.972
                            12 O    0.770
    11   6 C    3.885 --     9 N    1.561    12 O    1.264    13 N    0.934
    12   8 O    2.287 --    11 C    1.264    10 C    0.770     9 N    0.143
    13   7 N    3.581 --     5 C    1.372    14 C    0.970    11 C    0.934
                             4 N    0.105
    14   6 C    3.926 --    13 N    0.970    24 H    0.968    22 H    0.967
                            23 H    0.966
    15   1 H    0.974 --     1 C    0.961
    16   1 H    0.984 --     1 C    0.959
    17   1 H    0.985 --     1 C    0.964
    18   1 H    0.986 --     3 C    0.950
    19   1 H    0.981 --    10 C    0.977
    20   1 H    0.978 --    10 C    0.972
    21   1 H    0.979 --    10 C    0.972
    22   1 H    0.989 --    14 C    0.967
    23   1 H    0.988 --    14 C    0.966
    24   1 H    0.986 --    14 C    0.968
    25   1 H    0.952 --     4 N    0.920
 ---------------------------------------------------------------------------

molecular dipole:
                 x           y           z       tot (Debye)
 q only:       -1.103      -1.751      -0.387
   full:       -0.895      -2.261      -0.356       6.247

           -------------------------------------------------
          | TOTAL ENERGY              -42.031898911838 Eh   |
          | GRADIENT NORM               0.002655181587 Eh/α |
          | HOMO-LUMO GAP               2.033733523826 eV   |
           -------------------------------------------------

 * finished run on 2024/06/05 at 20:00:14.265
