   * xtb version 6.6.1 (8d0f1dd) compiled by 'conda@1efc2f54142f' on 2023-08-01
          program call               : xtb xtbopt.xyz --opt crude --input .xc2 --gfn2

   ID    Z sym.   atoms
    1    6 C      1, 3, 5-7, 10, 11, 14
    2    7 N      2, 4, 9, 13
    3    8 O      8, 12
    4    1 H      15-25
########################################################################
[WARNING] Please study the warnings concerning your input carefully
-1- readin_getIntValue: could not parse ''
########################################################################

          :  Hamiltonian                  GFN2-xTB          :
 * total energy  :   -42.0324960 Eh     change        0.8526513E-13 Eh
 * total energy  :   -42.0601970 Eh     change       -0.2770093E-01 Eh
 * total energy  :   -42.0813620 Eh     change       -0.2116507E-01 Eh
 * total energy  :   -42.0886434 Eh     change       -0.7281340E-02 Eh
 * total energy  :   -42.0947104 Eh     change       -0.6066984E-02 Eh
 * total energy  :   -42.0993551 Eh     change       -0.4644726E-02 Eh
 * total energy  :   -42.1032198 Eh     change       -0.3864742E-02 Eh
 * total energy  :   -42.1053858 Eh     change       -0.2165955E-02 Eh
 * total energy  :   -42.1064515 Eh     change       -0.1065669E-02 Eh
 * total energy  :   -42.1066870 Eh     change       -0.2355589E-03 Eh
 * total energy  :   -42.1070185 Eh     change       -0.3314622E-03 Eh
 * total energy  :   -42.1071432 Eh     change       -0.1246696E-03 Eh
   *** GEOMETRY OPTIMIZATION CONVERGED AFTER 12 ITERATIONS ***

 final structure:
================
25
 xtb: 6.6.1 (8d0f1dd)
C            3.64622995636940        0.69912569163925       -0.52420351787954
N            2.59127066552270       -0.27148494159466       -0.51750190631252
C            2.34787163245544       -1.05878496818660        0.63299890854137
N            1.32235176036935       -2.06537137645891        0.30962665250659
C            0.43745143069271       -1.10133818005829       -0.03379224472499
C            1.34236126579806        0.01894008962444        0.23810605076255
C            0.73345394249420        1.33200281891222        0.61923150855223
O            1.33929612790670        2.27755134809008        1.03262181257621
N           -0.62287903492028        1.31419597491132        0.38696079032927
C           -3.29251098855405        1.67952712250311        0.02869887614724
C           -1.34985204332500        0.33344564846574        0.00091782260955
O           -2.62694802948631        0.43052096863283       -0.22364239930236
N           -0.86574567297298       -0.99520903976346       -0.19402269027304
C           -1.74244094441451       -2.13234340226007       -0.40084261879344
H            3.84871997640261        1.13527777448189        0.45867904268653
H            4.53969354634615        0.19760021014846       -0.89412574996122
H            3.37812905386024        1.49267666238966       -1.21886039295676
H            2.96776962418925       -1.14990138013634        1.50861091722690
H           -2.57982825015492        2.49411171836688        0.14441201694068
H           -3.96078176512540        1.85997939652515       -0.81115701611993
H           -3.86928367880187        1.55867494730084        0.94112677465476
H           -1.51694314575090       -2.90680678160567        0.33221789173489
H           -1.60017094798110       -2.53117112186037       -1.40562239502376
H           -2.77481533481559       -1.81170840378957       -0.29046773115114
H            1.46803236798555       -2.98127223467355       -0.08879878485811

          :  Hamiltonian                  GFN2-xTB          :
         :: total energy             -42.107143150448 Eh    ::
         :: gradient norm              0.006464318746 Eh/a0 ::
         :: HOMO-LUMO gap              2.051652416817 eV    ::
         :: SCC energy               -42.595727649569 Eh    ::
         :: -> dispersion             -0.021394325808 Eh    ::
         :: repulsion energy           0.488493023241 Eh    ::

    * Orbital Energies and Occupations

         #    Occupation            Energy/Eh            Energy/eV
      -------------------------------------------------------------
         1        2.0000           -0.9141764             -24.8760
       ...           ...                  ...                  ...
        25        1.9999           -0.6684065             -18.1883
        26        1.9999           -0.6568144             -17.8728
        27        1.9998           -0.6464588             -17.5910
        28        1.9997           -0.6429831             -17.4965
        29        1.9996           -0.6345212             -17.2662
        30        1.9988           -0.6190430             -16.8450
        31        1.9984           -0.6138189             -16.7029
        32        1.9982           -0.6120654             -16.6551
        33        1.9945           -0.5946034             -16.1800
        34        1.9881           -0.5823020             -15.8452
        35        1.9873           -0.5811621             -15.8142
        36        1.9389           -0.5559424             -15.1280
        37        1.8698           -0.5433840             -14.7862 (HOMO)
        38        0.2187           -0.4679871             -12.7346 (LUMO)
        39        0.0083           -0.4143528             -11.2751
        40        0.0001           -0.3504162              -9.5353
        41        0.0000           -0.2642361              -7.1902
        42                         -0.2238708              -6.0918
        43                         -0.2096356              -5.7045
        44                         -0.1729762              -4.7069
        45                         -0.1487818              -4.0486
        46                         -0.1214329              -3.3044
        47                         -0.0751178              -2.0441
        48                         -0.0726694              -1.9774
       ...                                ...                  ...
        67                          0.5475123              14.8986
      -------------------------------------------------------------
                  HL-Gap            0.0753968 Eh            2.0517 eV

     #   Z          covCN         q      C6AA      α(0)
     1   6 C        3.690    -0.054    21.745     6.673
     2   7 N        2.738    -0.117    23.552     7.208
     3   6 C        4.163     0.115    18.619     6.128
     4   7 N        2.886    -0.138    23.974     7.272
     5   6 C        3.322     0.150    22.808     7.597
     6   6 C        4.057     0.025    20.068     6.363
     7   6 C        2.763     0.298    21.944     7.671
     8   8 O        0.858    -0.291    19.628     5.940
     9   7 N        1.837    -0.276    28.020     7.845
    10   6 C        3.648    -0.005    20.995     6.583
    11   6 C        2.781     0.301    21.897     7.664
    12   8 O        1.706    -0.177    16.982     5.564
    13   7 N        2.733    -0.018    21.604     6.903
    14   6 C        3.694    -0.077    22.163     6.736
    15   1 H        0.924     0.080     1.983     2.202
    16   1 H        0.925     0.103     1.757     2.073
    17   1 H        0.925     0.100     1.781     2.087
    18   1 H        0.926     0.107     1.722     2.052
    19   1 H        0.925     0.109     1.703     2.041
    20   1 H        0.925     0.114     1.666     2.019
    21   1 H        0.925     0.107     1.722     2.052
    22   1 H        0.925     0.100     1.786     2.090
    23   1 H        0.924     0.105     1.740     2.063
    24   1 H        0.925     0.120     1.609     1.984
    25   1 H        0.860     0.220     1.009     1.573

Wiberg/Mayer (AO) data.
largest (>0.10) Wiberg bond orders for each atom

     #   Z sym  total        # sym  WBO       # sym  WBO       # sym  WBO
 ---------------------------------------------------------------------------
     1   6 C    3.931 --     2 N    1.014    17 H    0.963    15 H    0.958
                            16 H    0.952
     2   7 N    3.014 --     1 C    1.014     3 C    1.009     6 C    0.841
     3   6 C    3.859 --     2 N    1.009     4 N    0.963    18 H    0.948
                             6 C    0.820
     4   7 N    3.383 --     5 C    1.274     3 C    0.963    25 H    0.916
     5   6 C    3.820 --    13 N    1.347     4 N    1.274     6 C    1.039
     6   6 C    3.854 --     5 C    1.039     7 C    0.954     2 N    0.841
                             3 C    0.820
     7   6 C    3.935 --     8 O    1.780     9 N    1.117     6 C    0.954
     8   8 O    2.077 --     7 C    1.780
     9   7 N    3.053 --    11 C    1.538     7 C    1.117    12 O    0.123
    10   6 C    3.858 --    19 H    0.970    20 H    0.967    21 H    0.963
                            12 O    0.916
    11   6 C    3.900 --     9 N    1.538    12 O    1.228    13 N    1.001
    12   8 O    2.377 --    11 C    1.228    10 C    0.916     9 N    0.123
    13   7 N    3.600 --     5 C    1.347    11 C    1.001    14 C    0.964
    14   6 C    3.916 --    24 H    0.968    22 H    0.967    13 N    0.964
                            23 H    0.962
    15   1 H    0.973 --     1 C    0.958
    16   1 H    0.980 --     1 C    0.952
    17   1 H    0.985 --     1 C    0.963
    18   1 H    0.985 --     3 C    0.948
    19   1 H    0.987 --    10 C    0.970
    20   1 H    0.983 --    10 C    0.967
    21   1 H    0.983 --    10 C    0.963
    22   1 H    0.988 --    14 C    0.967
    23   1 H    0.986 --    14 C    0.962
    24   1 H    0.985 --    14 C    0.968
    25   1 H    0.948 --     4 N    0.916
 ---------------------------------------------------------------------------

molecular dipole:
                 x           y           z       tot (Debye)
 q only:       -0.252      -2.045      -0.358
   full:        0.031      -2.560      -0.327       6.561

           -------------------------------------------------
          | TOTAL ENERGY              -42.107143150448 Eh   |
          | GRADIENT NORM               0.006464318746 Eh/α |
          | HOMO-LUMO GAP               2.051652416817 eV   |
           -------------------------------------------------

 * finished run on 2024/06/05 at 20:00:14.688
