   * xtb version 6.6.1 (8d0f1dd) compiled by 'conda@1efc2f54142f' on 2023-08-01
          program call               : xtb struc.xyz --opt loose --input .xc1 --gfn2

   ID    Z sym.   atoms
    1    6 C      1, 3, 5-7, 10, 11, 14
    2    7 N      2, 4, 9, 13
    3    8 O      8, 12
    4    1 H      15-25
constraining bond 5 18 to    3.7133300 Å, actual value:    3.2287314 Å

          :  Hamiltonian                  GFN2-xTB          :
 * total energy  :   -42.6671654 Eh     change       -0.6650680E-10 Eh
 * total energy  :   -44.5259088 Eh     change       -0.1858743E+01 Eh
 * total energy  :   -47.1699009 Eh     change       -0.2643992E+01 Eh
 * total energy  :   -50.4723335 Eh     change       -0.3302433E+01 Eh
 * total energy  :   -54.2218831 Eh     change       -0.3749550E+01 Eh
 * total energy  :   -57.0676434 Eh     change       -0.2845760E+01 Eh
 * total energy  :   -58.1095567 Eh     change       -0.1041913E+01 Eh
 * total energy  :   -58.8673026 Eh     change       -0.7577459E+00 Eh
 * total energy  :   -55.7155678 Eh     change        0.3151735E+01 Eh
 * total energy  :   -59.0617617 Eh     change       -0.3346194E+01 Eh
 * total energy  :   -59.7107033 Eh     change       -0.8083733E-03 Eh
 * total energy  :   -59.7110373 Eh     change       -0.3340005E-03 Eh
 * total energy  :   -59.7113019 Eh     change       -0.2645501E-03 Eh
 * total energy  :   -59.7114617 Eh     change       -0.1598592E-03 Eh
 * total energy  :   -59.7116169 Eh     change       -0.1551494E-03 Eh
 * total energy  :   -59.7117152 Eh     change       -0.9825841E-04 Eh
 * total energy  :   -59.7117758 Eh     change       -0.6069345E-04 Eh
 * total energy  :   -59.7118133 Eh     change       -0.3748974E-04 Eh
 * total energy  :   -59.7118386 Eh     change       -0.2522558E-04 Eh
   *** GEOMETRY OPTIMIZATION CONVERGED AFTER 78 ITERATIONS ***

 final structure:
================
25
 xtb: 6.6.1 (8d0f1dd)
C            3.11890216106197        1.12742675582581        0.56221871409915
N            2.26921177914563        0.06663553486186        0.11058957119913
C            2.61124019992111       -1.25358355788330        0.22099183098359
N            1.61668179395067       -1.97698302257915       -0.20997539801874
C            0.48807950492683       -1.15980937295091       -0.81799781059532
C            1.04562784459738        0.20286548993690       -0.42476759440515
C            0.19210817282442        1.37787453019534       -0.37973977391120
O            0.59270143951402        2.52076386921487       -0.39237903691279
N           -1.14789227606999        1.04170769081439       -0.26790849324522
C           -2.11626161993811        2.11944060876508       -0.21510543025950
C           -1.63245590256075       -0.22205855250474        0.11064112224092
O           -2.75130374806686       -0.34719900800558        0.53040374514662
N           -0.77350011822627       -1.28722223612306       -0.01290398647235
C           -1.25091498840653       -2.62078159953350        0.26848957802690
H            3.36904307483106        0.97121433671915        1.61349634947504
H            4.05208781147682        1.11107030752343       -0.00551852292769
H            2.62595610094524        2.08946769435852        0.42426851463114
H            0.42825393503457       -1.24981585638352       -1.22842369873240
H           -1.60326810236186        3.05512357510238       -0.42823127902345
H           -2.89961649332400        1.93728685630377       -0.95275593728720
H           -2.58656315631230        2.16175367628430        0.76945468605205
H           -0.64932766493138       -3.07514810862250        1.05864301264624
H           -1.21136183289417       -3.24307103343561       -0.62793542265437
H           -2.28381990817576       -2.54605214769102        0.60786297765971
H            1.65682350713782       -2.98266788859301       -0.28224609981553

          :  Hamiltonian                  GFN2-xTB          :
         :: total energy             -59.711838561613 Eh    ::
         :: gradient norm              0.003639925352 Eh/a0 ::
         :: HOMO-LUMO gap              1.071418851353 eV    ::
         :: SCC energy               -42.630487062855 Eh    ::
         :: -> dispersion             -0.022822192717 Eh    ::
         :: repulsion energy           2.232475626508 Eh    ::

    * Orbital Energies and Occupations

         #    Occupation            Energy/Eh            Energy/eV
      -------------------------------------------------------------
         1        2.0000           -0.9194714             -25.0201
       ...           ...                  ...                  ...
        25        1.9998           -0.6765377             -18.4095
        26        1.9996           -0.6685002             -18.1908
        27        1.9994           -0.6610700             -17.9886
        28        1.9985           -0.6476769             -17.6242
        29        1.9975           -0.6395727             -17.4037
        30        1.9966           -0.6344875             -17.2653
        31        1.9930           -0.6229771             -16.9521
        32        1.9908           -0.6185848             -16.8325
        33        1.9646           -0.5970927             -16.2477
        34        1.9412           -0.5888777             -16.0242
        35        1.9296           -0.5859318             -15.9440
        36        1.8802           -0.5771073             -15.7039
        37        1.6877           -0.5602238             -15.2445 (HOMO)
        38        0.6202           -0.5208498             -14.1730 (LUMO)
        39        0.0016           -0.4210243             -11.4567
        40        0.0002           -0.3894610             -10.5978
        41        0.0000           -0.3481676              -9.4741
        42                         -0.2620087              -7.1296
        43                         -0.2225441              -6.0557
        44                         -0.1813104              -4.9337
        45                         -0.1645986              -4.4790
        46                         -0.1447210              -3.9381
        47                         -0.0915560              -2.4914
        48                         -0.0405490              -1.1034
       ...                                ...                  ...
        67                         10.3459835             281.5285
      -------------------------------------------------------------
                  HL-Gap            0.0393739 Eh            1.0714 eV

     #   Z          covCN         q      C6AA      α(0)
     1   6 C        3.694    -0.090    22.401     6.771
     2   7 N        2.801     0.096    19.587     6.573
     3   6 C        1.959    -0.029    31.857     9.115
     4   7 N        2.773    -0.086    22.919     7.110
     5   6 C        3.756     0.046    19.846     6.352
     6   6 C        3.039     0.016    27.610     8.618
     7   6 C        2.763     0.269    22.456     7.760
     8   8 O        0.858    -0.333    20.387     6.054
     9   7 N        2.745    -0.080    22.802     7.092
    10   6 C        3.706    -0.061    21.820     6.678
    11   6 C        2.709     0.321    21.536     7.596
    12   8 O        0.860    -0.339    20.506     6.071
    13   7 N        2.739    -0.110    23.410     7.186
    14   6 C        3.694    -0.066    21.952     6.703
    15   1 H        0.924     0.123     1.590     1.972
    16   1 H        0.924     0.129     1.544     1.943
    17   1 H        0.925     0.126     1.568     1.958
    18   1 H        0.942     0.183     1.186     1.702
    19   1 H        0.925     0.120     1.617     1.988
    20   1 H        0.924     0.114     1.665     2.018
    21   1 H        0.924     0.117     1.641     2.003
    22   1 H        0.924     0.092     1.856     2.131
    23   1 H        0.924     0.089     1.893     2.152
    24   1 H        0.925     0.127     1.557     1.951
    25   1 H        0.860     0.228     0.974     1.546

Wiberg/Mayer (AO) data.
largest (>0.10) Wiberg bond orders for each atom

     #   Z sym  total        # sym  WBO       # sym  WBO       # sym  WBO
 ---------------------------------------------------------------------------
     1   6 C    3.901 --     2 N    1.001    17 H    0.959    15 H    0.944
                            16 H    0.936
     2   7 N    3.606 --     6 C    1.330     3 C    1.173     1 C    1.001
     3   6 C    2.833 --     4 N    1.535     2 N    1.173
     4   7 N    3.486 --     3 C    1.535    25 H    0.921     5 C    0.920
     5   6 C    3.898 --     6 C    1.005    13 N    0.927    18 H    0.921
                             4 N    0.920
     6   6 C    3.610 --     2 N    1.330     7 C    1.059     5 C    1.005
     7   6 C    3.930 --     8 O    1.669     9 N    1.114     6 C    1.059
     8   8 O    1.959 --     7 C    1.669     9 N    0.139
     9   7 N    3.452 --     7 C    1.114    11 C    1.050    10 C    0.983
                             8 O    0.139
    10   6 C    3.873 --     9 N    0.983    19 H    0.962    21 H    0.942
                            20 H    0.942
    11   6 C    3.955 --    12 O    1.681    13 N    1.144     9 N    1.050
    12   8 O    2.002 --    11 C    1.681    13 N    0.141
    13   7 N    3.305 --    11 C    1.144    14 C    0.990     5 C    0.927
                            12 O    0.141
    14   6 C    3.902 --    13 N    0.990    23 H    0.959    22 H    0.956
                            24 H    0.955
    15   1 H    0.972 --     1 C    0.944
    16   1 H    0.967 --     1 C    0.936
    17   1 H    0.981 --     1 C    0.959
    18   1 H    0.954 --     5 C    0.921
    19   1 H    0.979 --    10 C    0.962
    20   1 H    0.959 --    10 C    0.942
    21   1 H    0.959 --    10 C    0.942
    22   1 H    0.971 --    14 C    0.956
    23   1 H    0.974 --    14 C    0.959
    24   1 H    0.978 --    14 C    0.955
    25   1 H    0.947 --     4 N    0.921
 ---------------------------------------------------------------------------

molecular dipole:
                 x           y           z       tot (Debye)
 q only:        1.614      -1.320      -0.302
   full:        1.421      -1.538      -0.570       5.517

           -------------------------------------------------
          | TOTAL ENERGY              -59.711838561613 Eh   |
          | GRADIENT NORM               0.003639925352 Eh/α |
          | HOMO-LUMO GAP               1.071418851353 eV   |
           -------------------------------------------------

 * finished run on 2024/06/05 at 20:00:25.867
