   * xtb version 6.6.1 (8d0f1dd) compiled by 'conda@1efc2f54142f' on 2023-08-01
          program call               : xtb xtbopt.xyz --opt crude --input .xc2 --gfn2

   ID    Z sym.   atoms
    1    6 C      1, 3, 5-7, 10, 11, 14
    2    7 N      2, 4, 9, 13
    3    8 O      8, 12
    4    1 H      15-25
########################################################################
[WARNING] Please study the warnings concerning your input carefully
-1- readin_getIntValue: could not parse ''
########################################################################

          :  Hamiltonian                  GFN2-xTB          :
 * total energy  :   -40.3978285 Eh     change       -0.4263256E-13 Eh
 * total energy  :   -42.1194014 Eh     change       -0.1721573E+01 Eh
 * total energy  :   -42.1318138 Eh     change       -0.1241243E-01 Eh
 * total energy  :   -42.1361890 Eh     change       -0.4375174E-02 Eh
 * total energy  :   -42.1371745 Eh     change       -0.9854530E-03 Eh
 * total energy  :   -42.1379521 Eh     change       -0.7775999E-03 Eh
 * total energy  :   -42.1386745 Eh     change       -0.7224432E-03 Eh
 * total energy  :   -42.1392558 Eh     change       -0.5812772E-03 Eh
 * total energy  :   -42.1396374 Eh     change       -0.3816360E-03 Eh
 * total energy  :   -42.1398206 Eh     change       -0.1831903E-03 Eh
   *** GEOMETRY OPTIMIZATION CONVERGED AFTER 10 ITERATIONS ***

 final structure:
================
25
 xtb: 6.6.1 (8d0f1dd)
C            3.17901790890410        1.15306012840783        0.51574405103581
N            2.29584458553477        0.09114629300036        0.14346386517163
C            2.63272845842946       -1.23600886761029        0.28112083830460
N            1.60591993536684       -1.95365226763272       -0.10073756484951
C            0.50602094700410       -1.13877480406250       -0.60591693795329
C            1.05502149939677        0.21842160589535       -0.34435224221970
C            0.19288090872483        1.38494552818044       -0.30227886605931
O            0.58157056822577        2.53278166266434       -0.29611452006903
N           -1.14877493376728        1.03880541014045       -0.22584329207845
C           -2.12523284056241        2.11012747289023       -0.19947896766779
C           -1.64885881673952       -0.23246158970564        0.09727163313895
O           -2.79942748869408       -0.36940756248398        0.41829462359778
N           -0.76874972275978       -1.29215047036623        0.04825018128158
C           -1.27748621688634       -2.63222840515269        0.24884686825389
H            3.50862973619198        1.00736788578921        1.54641055911784
H            4.06727292963953        1.12685164365423       -0.11975901623747
H            2.67762867276367        2.11422982979548        0.40426252284623
H            0.38055283739517       -1.36434700099353       -1.68690753524288
H           -1.61988153626597        3.04495296070870       -0.43204040417915
H           -2.90723134237506        1.90299086006749       -0.93166852520372
H           -2.59757066900467        2.17297601284734        0.78292889574957
H           -0.72591470363287       -3.12508453664204        1.05038522258488
H           -1.19521469566837       -3.21856563294251       -0.66884967173592
H           -2.32553727726258       -2.55551784696511        0.53426590312584
H            1.61722277014136       -2.96221976788411       -0.12612600281275

          :  Hamiltonian                  GFN2-xTB          :
         :: total energy             -42.139820605326 Eh    ::
         :: gradient norm              0.005380442433 Eh/a0 ::
         :: HOMO-LUMO gap              1.148136013080 eV    ::
         :: SCC energy               -42.628580423597 Eh    ::
         :: -> dispersion             -0.022766108741 Eh    ::
         :: repulsion energy           0.488581189287 Eh    ::

    * Orbital Energies and Occupations

         #    Occupation            Energy/Eh            Energy/eV
      -------------------------------------------------------------
         1        2.0000           -0.9065585             -24.6687
       ...           ...                  ...                  ...
        25        1.9998           -0.6752790             -18.3753
        26        1.9996           -0.6671798             -18.1549
        27        1.9992           -0.6557456             -17.8437
        28        1.9985           -0.6466288             -17.5957
        29        1.9975           -0.6382216             -17.3669
        30        1.9966           -0.6334253             -17.2364
        31        1.9931           -0.6219168             -16.9232
        32        1.9911           -0.6179513             -16.8153
        33        1.9651           -0.5960824             -16.2202
        34        1.9390           -0.5870276             -15.9738
        35        1.9283           -0.5843858             -15.9019
        36        1.8785           -0.5756164             -15.6633
        37        1.7175           -0.5608344             -15.2611 (HOMO)
        38        0.5947           -0.5186411             -14.1129 (LUMO)
        39        0.0016           -0.4196245             -11.4186
        40        0.0002           -0.3874119             -10.5420
        41        0.0000           -0.3443783              -9.3710
        42                         -0.2132757              -5.8035
        43                         -0.1976750              -5.3790
        44                         -0.1576191              -4.2890
        45                         -0.1541325              -4.1942
        46                         -0.1231726              -3.3517
        47                         -0.0733513              -1.9960
        48                         -0.0426674              -1.1610
       ...                                ...                  ...
        67                          0.5105870              13.8938
      -------------------------------------------------------------
                  HL-Gap            0.0421932 Eh            1.1481 eV

     #   Z          covCN         q      C6AA      α(0)
     1   6 C        3.694    -0.090    22.401     6.771
     2   7 N        2.813     0.099    19.535     6.564
     3   6 C        1.982    -0.038    32.058     9.144
     4   7 N        2.779    -0.067    22.533     7.050
     5   6 C        3.807     0.098    18.955     6.198
     6   6 C        3.039     0.019    27.541     8.608
     7   6 C        2.762     0.269    22.455     7.760
     8   8 O        0.858    -0.334    20.405     6.056
     9   7 N        2.745    -0.079    22.776     7.088
    10   6 C        3.707    -0.060    21.811     6.676
    11   6 C        2.714     0.320    21.557     7.600
    12   8 O        0.860    -0.340    20.513     6.072
    13   7 N        2.737    -0.096    23.119     7.141
    14   6 C        3.697    -0.068    21.972     6.705
    15   1 H        0.924     0.124     1.581     1.966
    16   1 H        0.924     0.128     1.548     1.946
    17   1 H        0.925     0.126     1.565     1.956
    18   1 H        0.921     0.106     1.728     2.056
    19   1 H        0.925     0.119     1.618     1.989
    20   1 H        0.924     0.114     1.661     2.016
    21   1 H        0.924     0.116     1.649     2.008
    22   1 H        0.924     0.092     1.858     2.132
    23   1 H        0.924     0.084     1.934     2.175
    24   1 H        0.925     0.127     1.558     1.952
    25   1 H        0.860     0.227     0.977     1.548

Wiberg/Mayer (AO) data.
largest (>0.10) Wiberg bond orders for each atom

     #   Z sym  total        # sym  WBO       # sym  WBO       # sym  WBO
 ---------------------------------------------------------------------------
     1   6 C    3.901 --     2 N    1.004    17 H    0.959    15 H    0.944
                            16 H    0.934
     2   7 N    3.608 --     6 C    1.340     3 C    1.163     1 C    1.004
     3   6 C    2.798 --     4 N    1.515     2 N    1.163
     4   7 N    3.503 --     3 C    1.515     5 C    0.966    25 H    0.920
     5   6 C    3.948 --     6 C    1.015    13 N    0.975     4 N    0.966
                            18 H    0.892
     6   6 C    3.633 --     2 N    1.340     7 C    1.063     5 C    1.015
     7   6 C    3.929 --     8 O    1.667     9 N    1.112     6 C    1.063
     8   8 O    1.955 --     7 C    1.667     9 N    0.139
     9   7 N    3.458 --     7 C    1.112    11 C    1.057    10 C    0.982
                             8 O    0.139
    10   6 C    3.874 --     9 N    0.982    19 H    0.962    20 H    0.943
                            21 H    0.941
    11   6 C    3.956 --    12 O    1.683    13 N    1.134     9 N    1.057
    12   8 O    2.002 --    11 C    1.683    13 N    0.140
    13   7 N    3.330 --    11 C    1.134    14 C    0.985     5 C    0.975
                            12 O    0.140
    14   6 C    3.905 --    13 N    0.985    23 H    0.960    24 H    0.959
                            22 H    0.959
    15   1 H    0.972 --     1 C    0.944
    16   1 H    0.967 --     1 C    0.934
    17   1 H    0.981 --     1 C    0.959
    18   1 H    0.941 --     5 C    0.892
    19   1 H    0.980 --    10 C    0.962
    20   1 H    0.961 --    10 C    0.943
    21   1 H    0.959 --    10 C    0.941
    22   1 H    0.973 --    14 C    0.959
    23   1 H    0.975 --    14 C    0.960
    24   1 H    0.979 --    14 C    0.959
    25   1 H    0.947 --     4 N    0.920
 ---------------------------------------------------------------------------

molecular dipole:
                 x           y           z       tot (Debye)
 q only:        1.661      -1.302      -0.240
   full:        1.445      -1.539      -0.559       5.551

           -------------------------------------------------
          | TOTAL ENERGY              -42.139820605326 Eh   |
          | GRADIENT NORM               0.005380442433 Eh/α |
          | HOMO-LUMO GAP               1.148136013080 eV   |
           -------------------------------------------------

 * finished run on 2024/06/05 at 20:00:26.292
