   * xtb version 6.6.1 (8d0f1dd) compiled by 'conda@1efc2f54142f' on 2023-08-01
          program call               : xtb struc.xyz --opt loose --input .xc1 --gfn2

   ID    Z sym.   atoms
    1    7 N      1, 17
    2    6 C      2-6, 8, 9, 11-16, 18-23, 25, 26, 28-33
    3    8 O      7, 10, 24, 27
    4    1 H      34-72
constraining bond 17 19 to    4.9200000 Å, actual value:    2.4666375 Å

          :  Hamiltonian                  GFN2-xTB          :
 * total energy  :   -98.3294214 Eh     change       -0.4035485E-08 Eh
 * total energy  :   -98.6265464 Eh     change       -0.2971250E+00 Eh
 * total energy  :   -98.8229709 Eh     change       -0.1964245E+00 Eh
 * total energy  :   -98.9487668 Eh     change       -0.1257960E+00 Eh
 * total energy  :   -99.0307309 Eh     change       -0.8196405E-01 Eh
 * total energy  :   -99.0808174 Eh     change       -0.5008655E-01 Eh
 * total energy  :   -99.1095692 Eh     change       -0.2875181E-01 Eh
 * total energy  :   -99.1309069 Eh     change       -0.2133770E-01 Eh
 * total energy  :   -99.1535679 Eh     change       -0.2266093E-01 Eh
 * total energy  :   -99.1811975 Eh     change       -0.2762965E-01 Eh
 * total energy  :   -99.3264891 Eh     change       -0.1868938E-03 Eh
 * total energy  :   -99.3265966 Eh     change       -0.1075231E-03 Eh
 * total energy  :   -99.3267184 Eh     change       -0.1217812E-03 Eh
 * total energy  :   -99.3268226 Eh     change       -0.1042267E-03 Eh
 * total energy  :   -99.3268611 Eh     change       -0.3847071E-04 Eh
 * total energy  :   -99.3269208 Eh     change       -0.5971184E-04 Eh
 * total energy  :   -99.3269750 Eh     change       -0.5421366E-04 Eh
 * total energy  :   -99.3270311 Eh     change       -0.5615582E-04 Eh
 * total energy  :   -99.3270677 Eh     change       -0.3660316E-04 Eh
   *** GEOMETRY OPTIMIZATION CONVERGED AFTER 41 ITERATIONS ***

 final structure:
================
72
 xtb: 6.6.1 (8d0f1dd)
N           -2.25261506949908        2.94586553945716        2.38052689770118
C           -2.16757459962184        2.21558759230464        1.37025858880645
C           -3.28600615148286        1.99260833412197        0.38815081668170
C           -3.74989940482285        0.54738215403716        0.46888524505279
C           -4.62977917328961        0.04708846636935       -0.49284030015670
C           -5.08878725958869       -1.25900060069173       -0.44621153089254
O           -5.93805359356804       -1.81724257250104       -1.33323302715975
C           -6.50679665759979       -1.01377621690909       -2.34074843095727
C           -4.65265818128159       -2.11734847622861        0.59967759303454
O           -5.13997474657213       -3.37366139104861        0.56265019085601
C           -4.81747163361894       -4.26534271492172        1.60413666688115
C           -3.78549653676203       -1.61221069878425        1.55589456343606
C           -3.34312946954543       -0.29689650983289        1.49151880043322
C           -2.69252594109209        2.29300842638538       -1.01479466996042
C           -1.79014011837974        1.19124158932049       -1.60062095947621
C           -0.45672762374733        1.10111112454128       -0.95221255254926
N            0.14914940918667       -0.01855492606301       -0.57138768583307
C            1.39602499705337       -0.05318172114383       -0.11925603466761
C            4.44790179432464       -0.87317133274175       -2.80496698132924
C            5.40720275410850       -0.50175330153742       -1.89420679295283
C            6.00179972710870        0.79128142769179       -1.93167481084755
C            6.97372446016552        1.15417947454263       -1.03624300452194
C            7.41029317382680        0.26478266330215       -0.04852544714522
O            8.35806646155883        0.51423362923629        0.86215355792044
C            9.01840481751686        1.75939692121053        0.86629422042507
C            6.82044455556665       -1.03907080759433        0.02416805763283
O            7.30082098569039       -1.81543854910830        1.01807216459554
C            6.82552177193617       -3.13508338918243        1.14092642580497
C            5.85119548392691       -1.39769685770395       -0.87685945371327
C           -0.58061705692326       -1.27438014383188       -0.62888230031710
C           -4.51959324500069        2.91032652436523        0.64138978046235
C           -5.19802386893822        2.58672026418825        1.97043799553956
C           -4.18479725579639        4.39809842448383        0.58375638829092
H           -4.96804048743299        0.69501932476799       -1.28423834404577
H           -7.06264011297058       -0.17269275062046       -1.91570497929977
H           -7.19331248314653       -1.66360095624545       -2.87971023419299
H           -5.74685831682899       -0.63891610710186       -3.03424500353758
H           -5.13150817619417       -3.87688476403182        2.57746573132310
H           -5.36634492202564       -5.17923165219480        1.38626340816366
H           -3.74482046771113       -4.48417567389588        1.62704786591562
H           -3.45150167110803       -2.23442823881227        2.37045842435085
H           -2.69081063464942        0.06669657650462        2.27029619415286
H           -3.51594720424291        2.45411683182541       -1.71076094979668
H           -2.12361623073756        3.22198730410390       -0.95987817218092
H           -2.31978871432586        0.24173698685331       -1.57262194616488
H           -1.63295459065324        1.45253808220595       -2.65515984271374
H           -1.24530110702286        1.68626236621984        1.07229149341308
H            0.14004011244921        2.00106128030546       -0.91897562763390
H            1.82449730030596       -0.97799680546570        0.20562660317273
H            1.97125365500811        0.84962843869145       -0.07247110275883
H            4.12395284586784       -0.20332905726580       -3.57965142331045
H            4.01374572523780       -1.85589348541665       -2.78932597213784
H            5.68026919368427        1.48680197061377       -2.69081318911157
H            7.40933746738503        2.13930006225811       -1.09873786806251
H            8.31887814558695        2.58443264134025        1.03448861132246
H            9.56377273857861        1.92654546109216       -0.06769267763835
H            9.72540969069916        1.71156165067635        1.69343822362338
H            7.35856487048027       -3.56147093737316        1.98757490292181
H            5.75034976768496       -3.15574189560622        1.34208313429600
H            7.03995320660422       -3.72214109906200        0.24324393636840
H            5.40622224967306       -2.37914961263683       -0.84767343536301
H           -0.82200099221267       -1.52293443485416       -1.66217163368724
H           -1.50302981782903       -1.20233077446940       -0.05062608925115
H            0.03060496810103       -2.07193349324114       -0.21262473089243
H           -5.23450868665565        2.69406239525967       -0.16117461970843
H           -4.51807742111899        2.78594331153614        2.79301559886183
H           -5.50779178832678        1.54499861485703        2.01183544048647
H           -6.07945969049472        3.21122919485113        2.09086652571109
H           -3.48250499875097        4.65611930956518        1.37030280732815
H           -3.76666379162875        4.68433706956072       -0.37737791538393
H           -5.09393783146427        4.97379213299580        0.73606177775232
H           -1.42879900765250        3.04971790898129        2.96430594922408

          :  Hamiltonian                  GFN2-xTB          :
         :: total energy             -99.327067756620 Eh    ::
         :: gradient norm              0.002739456291 Eh/a0 ::
         :: HOMO-LUMO gap              0.747304857146 eV    ::
         :: SCC energy              -100.729722673535 Eh    ::
         :: -> dispersion             -0.071225696967 Eh    ::
         :: repulsion energy           1.400904129760 Eh    ::

    * Orbital Energies and Occupations

         #    Occupation            Energy/Eh            Energy/eV
      -------------------------------------------------------------
         1        2.0000           -0.8140491             -22.1514
       ...           ...                  ...                  ...
        78        1.9978           -0.5260122             -14.3135
        79        1.9977           -0.5252583             -14.2930
        80        1.9968           -0.5201273             -14.1534
        81        1.9962           -0.5174274             -14.0799
        82        1.9947           -0.5118918             -13.9293
        83        1.9938           -0.5096462             -13.8682
        84        1.9924           -0.5062427             -13.7756
        85        1.9884           -0.4995948             -13.5947
        86        1.9775           -0.4889961             -13.3063
        87        1.9281           -0.4702172             -12.7953
        88        1.9219           -0.4688571             -12.7582
        89        1.8541           -0.4583818             -12.4732
        90        1.5643           -0.4383729             -11.9287 (HOMO)
        91        0.7758           -0.4109100             -11.1814 (LUMO)
        92        0.0139           -0.3396092              -9.2412
        93        0.0094           -0.3333275              -9.0703
        94        0.0030           -0.3152883              -8.5794
        95        0.0025           -0.3122307              -8.4962
        96        0.0019           -0.3083559              -8.3908
        97        0.0004           -0.2842687              -7.7353
        98        0.0000           -0.1896904              -5.1617
        99        0.0000           -0.1770795              -4.8186
       100                         -0.1008340              -2.7438
       101                         -0.0645522              -1.7566
       ...                                ...                  ...
       171                          0.5918791              16.1059
      -------------------------------------------------------------
                  HL-Gap            0.0274629 Eh            0.7473 eV

     #   Z          covCN         q      C6AA      α(0)
     1   7 N        1.774    -0.266    27.728     7.798
     2   6 C        2.827     0.102    25.735     8.313
     3   6 C        3.907     0.007    20.405     6.421
     4   6 C        2.974     0.005    27.901     8.664
     5   6 C        2.920    -0.079    29.970     8.977
     6   6 C        2.862     0.129    25.162     8.222
     7   8 O        1.706    -0.229    17.800     5.696
     8   6 C        3.645     0.027    20.454     6.500
     9   6 C        2.864     0.128    25.182     8.226
    10   8 O        1.706    -0.228    17.773     5.692
    11   6 C        3.645     0.026    20.463     6.501
    12   6 C        2.913    -0.074    29.849     8.959
    13   6 C        2.921    -0.052    29.297     8.876
    14   6 C        3.811    -0.064    21.727     6.635
    15   6 C        3.801    -0.067    21.781     6.645
    16   6 C        2.869    -0.041    29.020     8.831
    17   7 N        2.729     0.101    19.510     6.560
    18   6 C        2.821    -0.107    30.693     9.078
    19   6 C        2.852    -0.091    30.282     9.019
    20   6 C        2.959     0.023    27.484     8.599
    21   6 C        2.921    -0.037    28.920     8.819
    22   6 C        2.906    -0.062    29.554     8.914
    23   6 C        2.864     0.141    24.933     8.185
    24   8 O        1.706    -0.204    17.397     5.631
    25   6 C        3.645     0.022    20.540     6.514
    26   6 C        2.857     0.135    25.044     8.203
    27   8 O        1.706    -0.231    17.829     5.701
    28   6 C        3.646     0.027    20.452     6.499
    29   6 C        2.918    -0.078    29.944     8.973
    30   6 C        3.719    -0.078    22.103     6.715
    31   6 C        3.853    -0.007    20.670     6.466
    32   6 C        3.755    -0.118    22.814     6.810
    33   6 C        3.755    -0.119    22.826     6.812
    34   1 H        0.926     0.054     2.270     2.356
    35   1 H        0.924     0.055     2.264     2.353
    36   1 H        0.925     0.081     1.965     2.192
    37   1 H        0.924     0.048     2.341     2.393
    38   1 H        0.924     0.056     2.251     2.346
    39   1 H        0.925     0.081     1.964     2.192
    40   1 H        0.924     0.049     2.334     2.389
    41   1 H        0.926     0.053     2.281     2.362
    42   1 H        0.926     0.041     2.430     2.438
    43   1 H        0.925     0.056     2.249     2.345
    44   1 H        0.924     0.052     2.294     2.369
    45   1 H        0.925     0.057     2.239     2.340
    46   1 H        0.924     0.066     2.133     2.284
    47   1 H        0.923     0.014     2.826     2.629
    48   1 H        0.926     0.056     2.245     2.343
    49   1 H        0.927     0.060     2.202     2.321
    50   1 H        0.926     0.058     2.219     2.329
    51   1 H        0.926     0.055     2.263     2.352
    52   1 H        0.926     0.052     2.301     2.372
    53   1 H        0.926     0.058     2.218     2.329
    54   1 H        0.926     0.060     2.204     2.322
    55   1 H        0.924     0.059     2.216     2.328
    56   1 H        0.924     0.062     2.176     2.307
    57   1 H        0.925     0.086     1.921     2.168
    58   1 H        0.925     0.081     1.969     2.194
    59   1 H        0.924     0.048     2.347     2.396
    60   1 H        0.924     0.055     2.263     2.352
    61   1 H        0.926     0.055     2.255     2.348
    62   1 H        0.925     0.082     1.959     2.189
    63   1 H        0.924     0.083     1.944     2.181
    64   1 H        0.925     0.083     1.944     2.180
    65   1 H        0.924     0.037     2.485     2.465
    66   1 H        0.925     0.069     2.100     2.266
    67   1 H        0.925     0.035     2.520     2.482
    68   1 H        0.925     0.051     2.303     2.373
    69   1 H        0.925     0.063     2.165     2.301
    70   1 H        0.925     0.036     2.500     2.473
    71   1 H        0.925     0.053     2.278     2.360
    72   1 H        0.860     0.158     1.346     1.818

Wiberg/Mayer (AO) data.
largest (>0.10) Wiberg bond orders for each atom

     #   Z sym  total        # sym  WBO       # sym  WBO       # sym  WBO
 ---------------------------------------------------------------------------
     1   7 N    3.021 --     2 C    1.957    72 H    0.941
     2   6 C    3.932 --     1 N    1.957     3 C    0.993    47 H    0.911
     3   6 C    3.971 --     2 C    0.993     4 C    0.972    14 C    0.955
                            31 C    0.942
     4   6 C    3.945 --    13 C    1.409     5 C    1.369     3 C    0.972
     5   6 C    3.960 --     6 C    1.399     4 C    1.369    34 H    0.958
     6   6 C    3.901 --     5 C    1.399     9 C    1.221     7 O    1.100
     7   8 O    2.252 --     6 C    1.100     8 C    0.978
     8   6 C    3.931 --     7 O    0.978    36 H    0.977    35 H    0.973
                            37 H    0.973
     9   6 C    3.897 --    12 C    1.389     6 C    1.221    10 O    1.102
    10   8 O    2.250 --     9 C    1.102    11 C    0.977
    11   6 C    3.931 --    10 O    0.977    39 H    0.977    40 H    0.973
                            38 H    0.973
    12   6 C    3.960 --    13 C    1.405     9 C    1.389    41 H    0.963
    13   6 C    3.950 --     4 C    1.409    12 C    1.405    42 H    0.962
    14   6 C    3.974 --    15 C    0.984    44 H    0.972    43 H    0.969
                             3 C    0.955
    15   6 C    3.986 --    16 C    1.050    14 C    0.984    45 H    0.962
                            46 H    0.939
    16   6 C    3.671 --    17 N    1.349    15 C    1.050    48 H    0.960
                            18 C    0.216
    17   7 N    3.745 --    18 C    1.367    16 C    1.349    30 C    0.984
    18   6 C    3.597 --    17 N    1.367    49 H    0.975    50 H    0.974
                            16 C    0.216
    19   6 C    3.540 --    20 C    1.499    52 H    0.979    51 H    0.978
    20   6 C    3.980 --    19 C    1.499    21 C    1.207    29 C    1.200
    21   6 C    3.808 --    22 C    1.523    20 C    1.207    53 H    0.967
    22   6 C    3.969 --    21 C    1.523    23 C    1.316    54 H    0.961
    23   6 C    3.769 --    22 C    1.316    26 C    1.173    24 O    1.141
    24   8 O    2.257 --    23 C    1.141    25 C    0.972
    25   6 C    3.924 --    57 H    0.976    24 O    0.972    55 H    0.971
                            56 H    0.971
    26   6 C    3.915 --    29 C    1.483    23 C    1.173    27 O    1.097
    27   8 O    2.253 --    26 C    1.097    28 C    0.978
    28   6 C    3.932 --    27 O    0.978    58 H    0.977    59 H    0.974
                            60 H    0.973
    29   6 C    3.853 --    26 C    1.483    20 C    1.200    61 H    0.962
    30   6 C    3.954 --    17 N    0.984    64 H    0.977    62 H    0.970
                            63 H    0.962
    31   6 C    3.969 --    33 C    1.009    32 C    1.008    65 H    0.958
                             3 C    0.942
    32   6 C    3.976 --    31 C    1.008    67 H    0.982    68 H    0.981
                            66 H    0.973
    33   6 C    3.979 --    31 C    1.009    70 H    0.982    71 H    0.980
                            69 H    0.975
    34   1 H    0.996 --     5 C    0.958
    35   1 H    0.993 --     8 C    0.973
    36   1 H    0.993 --     8 C    0.977
    37   1 H    0.993 --     8 C    0.973
    38   1 H    0.992 --    11 C    0.973
    39   1 H    0.993 --    11 C    0.977
    40   1 H    0.993 --    11 C    0.973
    41   1 H    0.995 --    12 C    0.963
    42   1 H    0.998 --    13 C    0.962
    43   1 H    0.995 --    14 C    0.969
    44   1 H    0.996 --    14 C    0.972
    45   1 H    0.996 --    15 C    0.962
    46   1 H    0.975 --    15 C    0.939
    47   1 H    0.979 --     2 C    0.911
    48   1 H    0.996 --    16 C    0.960
    49   1 H    0.996 --    18 C    0.975
    50   1 H    0.997 --    18 C    0.974
    51   1 H    0.996 --    19 C    0.978
    52   1 H    0.996 --    19 C    0.979
    53   1 H    0.996 --    21 C    0.967
    54   1 H    0.995 --    22 C    0.961
    55   1 H    0.990 --    25 C    0.971
    56   1 H    0.989 --    25 C    0.971
    57   1 H    0.992 --    25 C    0.976
    58   1 H    0.993 --    28 C    0.977
    59   1 H    0.994 --    28 C    0.974
    60   1 H    0.993 --    28 C    0.973
    61   1 H    0.995 --    29 C    0.962
    62   1 H    0.993 --    30 C    0.970
    63   1 H    0.993 --    30 C    0.962
    64   1 H    0.993 --    30 C    0.977
    65   1 H    0.990 --    31 C    0.958
    66   1 H    0.990 --    32 C    0.973
    67   1 H    0.996 --    32 C    0.982
    68   1 H    0.993 --    32 C    0.981
    69   1 H    0.992 --    33 C    0.975
    70   1 H    0.996 --    33 C    0.982
    71   1 H    0.993 --    33 C    0.980
    72   1 H    0.968 --     1 N    0.941
 ---------------------------------------------------------------------------

molecular dipole:
                 x           y           z       tot (Debye)
 q only:        1.179      -0.140      -0.615
   full:        1.578      -0.227      -0.801       4.534

           -------------------------------------------------
          | TOTAL ENERGY              -99.327067756620 Eh   |
          | GRADIENT NORM               0.002739456291 Eh/α |
          | HOMO-LUMO GAP               0.747304857146 eV   |
           -------------------------------------------------

 * finished run on 2024/04/06 at 11:13:29.177
