   * xtb version 6.6.1 (8d0f1dd) compiled by 'conda@1efc2f54142f' on 2023-08-01
          program call               : xtb struc.xyz --opt loose --input .xc1 --gfn2

   ID    Z sym.   atoms
    1    7 N      1, 17
    2    6 C      2-6, 8, 9, 11-16, 18-23, 25, 26, 28-33
    3    8 O      7, 10, 24, 27
    4    1 H      34-72
constraining bond 21 51 to    3.7133300 Å, actual value:    2.6534323 Å

          :  Hamiltonian                  GFN2-xTB          :
 * total energy  :   -99.6047146 Eh     change       -0.4035485E-08 Eh
 * total energy  :   -99.8722476 Eh     change       -0.2675330E+00 Eh
 * total energy  :  -100.1955316 Eh     change       -0.3232840E+00 Eh
 * total energy  :  -100.5235616 Eh     change       -0.3280300E+00 Eh
 * total energy  :  -100.5747104 Eh     change       -0.5114878E-01 Eh
 * total energy  :  -100.5631683 Eh     change        0.1154206E-01 Eh
 * total energy  :  -100.6605883 Eh     change       -0.9741997E-01 Eh
 * total energy  :  -100.6909557 Eh     change       -0.3036744E-01 Eh
 * total energy  :  -100.7177839 Eh     change       -0.2682821E-01 Eh
 * total energy  :  -100.7235254 Eh     change       -0.5741498E-02 Eh
 * total energy  :  -100.7859076 Eh     change       -0.1576652E-03 Eh
 * total energy  :  -100.7860597 Eh     change       -0.1521247E-03 Eh
 * total energy  :  -100.7862190 Eh     change       -0.1592841E-03 Eh
 * total energy  :  -100.7863762 Eh     change       -0.1572406E-03 Eh
 * total energy  :  -100.7865437 Eh     change       -0.1674814E-03 Eh
 * total energy  :  -100.7866834 Eh     change       -0.1397623E-03 Eh
 * total energy  :  -100.7867587 Eh     change       -0.7521755E-04 Eh
 * total energy  :  -100.7867903 Eh     change       -0.3165092E-04 Eh
 * total energy  :  -100.7868193 Eh     change       -0.2900897E-04 Eh
   *** GEOMETRY OPTIMIZATION CONVERGED AFTER 70 ITERATIONS ***

 final structure:
================
72
 xtb: 6.6.1 (8d0f1dd)
N           -2.23208453952489        3.22756314360385        2.25742830115856
C           -2.00204466064684        2.36814303809843        1.38081950581648
C           -2.91008679005984        2.07043123427312        0.21859467493778
C           -3.33419107241059        0.61249513070818        0.27326676706399
C           -3.97184918728097        0.02890305698068       -0.82355012268232
C           -4.38224144131470       -1.29385601642186       -0.80293673305948
O           -5.00657151486646       -1.93269683607054       -1.81466224732209
C           -5.39344575016881       -1.20389783611116       -2.95530019629238
C           -4.14236789017732       -2.08371867269725        0.35358066487935
O           -4.54945908309587       -3.36701584777582        0.27652862420655
C           -4.40437838106424       -4.19951710095920        1.40312604898147
C           -3.52837538876296       -1.49271184552779        1.44597787409546
C           -3.13537153668462       -0.16045768175434        1.40619653721667
C           -2.06620056637503        2.35016585349073       -1.05542697971555
C           -1.05678844815240        1.24919403240996       -1.44022594465374
C            0.03735626340221        1.08555233465449       -0.45877754189912
N            0.43525395674265       -0.06658228356809        0.05329201678512
C            1.41336596055102       -0.10955792880458        1.13685699762444
C            2.57724701326921       -1.00719811003841        0.84969095883898
C            3.78440580279555       -0.60409885858351        0.39237035935798
C            4.05617164674341        0.85572710459130        0.08285196057878
C            5.42181483745231        1.09667309975034       -0.50374546449468
C            6.36626987337157        0.14846061073009       -0.62917746680887
O            7.61282887666910        0.30758910280615       -1.11225137178425
C            8.03466167099282        1.59633120283886       -1.49023764095964
C            6.07141710349294       -1.22944855691858       -0.23248433968371
O            7.10471695073089       -2.06151744869026       -0.38139954048491
C            6.95994014538269       -3.41975919322031       -0.03162299444888
C            4.83373490618613       -1.55784156309260        0.22759217756795
C           -0.18738771209672       -1.31974996618988       -0.30026188360269
C           -4.19634628833980        2.94845858932404        0.20008334393549
C           -5.06552926266705        2.68846435039503        1.42815044515802
C           -3.90645973183633        4.44228551573228        0.08183005493752
H           -4.16267149036436        0.62460772350457       -1.70091295390075
H           -6.05258672838761       -0.37082509530837       -2.69471642552930
H           -5.93572323072979       -1.90954046505831       -3.58123965734098
H           -4.52596821409251       -0.82686994452257       -3.50674599444730
H           -4.95345041414145       -3.80867354241663        2.26432863636803
H           -4.82539748848085       -5.15990006026064        1.11281320138704
H           -3.35140353477802       -4.33255481452437        1.67074387098929
H           -3.36027755543358       -2.05823275599691        2.34776065983702
H           -2.68931994039551        0.27168588406911        2.28825043428286
H           -2.74346097594109        2.48103162659180       -1.89929676416724
H           -1.53165838511588        3.29076618677214       -0.91496142243331
H           -1.58692104929866        0.31247435144390       -1.59860156166978
H           -0.61594940814651        1.55561807808081       -2.39661695270150
H           -1.07754377001462        1.76461062618634        1.34152451145169
H            0.60673277947466        1.96410538028040       -0.19356803602945
H            0.89054550294584       -0.47820828179342        2.02882638811668
H            1.74930374630300        0.90972728077737        1.33359286365069
H            3.49891303872931        1.17199418849517       -0.37231756094219
H            2.43903223068763       -2.05416170125042        1.07252808970675
H            4.07994367282602        1.36562049433816        1.07080061193962
H            5.60957144763632        2.11517224459512       -0.80331981234783
H            7.97853766664686        2.29624418890780       -0.65136168107474
H            7.44385821098722        1.98102781878147       -2.32629866825314
H            9.07097510553875        1.48590436904322       -1.80051252815373
H            7.93328182039911       -3.87238338461211       -0.20880222286909
H            6.69203209575012       -3.53242232886244        1.02304612310213
H            6.20881652869793       -3.91331164616688       -0.65383912402683
H            4.60533873152853       -2.57768818182200        0.49391852353257
H           -0.15411599519433       -1.47430700957281       -1.37819954960784
H           -1.22785725528760       -1.34651393838863        0.03207606446320
H            0.35334695777537       -2.13025126006779        0.17736900952286
H           -4.76626073008072        2.64153458769651       -0.68459481566267
H           -4.54630561633487        3.00580933680487        2.32667919141486
H           -5.31621494310965        1.63411961232096        1.51715555935083
H           -5.98984012734407        3.25374772637860        1.34634887083162
H           -3.30683272281980        4.77612118007006        0.92257065861962
H           -3.39365484263574        4.68566764467296       -0.84471307604595
H           -4.84581379931682        4.98853933961960        0.09567301180715
H           -1.53249148379667        3.36704240966418        2.97970052418622

          :  Hamiltonian                  GFN2-xTB          :
         :: total energy            -100.786819338376 Eh    ::
         :: gradient norm              0.002370059489 Eh/a0 ::
         :: HOMO-LUMO gap              1.612616528770 eV    ::
         :: SCC energy              -100.771291837055 Eh    ::
         :: -> dispersion             -0.076410372014 Eh    ::
         :: repulsion energy           1.513068333767 Eh    ::

    * Orbital Energies and Occupations

         #    Occupation            Energy/Eh            Energy/eV
      -------------------------------------------------------------
         1        2.0000           -0.8136968             -22.1418
       ...           ...                  ...                  ...
        78        1.9983           -0.5285645             -14.3830
        79        1.9982           -0.5272971             -14.3485
        80        1.9982           -0.5271347             -14.3441
        81        1.9978           -0.5239522             -14.2575
        82        1.9976           -0.5227282             -14.2242
        83        1.9959           -0.5144710             -13.9995
        84        1.9953           -0.5119870             -13.9319
        85        1.9944           -0.5094303             -13.8623
        86        1.9822           -0.4908906             -13.3578
        87        1.9700           -0.4825598             -13.1311
        88        1.9360           -0.4702869             -12.7972
        89        1.8815           -0.4600882             -12.5196
        90        1.8157           -0.4525384             -12.3142 (HOMO)
        91        0.3785           -0.3932758             -10.7016 (LUMO)
        92        0.0462           -0.3570378              -9.7155
        93        0.0142           -0.3380685              -9.1993
        94        0.0039           -0.3173378              -8.6352
        95        0.0031           -0.3139543              -8.5431
        96        0.0007           -0.2898162              -7.8863
        97        0.0000           -0.2155416              -5.8652
        98        0.0000           -0.1916116              -5.2140
        99                         -0.1289265              -3.5083
       100                         -0.0691256              -1.8810
       101                         -0.0687463              -1.8707
       ...                                ...                  ...
       171                          1.1145024              30.3272
      -------------------------------------------------------------
                  HL-Gap            0.0592626 Eh            1.6126 eV

     #   Z          covCN         q      C6AA      α(0)
     1   7 N        1.774    -0.271    27.844     7.814
     2   6 C        2.828     0.101    25.751     8.315
     3   6 C        3.907     0.006    20.416     6.422
     4   6 C        2.974     0.001    28.007     8.681
     5   6 C        2.920    -0.081    30.022     8.985
     6   6 C        2.862     0.128    25.197     8.228
     7   8 O        1.706    -0.232    17.848     5.704
     8   6 C        3.644     0.028    20.438     6.498
     9   6 C        2.864     0.127    25.214     8.231
    10   8 O        1.706    -0.231    17.822     5.700
    11   6 C        3.645     0.027    20.449     6.499
    12   6 C        2.914    -0.075    29.883     8.964
    13   6 C        2.922    -0.053    29.315     8.879
    14   6 C        3.811    -0.063    21.700     6.631
    15   6 C        3.802    -0.070    21.845     6.654
    16   6 C        2.841     0.009    27.805     8.642
    17   7 N        2.728     0.015    21.000     6.806
    18   6 C        3.753    -0.015    20.909     6.521
    19   6 C        2.905    -0.086    30.146     9.003
    20   6 C        2.949     0.015    27.668     8.627
    21   6 C        3.813    -0.096    22.317     6.724
    22   6 C        2.897    -0.084    30.097     8.995
    23   6 C        2.850     0.135    25.054     8.204
    24   8 O        1.706    -0.229    17.804     5.697
    25   6 C        3.647     0.025    20.484     6.503
    26   6 C        2.858     0.148    24.791     8.161
    27   8 O        1.706    -0.208    17.466     5.643
    28   6 C        3.647     0.022    20.541     6.513
    29   6 C        2.913    -0.089    30.228     9.016
    30   6 C        3.701    -0.072    22.044     6.714
    31   6 C        3.853    -0.007    20.670     6.466
    32   6 C        3.756    -0.118    22.807     6.809
    33   6 C        3.755    -0.120    22.859     6.817
    34   1 H        0.926     0.051     2.304     2.374
    35   1 H        0.924     0.054     2.275     2.359
    36   1 H        0.925     0.081     1.971     2.195
    37   1 H        0.924     0.046     2.371     2.408
    38   1 H        0.924     0.055     2.256     2.349
    39   1 H        0.925     0.081     1.972     2.196
    40   1 H        0.924     0.047     2.358     2.401
    41   1 H        0.926     0.052     2.297     2.370
    42   1 H        0.926     0.039     2.464     2.455
    43   1 H        0.925     0.062     2.175     2.306
    44   1 H        0.924     0.054     2.274     2.358
    45   1 H        0.925     0.067     2.117     2.276
    46   1 H        0.924     0.077     2.005     2.214
    47   1 H        0.922     0.002     3.022     2.719
    48   1 H        0.926     0.067     2.120     2.277
    49   1 H        0.924     0.068     2.110     2.272
    50   1 H        0.924     0.063     2.164     2.300
    51   1 H        0.930     0.112     1.680     2.027
    52   1 H        0.926     0.040     2.455     2.450
    53   1 H        0.921     0.068     2.106     2.269
    54   1 H        0.926     0.053     2.282     2.362
    55   1 H        0.924     0.052     2.295     2.369
    56   1 H        0.924     0.051     2.302     2.373
    57   1 H        0.925     0.082     1.956     2.187
    58   1 H        0.925     0.086     1.922     2.168
    59   1 H        0.924     0.057     2.232     2.337
    60   1 H        0.924     0.057     2.240     2.340
    61   1 H        0.926     0.053     2.286     2.364
    62   1 H        0.925     0.077     2.015     2.220
    63   1 H        0.924     0.077     2.010     2.217
    64   1 H        0.925     0.087     1.907     2.160
    65   1 H        0.924     0.036     2.497     2.471
    66   1 H        0.925     0.066     2.126     2.280
    67   1 H        0.925     0.035     2.521     2.483
    68   1 H        0.925     0.051     2.307     2.375
    69   1 H        0.925     0.064     2.148     2.292
    70   1 H        0.925     0.035     2.520     2.483
    71   1 H        0.925     0.054     2.268     2.355
    72   1 H        0.860     0.156     1.360     1.827

Wiberg/Mayer (AO) data.
largest (>0.10) Wiberg bond orders for each atom

     #   Z sym  total        # sym  WBO       # sym  WBO       # sym  WBO
 ---------------------------------------------------------------------------
     1   7 N    3.035 --     2 C    1.955    72 H    0.942
     2   6 C    3.934 --     1 N    1.955     3 C    0.993    47 H    0.909
     3   6 C    3.976 --     2 C    0.993     4 C    0.974    14 C    0.954
                            31 C    0.943
     4   6 C    3.952 --    13 C    1.416     5 C    1.367     3 C    0.974
     5   6 C    3.963 --     6 C    1.402     4 C    1.367    34 H    0.958
     6   6 C    3.907 --     5 C    1.402     9 C    1.224     7 O    1.097
     7   8 O    2.253 --     6 C    1.097     8 C    0.978
     8   6 C    3.933 --     7 O    0.978    36 H    0.977    35 H    0.974
                            37 H    0.974
     9   6 C    3.904 --    12 C    1.392     6 C    1.224    10 O    1.100
    10   8 O    2.253 --     9 C    1.100    11 C    0.978
    11   6 C    3.932 --    10 O    0.978    39 H    0.977    40 H    0.974
                            38 H    0.973
    12   6 C    3.964 --    13 C    1.401     9 C    1.392    41 H    0.964
    13   6 C    3.956 --     4 C    1.416    12 C    1.401    42 H    0.962
    14   6 C    3.969 --    15 C    0.975    44 H    0.973    43 H    0.967
                             3 C    0.954
    15   6 C    3.987 --    16 C    1.059    14 C    0.975    45 H    0.962
                            46 H    0.933
    16   6 C    3.608 --    17 N    1.432    15 C    1.059    48 H    0.956
    17   7 N    3.480 --    16 C    1.432    30 C    0.998    18 C    0.958
    18   6 C    3.954 --    19 C    1.014    50 H    0.963    17 N    0.958
                            49 H    0.952
    19   6 C    3.852 --    20 C    1.677    18 C    1.014    52 H    0.964
    20   6 C    3.967 --    19 C    1.677    29 C    1.193    21 C    1.005
    21   6 C    3.984 --    22 C    1.027    20 C    1.005    51 H    0.956
                            53 H    0.919
    22   6 C    3.885 --    23 C    1.650    21 C    1.027    54 H    0.963
                            24 O    0.115
    23   6 C    3.916 --    22 C    1.650    24 O    1.098    26 C    1.058
    24   8 O    2.259 --    23 C    1.098    25 C    0.977    22 C    0.115
    25   6 C    3.931 --    24 O    0.977    57 H    0.977    55 H    0.974
                            56 H    0.973
    26   6 C    3.890 --    29 C    1.528    27 O    1.139    23 C    1.058
    27   8 O    2.305 --    26 C    1.139    28 C    0.972
    28   6 C    3.928 --    58 H    0.977    59 H    0.973    60 H    0.973
                            27 O    0.972
    29   6 C    3.896 --    26 C    1.528    20 C    1.193    61 H    0.958
    30   6 C    3.955 --    17 N    0.998    64 H    0.974    62 H    0.970
                            63 H    0.957
    31   6 C    3.973 --    33 C    1.009    32 C    1.008    65 H    0.960
                             3 C    0.943
    32   6 C    3.980 --    31 C    1.008    67 H    0.982    68 H    0.982
                            66 H    0.975
    33   6 C    3.981 --    31 C    1.009    70 H    0.983    71 H    0.980
                            69 H    0.975
    34   1 H    0.996 --     5 C    0.958
    35   1 H    0.994 --     8 C    0.974
    36   1 H    0.993 --     8 C    0.977
    37   1 H    0.994 --     8 C    0.974
    38   1 H    0.993 --    11 C    0.973
    39   1 H    0.993 --    11 C    0.977
    40   1 H    0.994 --    11 C    0.974
    41   1 H    0.996 --    12 C    0.964
    42   1 H    0.998 --    13 C    0.962
    43   1 H    0.994 --    14 C    0.967
    44   1 H    0.996 --    14 C    0.973
    45   1 H    0.995 --    15 C    0.962
    46   1 H    0.974 --    15 C    0.933
    47   1 H    0.987 --     2 C    0.909
    48   1 H    0.995 --    16 C    0.956
    49   1 H    0.983 --    18 C    0.952
    50   1 H    0.995 --    18 C    0.963
    51   1 H    0.984 --    21 C    0.956
    52   1 H    0.997 --    19 C    0.964
    53   1 H    0.983 --    21 C    0.919
    54   1 H    0.995 --    22 C    0.963
    55   1 H    0.994 --    25 C    0.974
    56   1 H    0.994 --    25 C    0.973
    57   1 H    0.993 --    25 C    0.977
    58   1 H    0.992 --    28 C    0.977
    59   1 H    0.994 --    28 C    0.973
    60   1 H    0.994 --    28 C    0.973
    61   1 H    0.996 --    29 C    0.958
    62   1 H    0.988 --    30 C    0.970
    63   1 H    0.985 --    30 C    0.957
    64   1 H    0.992 --    30 C    0.974
    65   1 H    0.993 --    31 C    0.960
    66   1 H    0.992 --    32 C    0.975
    67   1 H    0.997 --    32 C    0.982
    68   1 H    0.994 --    32 C    0.982
    69   1 H    0.992 --    33 C    0.975
    70   1 H    0.997 --    33 C    0.983
    71   1 H    0.994 --    33 C    0.980
    72   1 H    0.971 --     1 N    0.942
 ---------------------------------------------------------------------------

molecular dipole:
                 x           y           z       tot (Debye)
 q only:        1.121      -0.066      -0.418
   full:        1.363      -0.102      -0.290       3.550

           -------------------------------------------------
          | TOTAL ENERGY             -100.786819338376 Eh   |
          | GRADIENT NORM               0.002370059489 Eh/α |
          | HOMO-LUMO GAP               1.612616528770 eV   |
           -------------------------------------------------

 * finished run on 2024/04/06 at 11:17:02.964
