   * xtb version 6.6.1 (8d0f1dd) compiled by 'conda@1efc2f54142f' on 2023-08-01
          program call               : xtb xtbopt.xyz --opt crude --input .xc2 --gfn2

   ID    Z sym.   atoms
    1    7 N      1, 17
    2    6 C      2-6, 8, 9, 11-16, 18-23, 25, 26, 28-33
    3    8 O      7, 10, 24, 27
    4    1 H      34-72
########################################################################
[WARNING] Please study the warnings concerning your input carefully
-1- readin_getIntValue: could not parse ''
########################################################################

          :  Hamiltonian                  GFN2-xTB          :
 * total energy  :   -99.2567140 Eh     change       -0.4376943E-11 Eh
 * total energy  :   -99.3662161 Eh     change       -0.1095020E+00 Eh
 * total energy  :   -99.3676709 Eh     change       -0.1454841E-02 Eh
 * total energy  :   -99.3685062 Eh     change       -0.8352523E-03 Eh
 * total energy  :   -99.3686180 Eh     change       -0.1118545E-03 Eh
   *** GEOMETRY OPTIMIZATION CONVERGED AFTER 5 ITERATIONS ***

 final structure:
================
72
 xtb: 6.6.1 (8d0f1dd)
N           -2.23665262830607        3.22858314018101        2.26044605367969
C           -2.00417936945394        2.36737974873366        1.38613791225917
C           -2.90778117364969        2.06914336697875        0.22038179230241
C           -3.33233648381105        0.61121816271493        0.27403508021327
C           -3.96765116031392        0.02832924391510       -0.82469215226094
C           -4.38067085341646       -1.29357041174098       -0.80448019450092
O           -5.00376102091804       -1.93170503066826       -1.81764566716527
C           -5.38913960368872       -1.20196101403367       -2.95857457527292
C           -4.14561805354627       -2.08323128964090        0.35343503624394
O           -4.55591165487277       -3.36553284405773        0.27572860345315
C           -4.41498675264173       -4.19806111951612        1.40316428082744
C           -3.53325293262635       -1.49310445170641        1.44755533979966
C           -3.13786125072931       -0.16156347883870        1.40822452296135
C           -2.05846350943165        2.34909801271633       -1.04998654997431
C           -1.04702500695986        1.24813414166659       -1.43066817727575
C            0.04286687542666        1.08307940412097       -0.44409326326548
N            0.43957755047478       -0.07000511646597        0.06757556607370
C            1.41955402268231       -0.11625021226450        1.14940969745014
C            2.58469988108179       -1.01044477173344        0.85465582988820
C            3.79346076592571       -0.60312743201661        0.40461415052837
C            4.09258556432139        0.84161878047137        0.11480026723354
C            5.43837711862133        1.09958720911164       -0.47611051051024
C            6.37757659198352        0.14581273938399       -0.61965327637916
O            7.61898191953732        0.30282154836815       -1.11844853789658
C            8.03697330705049        1.59287077695928       -1.49890965078845
C            6.07976446127315       -1.23323945905711       -0.22932667049465
O            7.11028532279778       -2.06845423198785       -0.38909581855687
C            6.96625952615179       -3.42596824535019       -0.03699816493517
C            4.84095035454255       -1.56104559944037        0.23172776788247
C           -0.18460090263183       -1.32199186116661       -0.28899126265911
C           -4.19448808344765        2.94684486202739        0.19657246938284
C           -5.06773398128321        2.68717574959332        1.42208782765890
C           -3.90511331995348        4.44073490688174        0.07824374557778
H           -4.15440116470260        0.62403311131811       -1.70304753097928
H           -6.04956470211309       -0.36953067262048       -2.69795568683105
H           -5.93004537878883       -1.90720930470815       -3.58645744526123
H           -4.52086341887458       -0.82368966513936       -3.50827687163565
H           -4.96586006655667       -3.80605742329773        2.26311991059043
H           -4.83674538625187       -5.15789017949715        1.11187808780739
H           -3.36253861074441       -4.33259555428190        1.67360678442012
H           -3.36854183480487       -2.05860433342813        2.35027438970084
H           -2.69382436455908        0.27022615183115        2.29169791849088
H           -2.73172876088872        2.47995858140297       -1.89702934870247
H           -1.52451900215011        3.28945303309045       -0.90671012482828
H           -1.57659216820335        0.31178782502733       -1.59328654522971
H           -0.60167353408915        1.55588380390277       -2.38489397543987
H           -1.08010749547907        1.76214395354537        1.35136959334823
H            0.60942434987987        1.96216398658383       -0.17378669410422
H            0.89928442383039       -0.49015450852008        2.04057438112581
H            1.75672247883286        0.90143604703356        1.34968087707040
H            3.32799265897073        1.26309445826203       -0.54488553270904
H            2.44332416555492       -2.06078377262582        1.06019997800679
H            4.03058968717846        1.40607564662783        1.05766475676361
H            5.63018160844848        2.12126950330124       -0.76132138360300
H            7.98765635686603        2.29124662922378       -0.65809141413522
H            7.43623166071955        1.97773750179046       -2.32878761189262
H            9.07076950787254        1.48459658276796       -1.82051922026853
H            7.93675158947462       -3.88193911223104       -0.22210956436579
H            6.70639112686211       -3.53749722529185        1.01965815378275
H            6.20924626671605       -3.91858855834932       -0.65432343532879
H            4.61218909731539       -2.58282994152767        0.49065057445467
H           -0.14921753997504       -1.47505633023780       -1.36776349392067
H           -1.22681416736913       -1.34662756211208        0.04111639872224
H            0.35373932529134       -2.13429859849638        0.18940417707083
H           -4.76128595121149        2.63898766159948       -0.68996488834329
H           -4.55203189503998        3.00720753334286        2.32187225926686
H           -5.31650483153435        1.63245513700737        1.51222420374815
H           -5.99312262400033        3.25040608911464        1.33612635356731
H           -3.30820900589810        4.77542190779049        0.92069425883771
H           -3.38959217170190        4.68386415036246       -0.84696895816123
H           -4.84496535292166        4.98650803425377        0.08888646137554
H           -1.53991479920057        3.36835971148255        2.98562357871670

          :  Hamiltonian                  GFN2-xTB          :
         :: total energy             -99.368618014948 Eh    ::
         :: gradient norm              0.002946698707 Eh/a0 ::
         :: HOMO-LUMO gap              1.606618311881 eV    ::
         :: SCC energy              -100.744401448631 Eh    ::
         :: -> dispersion             -0.076408011750 Eh    ::
         :: repulsion energy           1.374269281506 Eh    ::

    * Orbital Energies and Occupations

         #    Occupation            Energy/Eh            Energy/eV
      -------------------------------------------------------------
         1        2.0000           -0.8137178             -22.1424
       ...           ...                  ...                  ...
        78        1.9983           -0.5285813             -14.3834
        79        1.9982           -0.5273228             -14.3492
        80        1.9981           -0.5266674             -14.3313
        81        1.9978           -0.5240143             -14.2592
        82        1.9976           -0.5227738             -14.2254
        83        1.9959           -0.5144849             -13.9998
        84        1.9952           -0.5120045             -13.9324
        85        1.9944           -0.5094625             -13.8632
        86        1.9821           -0.4909263             -13.3588
        87        1.9698           -0.4825189             -13.1300
        88        1.9358           -0.4702991             -12.7975
        89        1.8812           -0.4600975             -12.5199
        90        1.8135           -0.4523771             -12.3098 (HOMO)
        91        0.3786           -0.3933350             -10.7032 (LUMO)
        92        0.0492           -0.3580843              -9.7440
        93        0.0141           -0.3380673              -9.1993
        94        0.0039           -0.3173950              -8.6368
        95        0.0031           -0.3140446              -8.5456
        96        0.0007           -0.2900737              -7.8933
        97        0.0000           -0.2175482              -5.9198
        98        0.0000           -0.1917419              -5.2176
        99                         -0.1294744              -3.5232
       100                         -0.0694718              -1.8904
       101                         -0.0676092              -1.8397
       ...                                ...                  ...
       171                          0.5992368              16.3061
      -------------------------------------------------------------
                  HL-Gap            0.0590421 Eh            1.6066 eV

     #   Z          covCN         q      C6AA      α(0)
     1   7 N        1.774    -0.271    27.840     7.813
     2   6 C        2.828     0.101    25.751     8.315
     3   6 C        3.907     0.006    20.416     6.422
     4   6 C        2.974     0.001    28.008     8.681
     5   6 C        2.920    -0.081    30.020     8.985
     6   6 C        2.862     0.128    25.197     8.228
     7   8 O        1.706    -0.232    17.849     5.704
     8   6 C        3.644     0.028    20.439     6.498
     9   6 C        2.864     0.127    25.214     8.231
    10   8 O        1.706    -0.230    17.821     5.700
    11   6 C        3.645     0.027    20.450     6.499
    12   6 C        2.914    -0.075    29.882     8.964
    13   6 C        2.922    -0.053    29.315     8.879
    14   6 C        3.811    -0.063    21.700     6.631
    15   6 C        3.802    -0.070    21.842     6.654
    16   6 C        2.841     0.009    27.800     8.641
    17   7 N        2.728     0.015    20.997     6.806
    18   6 C        3.753    -0.015    20.908     6.521
    19   6 C        2.905    -0.085    30.118     8.999
    20   6 C        2.950     0.020    27.569     8.612
    21   6 C        3.812    -0.065    21.734     6.636
    22   6 C        2.898    -0.079    29.984     8.978
    23   6 C        2.851     0.135    25.041     8.202
    24   8 O        1.706    -0.229    17.795     5.695
    25   6 C        3.647     0.025    20.487     6.504
    26   6 C        2.857     0.147    24.793     8.161
    27   8 O        1.706    -0.209    17.471     5.643
    28   6 C        3.646     0.022    20.538     6.512
    29   6 C        2.913    -0.088    30.215     9.014
    30   6 C        3.700    -0.072    22.044     6.714
    31   6 C        3.853    -0.007    20.670     6.466
    32   6 C        3.756    -0.118    22.806     6.809
    33   6 C        3.755    -0.120    22.858     6.817
    34   1 H        0.926     0.051     2.304     2.374
    35   1 H        0.924     0.054     2.274     2.358
    36   1 H        0.925     0.081     1.971     2.195
    37   1 H        0.924     0.046     2.371     2.408
    38   1 H        0.924     0.055     2.256     2.349
    39   1 H        0.925     0.081     1.971     2.196
    40   1 H        0.924     0.047     2.358     2.401
    41   1 H        0.926     0.052     2.297     2.370
    42   1 H        0.926     0.039     2.464     2.455
    43   1 H        0.925     0.062     2.175     2.306
    44   1 H        0.924     0.054     2.273     2.358
    45   1 H        0.925     0.067     2.118     2.276
    46   1 H        0.924     0.077     2.007     2.215
    47   1 H        0.922     0.002     3.022     2.719
    48   1 H        0.926     0.067     2.123     2.279
    49   1 H        0.924     0.068     2.104     2.268
    50   1 H        0.924     0.063     2.159     2.298
    51   1 H        0.924     0.061     2.182     2.310
    52   1 H        0.926     0.041     2.435     2.440
    53   1 H        0.923     0.070     2.084     2.258
    54   1 H        0.926     0.055     2.262     2.352
    55   1 H        0.924     0.052     2.292     2.367
    56   1 H        0.924     0.052     2.300     2.372
    57   1 H        0.925     0.083     1.953     2.185
    58   1 H        0.925     0.086     1.922     2.168
    59   1 H        0.924     0.057     2.232     2.336
    60   1 H        0.924     0.056     2.243     2.342
    61   1 H        0.926     0.053     2.279     2.361
    62   1 H        0.925     0.077     2.014     2.219
    63   1 H        0.924     0.077     2.007     2.216
    64   1 H        0.925     0.087     1.908     2.160
    65   1 H        0.924     0.036     2.497     2.471
    66   1 H        0.925     0.066     2.126     2.280
    67   1 H        0.925     0.035     2.521     2.483
    68   1 H        0.925     0.051     2.307     2.375
    69   1 H        0.925     0.064     2.147     2.292
    70   1 H        0.925     0.035     2.520     2.482
    71   1 H        0.925     0.054     2.267     2.355
    72   1 H        0.860     0.156     1.360     1.827

Wiberg/Mayer (AO) data.
largest (>0.10) Wiberg bond orders for each atom

     #   Z sym  total        # sym  WBO       # sym  WBO       # sym  WBO
 ---------------------------------------------------------------------------
     1   7 N    3.035 --     2 C    1.955    72 H    0.942
     2   6 C    3.934 --     1 N    1.955     3 C    0.993    47 H    0.909
     3   6 C    3.976 --     2 C    0.993     4 C    0.974    14 C    0.954
                            31 C    0.943
     4   6 C    3.952 --    13 C    1.416     5 C    1.367     3 C    0.974
     5   6 C    3.963 --     6 C    1.402     4 C    1.367    34 H    0.958
     6   6 C    3.907 --     5 C    1.402     9 C    1.224     7 O    1.097
     7   8 O    2.253 --     6 C    1.097     8 C    0.978
     8   6 C    3.933 --     7 O    0.978    36 H    0.977    35 H    0.974
                            37 H    0.974
     9   6 C    3.904 --    12 C    1.392     6 C    1.224    10 O    1.100
    10   8 O    2.253 --     9 C    1.100    11 C    0.978
    11   6 C    3.932 --    10 O    0.978    39 H    0.977    40 H    0.974
                            38 H    0.973
    12   6 C    3.964 --    13 C    1.401     9 C    1.392    41 H    0.964
    13   6 C    3.956 --     4 C    1.416    12 C    1.401    42 H    0.962
    14   6 C    3.969 --    15 C    0.975    44 H    0.973    43 H    0.967
                             3 C    0.954
    15   6 C    3.987 --    16 C    1.059    14 C    0.975    45 H    0.962
                            46 H    0.933
    16   6 C    3.608 --    17 N    1.432    15 C    1.059    48 H    0.956
    17   7 N    3.480 --    16 C    1.432    30 C    0.997    18 C    0.958
    18   6 C    3.955 --    19 C    1.013    50 H    0.964    17 N    0.958
                            49 H    0.951
    19   6 C    3.851 --    20 C    1.676    18 C    1.013    52 H    0.964
    20   6 C    3.967 --    19 C    1.676    29 C    1.189    21 C    1.012
    21   6 C    3.992 --    22 C    1.037    20 C    1.012    51 H    0.946
                            53 H    0.928
    22   6 C    3.884 --    23 C    1.645    21 C    1.037    54 H    0.963
                            24 O    0.114
    23   6 C    3.915 --    22 C    1.645    24 O    1.099    26 C    1.059
    24   8 O    2.259 --    23 C    1.099    25 C    0.977    22 C    0.114
    25   6 C    3.931 --    24 O    0.977    57 H    0.977    55 H    0.974
                            56 H    0.973
    26   6 C    3.889 --    29 C    1.528    27 O    1.138    23 C    1.059
    27   8 O    2.304 --    26 C    1.138    28 C    0.972
    28   6 C    3.928 --    58 H    0.977    59 H    0.973    60 H    0.973
                            27 O    0.972
    29   6 C    3.895 --    26 C    1.528    20 C    1.189    61 H    0.959
    30   6 C    3.955 --    17 N    0.997    64 H    0.974    62 H    0.970
                            63 H    0.957
    31   6 C    3.973 --    33 C    1.009    32 C    1.008    65 H    0.960
                             3 C    0.943
    32   6 C    3.980 --    31 C    1.008    67 H    0.982    68 H    0.982
                            66 H    0.975
    33   6 C    3.981 --    31 C    1.009    70 H    0.983    71 H    0.980
                            69 H    0.975
    34   1 H    0.996 --     5 C    0.958
    35   1 H    0.994 --     8 C    0.974
    36   1 H    0.993 --     8 C    0.977
    37   1 H    0.994 --     8 C    0.974
    38   1 H    0.993 --    11 C    0.973
    39   1 H    0.993 --    11 C    0.977
    40   1 H    0.994 --    11 C    0.974
    41   1 H    0.996 --    12 C    0.964
    42   1 H    0.998 --    13 C    0.962
    43   1 H    0.994 --    14 C    0.967
    44   1 H    0.996 --    14 C    0.973
    45   1 H    0.995 --    15 C    0.962
    46   1 H    0.974 --    15 C    0.933
    47   1 H    0.987 --     2 C    0.909
    48   1 H    0.995 --    16 C    0.956
    49   1 H    0.983 --    18 C    0.951
    50   1 H    0.995 --    18 C    0.964
    51   1 H    0.988 --    21 C    0.946
    52   1 H    0.997 --    19 C    0.964
    53   1 H    0.984 --    21 C    0.928
    54   1 H    0.995 --    22 C    0.963
    55   1 H    0.994 --    25 C    0.974
    56   1 H    0.994 --    25 C    0.973
    57   1 H    0.993 --    25 C    0.977
    58   1 H    0.992 --    28 C    0.977
    59   1 H    0.994 --    28 C    0.973
    60   1 H    0.994 --    28 C    0.973
    61   1 H    0.996 --    29 C    0.959
    62   1 H    0.988 --    30 C    0.970
    63   1 H    0.985 --    30 C    0.957
    64   1 H    0.992 --    30 C    0.974
    65   1 H    0.993 --    31 C    0.960
    66   1 H    0.992 --    32 C    0.975
    67   1 H    0.997 --    32 C    0.982
    68   1 H    0.994 --    32 C    0.982
    69   1 H    0.992 --    33 C    0.975
    70   1 H    0.997 --    33 C    0.983
    71   1 H    0.994 --    33 C    0.980
    72   1 H    0.970 --     1 N    0.942
 ---------------------------------------------------------------------------

molecular dipole:
                 x           y           z       tot (Debye)
 q only:        1.148      -0.105      -0.386
   full:        1.368      -0.119      -0.267       3.556

           -------------------------------------------------
          | TOTAL ENERGY              -99.368618014948 Eh   |
          | GRADIENT NORM               0.002946698707 Eh/α |
          | HOMO-LUMO GAP               1.606618311881 eV   |
           -------------------------------------------------

 * finished run on 2024/04/06 at 11:17:04.077
