   * xtb version 6.6.1 (8d0f1dd) compiled by 'conda@1efc2f54142f' on 2023-08-01
          program call               : xtb struc.xyz --opt loose --input .xc1 --gfn2

   ID    Z sym.   atoms
    1    7 N      1, 17
    2    6 C      2-6, 8, 9, 11-16, 18-23, 25, 26, 28-33
    3    8 O      7, 10, 24, 27
    4    1 H      34-72
constraining bond 53 54 to    4.2800000 Å, actual value:    2.4350186 Å

          :  Hamiltonian                  GFN2-xTB          :
 * total energy  :   -98.7963436 Eh     change       -0.4035485E-08 Eh
 * total energy  :   -99.0510089 Eh     change       -0.2546653E+00 Eh
 * total energy  :   -99.2008251 Eh     change       -0.1498162E+00 Eh
 * total energy  :   -99.2399252 Eh     change       -0.3910009E-01 Eh
 * total energy  :   -99.2441125 Eh     change       -0.4187264E-02 Eh
 * total energy  :   -99.2455078 Eh     change       -0.1395353E-02 Eh
 * total energy  :   -99.2474545 Eh     change       -0.1946623E-02 Eh
 * total energy  :   -99.2484784 Eh     change       -0.1023955E-02 Eh
 * total energy  :   -99.2490034 Eh     change       -0.5249259E-03 Eh
 * total energy  :   -99.2493725 Eh     change       -0.3691226E-03 Eh
 * total energy  :   -99.2501544 Eh     change       -0.1632730E-03 Eh
 * total energy  :   -99.2502376 Eh     change       -0.8317766E-04 Eh
 * total energy  :   -99.2502913 Eh     change       -0.5368875E-04 Eh
 * total energy  :   -99.2503430 Eh     change       -0.5173105E-04 Eh
 * total energy  :   -99.2503928 Eh     change       -0.4981971E-04 Eh
 * total energy  :   -99.2504434 Eh     change       -0.5063466E-04 Eh
 * total energy  :   -99.2504957 Eh     change       -0.5228716E-04 Eh
 * total energy  :   -99.2505458 Eh     change       -0.5005208E-04 Eh
 * total energy  :   -99.2505849 Eh     change       -0.3910145E-04 Eh
   *** GEOMETRY OPTIMIZATION CONVERGED AFTER 21 ITERATIONS ***

 final structure:
================
72
 xtb: 6.6.1 (8d0f1dd)
N           -1.86552960042056        2.77541060310242        2.21894619010233
C           -1.82381215535618        2.11094182055303        1.16310981184296
C           -2.98315226965917        1.90842109418193        0.22742204344114
C           -3.46576964097444        0.46723897566128        0.31217891264435
C           -4.42570691199413        0.00409777065774       -0.59040780194174
C           -4.90320810576250       -1.29479847736719       -0.53675892058940
O           -5.83553062049176       -1.81993069316462       -1.35765559326326
C           -6.47450852537046       -0.99294476478583       -2.30148245347024
C           -4.39683791976494       -2.18648830718099        0.44750723970459
O           -4.90823825226410       -3.43326051776764        0.41845800540657
C           -4.51698295445694       -4.35596707655970        1.40798192476605
C           -3.44570354430166       -1.72054456144286        1.34044092386249
C           -2.98914814403848       -0.40964365769722        1.27411362779969
C           -2.43920223306161        2.18936750901173       -1.19718966383053
C           -1.49781264897475        1.09788962575727       -1.73913800519582
C           -0.17126806976927        1.08572639234221       -1.08230534313975
N            0.48401575166045        0.00242770203738       -0.67763984777292
C            1.86155300001202        0.10255716459653       -0.25688194756117
C            2.83139683917774       -0.37744495397554       -1.35397709281050
C            4.25787570463230       -0.06758790902504       -0.95036015165462
C            4.77387550608939        1.19455053461029       -1.24212752232303
C            6.21007308897976        1.44407476520086       -0.75151422761105
C            6.80510783104883        0.36936985269246       -0.09366769553444
O            8.06661323832262        0.38083685346426        0.41310305870204
C            8.96946432536871        1.45349279454234        0.28911004684350
C            6.20444572442106       -0.89915941480759        0.15855516747841
O            6.97554244050328       -1.79016917107583        0.80515390262162
C            6.45458916335498       -3.07216760668941        1.06477126688055
C            4.91793575236521       -1.09349886948947       -0.27215434153074
C           -0.12102969568692       -1.30723976316414       -0.68667934019347
C           -4.18263208797284        2.85163228492225        0.53881718599073
C           -4.80838609510333        2.52384607067061        1.89245857161048
C           -3.81029985800017        4.33086994092082        0.48425592334568
H           -4.81747668532510        0.67495604685443       -1.33683057848361
H           -6.98285069810509       -0.15230774746458       -1.81981459267100
H           -7.21193465924551       -1.62659680098139       -2.79049588910291
H           -5.77042171167646       -0.61648788105815       -3.05060147576316
H           -4.75515537611836       -3.99164436326625        2.41160623279994
H           -5.08832260891405       -5.26000679705021        1.20719047344727
H           -3.44769035235362       -4.58247111781813        1.34505756220412
H           -3.05741486541584       -2.36878210011553        2.10916497623043
H           -2.27154239273469       -0.07568586848802        2.00763294721938
H           -3.28090846419629        2.28021305235990       -1.88265468493578
H           -1.91257475286853        3.14455987392618       -1.19351304861526
H           -1.98869771621493        0.12792860401143       -1.68041602326096
H           -1.33081240140350        1.32523235885667       -2.80010214487244
H           -0.90400041068764        1.63003905449373        0.77395908510207
H            0.38419621597143        2.01245583040226       -1.07922699679845
H            2.00946958963374       -0.49250676464812        0.64825134361492
H            2.08872839407496        1.14363226564961       -0.01592006449046
H            2.57178065053362        0.12136443999400       -2.29190256854665
H            2.70668866985855       -1.44949295270196       -1.50825165659451
H            3.68920011409569        1.61522571453627       -1.86535699326700
H            7.24947365080159        2.21918491292146       -0.62232925124940
H            8.63670968635795        2.34805532415828        0.82956785335196
H            9.19038089316952        1.69893379550508       -0.75622213700812
H            9.88388612936996        1.09000571803581        0.75825451135781
H            7.25205307511097       -3.61655713681515        1.56615394895150
H            5.58035071668170       -3.02140325322520        1.72157834142242
H            6.18745640420576       -3.58937759379816        0.13810704582995
H            4.41433541877412       -2.03341311983712       -0.11069058324321
H           -0.27032860029199       -1.66825475743448       -1.70667110253655
H           -1.08790976219400       -1.28268605588008       -0.17751524801807
H            0.52857061859704       -2.00480158030734       -0.16426229202768
H           -4.93592977550248        2.66555216809502       -0.23488075511916
H           -4.09239816298204        2.70725453718731        2.68696162199795
H           -5.12615018448810        1.48498435308523        1.93668143858909
H           -5.67711488062688        3.15588264577730        2.05562083386437
H           -3.03354263058559        4.55413404593361        1.20919688413611
H           -3.47438688708431        4.62883383826977       -0.50558090641046
H           -4.68427856846165        4.92730190152309        0.73195071022330
H           -1.01265111527212        2.86897892108117        2.76112417065189

          :  Hamiltonian                  GFN2-xTB          :
         :: total energy             -99.250584890959 Eh    ::
         :: gradient norm              0.003982368398 Eh/a0 ::
         :: HOMO-LUMO gap              1.716435662319 eV    ::
         :: SCC energy              -100.611257627384 Eh    ::
         :: -> dispersion             -0.075253827367 Eh    ::
         :: repulsion energy           1.321499872110 Eh    ::

    * Orbital Energies and Occupations

         #    Occupation            Energy/Eh            Energy/eV
      -------------------------------------------------------------
         1        2.0000           -0.8085616             -22.0021
       ...           ...                  ...                  ...
        78        1.9983           -0.5280584             -14.3692
        79        1.9983           -0.5279391             -14.3660
        80        1.9980           -0.5257117             -14.3053
        81        1.9976           -0.5226408             -14.2218
        82        1.9961           -0.5150842             -14.0162
        83        1.9954           -0.5123641             -13.9421
        84        1.9945           -0.5095552             -13.8657
        85        1.9915           -0.5028447             -13.6831
        86        1.9814           -0.4902589             -13.3406
        87        1.9616           -0.4786614             -13.0250
        88        1.9410           -0.4716671             -12.8347
        89        1.8747           -0.4592002             -12.4955
        90        1.8583           -0.4571086             -12.4386 (HOMO)
        91        0.3924           -0.3940307             -10.7221 (LUMO)
        92        0.0159           -0.3399452              -9.2504
        93        0.0057           -0.3235414              -8.8040
        94        0.0036           -0.3163443              -8.6082
        95        0.0030           -0.3134263              -8.5288
        96        0.0019           -0.3065478              -8.3416
        97        0.0000           -0.2311752              -6.2906
        98        0.0000           -0.1966790              -5.3519
        99        0.0000           -0.1906658              -5.1883
       100        0.0000           -0.1756874              -4.7807
       101                         -0.1347479              -3.6667
       ...                                ...                  ...
       171                          0.5727062              15.5841
      -------------------------------------------------------------
                  HL-Gap            0.0630778 Eh            1.7164 eV

     #   Z          covCN         q      C6AA      α(0)
     1   7 N        1.774    -0.267    27.742     7.800
     2   6 C        2.826     0.100    25.768     8.318
     3   6 C        3.908     0.007    20.410     6.421
     4   6 C        2.974     0.003    27.959     8.673
     5   6 C        2.920    -0.079    29.987     8.980
     6   6 C        2.862     0.130    25.154     8.221
     7   8 O        1.706    -0.230    17.808     5.698
     8   6 C        3.644     0.027    20.452     6.501
     9   6 C        2.864     0.129    25.182     8.226
    10   8 O        1.706    -0.229    17.790     5.695
    11   6 C        3.646     0.027    20.453     6.500
    12   6 C        2.914    -0.075    29.873     8.962
    13   6 C        2.921    -0.054    29.337     8.882
    14   6 C        3.813    -0.065    21.736     6.636
    15   6 C        3.802    -0.069    21.811     6.649
    16   6 C        2.844     0.008    27.844     8.648
    17   7 N        2.729     0.008    21.128     6.827
    18   6 C        3.755    -0.015    20.902     6.519
    19   6 C        3.811    -0.070    21.828     6.650
    20   6 C        2.965    -0.006    28.179     8.707
    21   6 C        2.700    -0.039    28.946     8.806
    22   6 C        2.727    -0.066    29.606     8.908
    23   6 C        2.847     0.123    25.299     8.243
    24   8 O        1.709    -0.240    17.973     5.724
    25   6 C        3.630     0.031    20.454     6.512
    26   6 C        2.867     0.136    25.028     8.200
    27   8 O        1.706    -0.220    17.650     5.672
    28   6 C        3.648     0.026    20.458     6.499
    29   6 C        2.917    -0.085    30.135     9.002
    30   6 C        3.699    -0.070    22.013     6.710
    31   6 C        3.853    -0.007    20.672     6.467
    32   6 C        3.756    -0.119    22.844     6.815
    33   6 C        3.755    -0.118    22.814     6.811
    34   1 H        0.926     0.052     2.294     2.369
    35   1 H        0.924     0.054     2.272     2.357
    36   1 H        0.925     0.081     1.966     2.193
    37   1 H        0.924     0.048     2.350     2.397
    38   1 H        0.924     0.055     2.259     2.351
    39   1 H        0.925     0.081     1.967     2.193
    40   1 H        0.924     0.048     2.349     2.397
    41   1 H        0.926     0.051     2.302     2.372
    42   1 H        0.926     0.038     2.480     2.463
    43   1 H        0.925     0.060     2.199     2.319
    44   1 H        0.924     0.053     2.278     2.361
    45   1 H        0.925     0.065     2.139     2.287
    46   1 H        0.924     0.079     1.988     2.205
    47   1 H        0.922     0.009     2.902     2.664
    48   1 H        0.926     0.069     2.100     2.266
    49   1 H        0.924     0.066     2.129     2.282
    50   1 H        0.924     0.066     2.127     2.281
    51   1 H        0.924     0.053     2.281     2.362
    52   1 H        0.924     0.055     2.256     2.349
    53   1 H        0.732     0.045     2.501     2.501
    54   1 H        0.764     0.077     2.072     2.268
    55   1 H        0.924     0.056     2.241     2.341
    56   1 H        0.924     0.058     2.227     2.334
    57   1 H        0.925     0.085     1.933     2.174
    58   1 H        0.925     0.082     1.956     2.187
    59   1 H        0.924     0.049     2.330     2.387
    60   1 H        0.924     0.053     2.284     2.363
    61   1 H        0.926     0.047     2.362     2.403
    62   1 H        0.924     0.076     2.026     2.226
    63   1 H        0.924     0.080     1.981     2.201
    64   1 H        0.925     0.079     1.992     2.207
    65   1 H        0.924     0.038     2.482     2.464
    66   1 H        0.925     0.070     2.081     2.256
    67   1 H        0.925     0.036     2.507     2.476
    68   1 H        0.925     0.051     2.306     2.375
    69   1 H        0.925     0.058     2.219     2.330
    70   1 H        0.925     0.034     2.525     2.485
    71   1 H        0.925     0.055     2.262     2.352
    72   1 H        0.860     0.157     1.351     1.821

Wiberg/Mayer (AO) data.
largest (>0.10) Wiberg bond orders for each atom

     #   Z sym  total        # sym  WBO       # sym  WBO       # sym  WBO
 ---------------------------------------------------------------------------
     1   7 N    3.047 --     2 C    1.957    72 H    0.941
     2   6 C    3.924 --     1 N    1.957     3 C    0.995    47 H    0.890
     3   6 C    3.976 --     2 C    0.995     4 C    0.968    14 C    0.958
                            31 C    0.942
     4   6 C    3.950 --    13 C    1.414     5 C    1.368     3 C    0.968
     5   6 C    3.962 --     6 C    1.402     4 C    1.368    34 H    0.958
     6   6 C    3.906 --     5 C    1.402     9 C    1.221     7 O    1.100
     7   8 O    2.255 --     6 C    1.100     8 C    0.978
     8   6 C    3.932 --     7 O    0.978    36 H    0.977    35 H    0.974
                            37 H    0.973
     9   6 C    3.903 --    12 C    1.393     6 C    1.221    10 O    1.101
    10   8 O    2.253 --     9 C    1.101    11 C    0.978
    11   6 C    3.932 --    10 O    0.978    39 H    0.977    40 H    0.974
                            38 H    0.973
    12   6 C    3.963 --    13 C    1.401     9 C    1.393    41 H    0.964
    13   6 C    3.955 --     4 C    1.414    12 C    1.401    42 H    0.963
    14   6 C    3.972 --    15 C    0.981    44 H    0.972    43 H    0.969
                             3 C    0.958
    15   6 C    3.987 --    16 C    1.059    14 C    0.981    45 H    0.962
                            46 H    0.928
    16   6 C    3.599 --    17 N    1.393    15 C    1.059    48 H    0.957
    17   7 N    3.476 --    16 C    1.393    30 C    0.999    18 C    0.988
    18   6 C    3.956 --    17 N    0.988    19 C    0.969    50 H    0.966
                            49 H    0.964
    19   6 C    3.976 --    20 C    1.001    52 H    0.971    18 C    0.969
                            51 H    0.960
    20   6 C    3.944 --    21 C    1.487    29 C    1.333    19 C    1.001
    21   6 C    3.899 --    20 C    1.487    22 C    1.276    53 H    0.933
    22   6 C    3.902 --    23 C    1.462    21 C    1.276    54 H    0.911
    23   6 C    3.892 --    22 C    1.462    26 C    1.182    24 O    1.083
    24   8 O    2.236 --    23 C    1.083    25 C    0.978
    25   6 C    3.933 --    24 O    0.978    57 H    0.967    56 H    0.964
                            55 H    0.963
    26   6 C    3.902 --    29 C    1.426    23 C    1.182    27 O    1.110
    27   8 O    2.265 --    26 C    1.110    28 C    0.977
    28   6 C    3.932 --    27 O    0.977    58 H    0.977    59 H    0.974
                            60 H    0.973
    29   6 C    3.951 --    26 C    1.426    20 C    1.333    61 H    0.961
    30   6 C    3.957 --    17 N    0.999    64 H    0.978    62 H    0.966
                            63 H    0.959
    31   6 C    3.972 --    33 C    1.009    32 C    1.008    65 H    0.960
                             3 C    0.942
    32   6 C    3.978 --    31 C    1.008    67 H    0.982    68 H    0.981
                            66 H    0.973
    33   6 C    3.984 --    31 C    1.009    70 H    0.983    71 H    0.980
                            69 H    0.977
    34   1 H    0.996 --     5 C    0.958
    35   1 H    0.993 --     8 C    0.974
    36   1 H    0.993 --     8 C    0.977
    37   1 H    0.994 --     8 C    0.973
    38   1 H    0.993 --    11 C    0.973
    39   1 H    0.993 --    11 C    0.977
    40   1 H    0.993 --    11 C    0.974
    41   1 H    0.996 --    12 C    0.964
    42   1 H    0.998 --    13 C    0.963
    43   1 H    0.995 --    14 C    0.969
    44   1 H    0.996 --    14 C    0.972
    45   1 H    0.995 --    15 C    0.962
    46   1 H    0.971 --    15 C    0.928
    47   1 H    0.987 --     2 C    0.890
    48   1 H    0.995 --    16 C    0.957
    49   1 H    0.991 --    18 C    0.964
    50   1 H    0.995 --    18 C    0.966
    51   1 H    0.996 --    19 C    0.960
    52   1 H    0.996 --    19 C    0.971
    53   1 H    0.995 --    21 C    0.933
    54   1 H    0.990 --    22 C    0.911
    55   1 H    0.991 --    25 C    0.963
    56   1 H    0.992 --    25 C    0.964
    57   1 H    0.992 --    25 C    0.967
    58   1 H    0.993 --    28 C    0.977
    59   1 H    0.993 --    28 C    0.974
    60   1 H    0.993 --    28 C    0.973
    61   1 H    0.996 --    29 C    0.961
    62   1 H    0.985 --    30 C    0.966
    63   1 H    0.987 --    30 C    0.959
    64   1 H    0.993 --    30 C    0.978
    65   1 H    0.993 --    31 C    0.960
    66   1 H    0.991 --    32 C    0.973
    67   1 H    0.997 --    32 C    0.982
    68   1 H    0.994 --    32 C    0.981
    69   1 H    0.994 --    33 C    0.977
    70   1 H    0.997 --    33 C    0.983
    71   1 H    0.994 --    33 C    0.980
    72   1 H    0.970 --     1 N    0.941
 ---------------------------------------------------------------------------

molecular dipole:
                 x           y           z       tot (Debye)
 q only:        0.871      -0.041      -0.749
   full:        1.176      -0.191      -0.878       3.762

           -------------------------------------------------
          | TOTAL ENERGY              -99.250584890959 Eh   |
          | GRADIENT NORM               0.003982368398 Eh/α |
          | HOMO-LUMO GAP               1.716435662319 eV   |
           -------------------------------------------------

 * finished run on 2024/04/06 at 11:15:09.796
