   * xtb version 6.6.1 (8d0f1dd) compiled by 'conda@1efc2f54142f' on 2023-08-01
          program call               : xtb xtbopt.xyz --opt crude --input .xc2 --gfn2

   ID    Z sym.   atoms
    1    7 N      1, 17
    2    6 C      2-6, 8, 9, 11-16, 18-23, 25, 26, 28-33
    3    8 O      7, 10, 24, 27
    4    1 H      34-72
########################################################################
[WARNING] Please study the warnings concerning your input carefully
-1- readin_getIntValue: could not parse ''
########################################################################

          :  Hamiltonian                  GFN2-xTB          :
 * total energy  :   -99.2885167 Eh     change       -0.2103206E-11 Eh
 * total energy  :   -99.3552571 Eh     change       -0.6674041E-01 Eh
 * total energy  :   -99.3907404 Eh     change       -0.3548328E-01 Eh
 * total energy  :   -99.4019177 Eh     change       -0.1117732E-01 Eh
 * total energy  :   -99.4049082 Eh     change       -0.2990552E-02 Eh
 * total energy  :   -99.4059356 Eh     change       -0.1027348E-02 Eh
 * total energy  :   -99.4060938 Eh     change       -0.1581663E-03 Eh
 * total energy  :   -99.4064552 Eh     change       -0.3614880E-03 Eh
   *** GEOMETRY OPTIMIZATION CONVERGED AFTER 8 ITERATIONS ***

 final structure:
================
72
 xtb: 6.6.1 (8d0f1dd)
N           -1.87202409816264        2.78532625692882        2.22353891574047
C           -1.83103341402895        2.11485750012064        1.17125255338981
C           -2.98811383362500        1.91120667832430        0.23332226293178
C           -3.46784966443462        0.46931487739640        0.31884341046427
C           -4.42310990259704        0.00377057713122       -0.58717365448531
C           -4.89894872236357       -1.29554695439700       -0.53402714163103
O           -5.82789703625350       -1.82039915174009       -1.35912120064258
C           -6.46346493947078       -0.98931775583616       -2.30171709652736
C           -4.39558709933721       -2.18565166378517        0.45316346719850
O           -4.90642663267614       -3.43271953579786        0.42334847946126
C           -4.51777194748406       -4.35645565364441        1.41294140699329
C           -3.44855684005973       -1.71743379827267        1.34939349632086
C           -2.99432765684765       -0.40558819642103        1.28402089746692
C           -2.44140729060922        2.19370188362616       -1.19032698724037
C           -1.50148506463264        1.10316233704192       -1.73675640762492
C           -0.16812787962251        1.09616488151828       -1.09351565530576
N            0.49100934667339        0.01577124309171       -0.69067650470378
C            1.86937766252915        0.11612979118048       -0.27200600698604
C            2.84030052890081       -0.34336720501627       -1.37665756791562
C            4.26008882148232       -0.13111668608603       -0.92974692180946
C            4.90310928326275        1.07576046861231       -1.14859214489148
C            6.20426973534431        1.28421754597569       -0.70900926194017
C            6.88757396820565        0.28521973762166       -0.03401578335461
O            8.14172643936142        0.35472797964416        0.44339098684810
C            8.90928872618760        1.52169545860268        0.23793634316013
C            6.23467300770224       -0.95924580558316        0.19419037194692
O            6.97792333972819       -1.87524024123990        0.84645833651385
C            6.44099258282413       -3.15295549601818        1.09083524103470
C            4.93658305976445       -1.14322593362389       -0.25235240931049
C           -0.10779071183699       -1.29714680848942       -0.70314442406557
C           -4.19199155556448        2.85138882598102        0.53848574683142
C           -4.82450314542199        2.52509679261635        1.88930616684047
C           -3.82418496662114        4.33159689249511        0.48360615291431
H           -4.81213161564094        0.67306140841931       -1.33627542193376
H           -6.96924688022618       -0.14823946386840       -1.81804090873020
H           -7.20252993332919       -1.61884365274780       -2.79338598607631
H           -5.75715605345180       -0.61301016872914       -3.04888935579167
H           -4.75968852599483       -3.99448743765246        2.41653255820108
H           -5.08792128042358       -5.26044722489420        1.20831514132397
H           -3.44815701653888       -4.58223696267667        1.35337863994772
H           -3.06195636054639       -2.36434235249447        2.12011391685345
H           -2.28095022706049       -0.06914446197737        2.02049364815332
H           -3.28269911007259        2.28814319038575       -1.87580205636889
H           -1.91326465262722        3.14782201505315       -1.18339102504646
H           -1.98848449988864        0.13195754274845       -1.66822347942372
H           -1.34767995092326        1.32575071241202       -2.80067749153458
H           -0.91219995981035        1.62715453517144        0.78856505049300
H            0.38478735830378        2.02436799683646       -1.09100619446423
H            2.01901670653063       -0.49664614027017        0.62112303272346
H            2.09470692537848        1.15327421961176       -0.01511821653998
H            2.64164664036497        0.23466733734902       -2.28150989083064
H            2.66930165708233       -1.39836220825590       -1.59669627352457
H            4.39805912567936        1.88614352048414       -1.65632845396154
H            6.66125689927049        2.23634272365118       -0.89115350163024
H            8.46806398314813        2.38830679805075        0.74176317076389
H            9.03019063728103        1.74140049024766       -0.82723468332119
H            9.88332774273223        1.30349296890101        0.67735809036559
H            7.22849530562312       -3.70837996634641        1.59638654378350
H            5.56151615303843       -3.10062844987414        1.74057956470765
H            6.17954066625730       -3.66305010076173        0.15861118846529
H            4.43969782504790       -2.08705593031137       -0.08996291090072
H           -0.25720169126354       -1.65438757562168       -1.72428291893305
H           -1.07380688164435       -1.28079172836927       -0.19199273374194
H            0.54589026672529       -1.99374891480230       -0.18447619444199
H           -4.94080962535998        2.66135213997891       -0.23864739701874
H           -4.11486320093963        2.71567034110548        2.68781190091540
H           -5.13726889447037        1.48480581253137        1.93565489052660
H           -5.69794321296417        3.15291311224377        2.04408728357113
H           -3.05494144159885        4.55824916813786        1.21545132205093
H           -3.47976113602261        4.62822883152002       -0.50366638954265
H           -4.70236986637704        4.92596325797529        0.72141992415794
H           -1.01826437860509        2.87517529738104        2.76518539172998

          :  Hamiltonian                  GFN2-xTB          :
         :: total energy             -99.406455246722 Eh    ::
         :: gradient norm              0.008045933035 Eh/a0 ::
         :: HOMO-LUMO gap              1.672187280032 eV    ::
         :: SCC energy              -100.785201278441 Eh    ::
         :: -> dispersion             -0.075105339281 Eh    ::
         :: repulsion energy           1.377503988351 Eh    ::

    * Orbital Energies and Occupations

         #    Occupation            Energy/Eh            Energy/eV
      -------------------------------------------------------------
         1        2.0000           -0.8087764             -22.0079
       ...           ...                  ...                  ...
        78        1.9983           -0.5288895             -14.3918
        79        1.9983           -0.5284995             -14.3812
        80        1.9982           -0.5281188             -14.3708
        81        1.9975           -0.5228606             -14.2278
        82        1.9971           -0.5201580             -14.1542
        83        1.9960           -0.5152316             -14.0202
        84        1.9953           -0.5124714             -13.9451
        85        1.9944           -0.5097158             -13.8701
        86        1.9812           -0.4904952             -13.3471
        87        1.9784           -0.4882568             -13.2861
        88        1.9402           -0.4718648             -12.8401
        89        1.8735           -0.4594348             -12.5019
        90        1.8430           -0.4557548             -12.4017 (HOMO)
        91        0.3899           -0.3943031             -10.7295 (LUMO)
        92        0.0154           -0.3398658              -9.2482
        93        0.0036           -0.3165550              -8.6139
        94        0.0030           -0.3136261              -8.5342
        95        0.0027           -0.3120976              -8.4926
        96        0.0024           -0.3102095              -8.4412
        97        0.0000           -0.1908666              -5.1937
        98        0.0000           -0.1875950              -5.1047
        99                         -0.1366694              -3.7190
       100                         -0.0684967              -1.8639
       101                         -0.0642667              -1.7488
       ...                                ...                  ...
       171                          0.5813865              15.8203
      -------------------------------------------------------------
                  HL-Gap            0.0614518 Eh            1.6722 eV

     #   Z          covCN         q      C6AA      α(0)
     1   7 N        1.773    -0.267    27.758     7.802
     2   6 C        2.826     0.101    25.760     8.317
     3   6 C        3.907     0.006    20.411     6.422
     4   6 C        2.974     0.003    27.960     8.674
     5   6 C        2.920    -0.080    29.990     8.981
     6   6 C        2.862     0.130    25.155     8.221
     7   8 O        1.706    -0.230    17.807     5.697
     8   6 C        3.644     0.027    20.450     6.500
     9   6 C        2.864     0.129    25.181     8.225
    10   8 O        1.706    -0.228    17.788     5.694
    11   6 C        3.645     0.027    20.455     6.500
    12   6 C        2.914    -0.075    29.870     8.962
    13   6 C        2.921    -0.054    29.336     8.882
    14   6 C        3.812    -0.065    21.738     6.636
    15   6 C        3.802    -0.069    21.818     6.650
    16   6 C        2.844     0.008    27.838     8.647
    17   7 N        2.729     0.010    21.083     6.820
    18   6 C        3.756    -0.016    20.919     6.521
    19   6 C        3.807    -0.070    21.839     6.653
    20   6 C        2.968     0.000    28.025     8.683
    21   6 C        2.922    -0.049    29.214     8.864
    22   6 C        2.914    -0.068    29.701     8.937
    23   6 C        2.862     0.134    25.062     8.206
    24   8 O        1.706    -0.222    17.677     5.677
    25   6 C        3.642     0.024    20.512     6.511
    26   6 C        2.864     0.133    25.093     8.211
    27   8 O        1.706    -0.224    17.724     5.684
    28   6 C        3.645     0.027    20.455     6.501
    29   6 C        2.919    -0.079    29.987     8.980
    30   6 C        3.699    -0.071    22.021     6.711
    31   6 C        3.853    -0.007    20.673     6.467
    32   6 C        3.756    -0.119    22.838     6.814
    33   6 C        3.755    -0.118    22.816     6.811
    34   1 H        0.926     0.052     2.293     2.368
    35   1 H        0.924     0.054     2.272     2.357
    36   1 H        0.925     0.081     1.965     2.192
    37   1 H        0.924     0.048     2.350     2.397
    38   1 H        0.924     0.055     2.258     2.350
    39   1 H        0.925     0.081     1.966     2.193
    40   1 H        0.924     0.048     2.348     2.396
    41   1 H        0.926     0.052     2.300     2.372
    42   1 H        0.926     0.038     2.477     2.461
    43   1 H        0.925     0.060     2.197     2.318
    44   1 H        0.924     0.054     2.277     2.360
    45   1 H        0.925     0.066     2.134     2.284
    46   1 H        0.924     0.080     1.981     2.201
    47   1 H        0.922     0.008     2.924     2.674
    48   1 H        0.926     0.070     2.090     2.261
    49   1 H        0.924     0.067     2.118     2.276
    50   1 H        0.924     0.067     2.119     2.276
    51   1 H        0.924     0.055     2.256     2.349
    52   1 H        0.924     0.056     2.251     2.346
    53   1 H        0.925     0.045     2.387     2.416
    54   1 H        0.926     0.059     2.212     2.326
    55   1 H        0.924     0.055     2.259     2.350
    56   1 H        0.924     0.056     2.241     2.341
    57   1 H        0.924     0.083     1.950     2.184
    58   1 H        0.925     0.082     1.959     2.189
    59   1 H        0.924     0.049     2.337     2.391
    60   1 H        0.924     0.052     2.289     2.366
    61   1 H        0.926     0.047     2.357     2.401
    62   1 H        0.924     0.076     2.019     2.222
    63   1 H        0.924     0.080     1.980     2.200
    64   1 H        0.925     0.079     1.985     2.203
    65   1 H        0.924     0.037     2.483     2.464
    66   1 H        0.925     0.070     2.085     2.258
    67   1 H        0.925     0.036     2.507     2.476
    68   1 H        0.925     0.051     2.305     2.374
    69   1 H        0.925     0.059     2.214     2.327
    70   1 H        0.925     0.034     2.525     2.485
    71   1 H        0.925     0.055     2.262     2.352
    72   1 H        0.860     0.157     1.353     1.822

Wiberg/Mayer (AO) data.
largest (>0.10) Wiberg bond orders for each atom

     #   Z sym  total        # sym  WBO       # sym  WBO       # sym  WBO
 ---------------------------------------------------------------------------
     1   7 N    3.044 --     2 C    1.957    72 H    0.941
     2   6 C    3.926 --     1 N    1.957     3 C    0.995    47 H    0.893
     3   6 C    3.976 --     2 C    0.995     4 C    0.968    14 C    0.958
                            31 C    0.942
     4   6 C    3.950 --    13 C    1.415     5 C    1.368     3 C    0.968
     5   6 C    3.962 --     6 C    1.402     4 C    1.368    34 H    0.958
     6   6 C    3.906 --     5 C    1.402     9 C    1.221     7 O    1.100
     7   8 O    2.255 --     6 C    1.100     8 C    0.978
     8   6 C    3.932 --     7 O    0.978    36 H    0.977    35 H    0.974
                            37 H    0.973
     9   6 C    3.902 --    12 C    1.393     6 C    1.221    10 O    1.102
    10   8 O    2.253 --     9 C    1.102    11 C    0.978
    11   6 C    3.931 --    10 O    0.978    39 H    0.977    40 H    0.974
                            38 H    0.973
    12   6 C    3.963 --    13 C    1.401     9 C    1.393    41 H    0.964
    13   6 C    3.955 --     4 C    1.415    12 C    1.401    42 H    0.963
    14   6 C    3.972 --    15 C    0.981    44 H    0.972    43 H    0.969
                             3 C    0.958
    15   6 C    3.987 --    16 C    1.059    14 C    0.981    45 H    0.962
                            46 H    0.928
    16   6 C    3.599 --    17 N    1.398    15 C    1.059    48 H    0.957
    17   7 N    3.480 --    16 C    1.398    30 C    0.998    18 C    0.988
    18   6 C    3.956 --    17 N    0.988    50 H    0.968    19 C    0.967
                            49 H    0.964
    19   6 C    3.976 --    20 C    1.007    52 H    0.972    51 H    0.972
                            18 C    0.967
    20   6 C    3.944 --    21 C    1.413    29 C    1.377    19 C    1.007
    21   6 C    3.949 --    20 C    1.413    22 C    1.412    53 H    0.968
    22   6 C    3.959 --    21 C    1.412    23 C    1.387    54 H    0.964
    23   6 C    3.895 --    22 C    1.387    26 C    1.215    24 O    1.113
    24   8 O    2.257 --    23 C    1.113    25 C    0.974
    25   6 C    3.927 --    57 H    0.977    24 O    0.974    56 H    0.973
                            55 H    0.973
    26   6 C    3.898 --    29 C    1.398    23 C    1.215    27 O    1.104
    27   8 O    2.254 --    26 C    1.104    28 C    0.979
    28   6 C    3.932 --    27 O    0.979    58 H    0.977    59 H    0.973
                            60 H    0.973
    29   6 C    3.959 --    26 C    1.398    20 C    1.377    61 H    0.962
    30   6 C    3.957 --    17 N    0.998    64 H    0.978    62 H    0.966
                            63 H    0.960
    31   6 C    3.972 --    33 C    1.009    32 C    1.008    65 H    0.960
                             3 C    0.942
    32   6 C    3.978 --    31 C    1.008    67 H    0.982    68 H    0.981
                            66 H    0.973
    33   6 C    3.984 --    31 C    1.009    70 H    0.983    71 H    0.980
                            69 H    0.977
    34   1 H    0.996 --     5 C    0.958
    35   1 H    0.993 --     8 C    0.974
    36   1 H    0.993 --     8 C    0.977
    37   1 H    0.994 --     8 C    0.973
    38   1 H    0.993 --    11 C    0.973
    39   1 H    0.993 --    11 C    0.977
    40   1 H    0.993 --    11 C    0.974
    41   1 H    0.996 --    12 C    0.964
    42   1 H    0.998 --    13 C    0.963
    43   1 H    0.995 --    14 C    0.969
    44   1 H    0.996 --    14 C    0.972
    45   1 H    0.995 --    15 C    0.962
    46   1 H    0.971 --    15 C    0.928
    47   1 H    0.987 --     2 C    0.893
    48   1 H    0.995 --    16 C    0.957
    49   1 H    0.991 --    18 C    0.964
    50   1 H    0.994 --    18 C    0.968
    51   1 H    0.996 --    19 C    0.972
    52   1 H    0.996 --    19 C    0.972
    53   1 H    0.997 --    21 C    0.968
    54   1 H    0.995 --    22 C    0.964
    55   1 H    0.991 --    25 C    0.973
    56   1 H    0.992 --    25 C    0.973
    57   1 H    0.992 --    25 C    0.977
    58   1 H    0.993 --    28 C    0.977
    59   1 H    0.993 --    28 C    0.973
    60   1 H    0.993 --    28 C    0.973
    61   1 H    0.997 --    29 C    0.962
    62   1 H    0.985 --    30 C    0.966
    63   1 H    0.987 --    30 C    0.960
    64   1 H    0.993 --    30 C    0.978
    65   1 H    0.993 --    31 C    0.960
    66   1 H    0.991 --    32 C    0.973
    67   1 H    0.997 --    32 C    0.982
    68   1 H    0.994 --    32 C    0.981
    69   1 H    0.994 --    33 C    0.977
    70   1 H    0.997 --    33 C    0.983
    71   1 H    0.994 --    33 C    0.980
    72   1 H    0.970 --     1 N    0.941
 ---------------------------------------------------------------------------

molecular dipole:
                 x           y           z       tot (Debye)
 q only:        0.699      -0.056      -0.808
   full:        0.995      -0.098      -0.988       3.572

           -------------------------------------------------
          | TOTAL ENERGY              -99.406455246722 Eh   |
          | GRADIENT NORM               0.008045933035 Eh/α |
          | HOMO-LUMO GAP               1.672187280032 eV   |
           -------------------------------------------------

 * finished run on 2024/04/06 at 11:15:11.375
