   * xtb version 6.6.1 (8d0f1dd) compiled by 'conda@1efc2f54142f' on 2023-08-01
          program call               : xtb xtbopt.xyz --opt crude --input .xc2 --gfn2

   ID    Z sym.   atoms
    1    6 C      1, 3, 5-7, 10, 11, 14
    2    7 N      2, 4, 9, 13
    3    8 O      8, 12
    4    1 H      15-25
########################################################################
[WARNING] Please study the warnings concerning your input carefully
-1- readin_getIntValue: could not parse ''
########################################################################

          :  Hamiltonian                  GFN2-xTB          :
 * total energy  :   -40.4266802 Eh     change       -0.1421085E-12 Eh
 * total energy  :   -42.1307952 Eh     change       -0.1704115E+01 Eh
 * total energy  :   -42.1527897 Eh     change       -0.2199449E-01 Eh
 * total energy  :   -42.1574734 Eh     change       -0.4683664E-02 Eh
 * total energy  :   -42.1582045 Eh     change       -0.7311161E-03 Eh
 * total energy  :   -42.1587632 Eh     change       -0.5586840E-03 Eh
 * total energy  :   -42.1592580 Eh     change       -0.4947940E-03 Eh
 * total energy  :   -42.1596280 Eh     change       -0.3700357E-03 Eh
 * total energy  :   -42.1598360 Eh     change       -0.2079607E-03 Eh
   *** GEOMETRY OPTIMIZATION CONVERGED AFTER 9 ITERATIONS ***

 final structure:
================
25
 xtb: 6.6.1 (8d0f1dd)
C            2.86685707151486        0.73334540315832        0.43817198846557
N            1.84367234850392       -0.21851837726984        0.06657133677801
C            2.13078419341764       -1.39022553163326       -0.44705875950353
N            1.17263752306990       -2.26015140059955       -0.87771378388272
C           -0.19427473187551       -2.09946096628963       -0.52851403695286
C            0.52660240477251        0.16136935698664        0.29207165332076
C           -0.03502175881451        1.44955302822823        0.12606485251779
O            0.45615504251080        2.55150716020021        0.14151808143330
N           -1.44682379106755        1.22374425004828       -0.06398199615801
C           -2.37474417123776        2.32177441659398       -0.22845410006705
C           -1.78283939881767       -0.05439525773625       -0.15965966739977
O           -2.79008364871262       -0.64988117365912       -0.36983383975796
N           -0.49288490914031       -0.82757089989732        0.10607685922773
C           -0.58709266285027       -2.05124809766094        0.90117521284493
H            3.03090931405926        0.70518475231815        1.51649995788748
H            3.79624348394242        0.50679237175961       -0.07715204103409
H            2.52919179593379        1.73719419765639        0.17640379139397
H            3.15982719729668       -1.67007014760808       -0.59434072425821
H           -1.78017531157225        3.22136391612626       -0.38282012621161
H           -3.02220337046890        2.13895311941833       -1.08396424636441
H           -2.98425297108795        2.43776855103891        0.66771295003805
H            0.16846553143771       -2.18600441663906        1.66429989144961
H           -0.89973888218568       -2.45196617051203       -1.26666499852854
H           -1.59592479833345       -2.33011848030651        1.18481671109402
H            1.46514601380297       -3.18070106211943       -1.17005334843199

          :  Hamiltonian                  GFN2-xTB          :
         :: total energy             -42.159835987681 Eh    ::
         :: gradient norm              0.007951786851 Eh/a0 ::
         :: HOMO-LUMO gap              2.425427544132 eV    ::
         :: SCC energy               -42.669346040652 Eh    ::
         :: -> dispersion             -0.023306427800 Eh    ::
         :: repulsion energy           0.509319371429 Eh    ::

    * Orbital Energies and Occupations

         #    Occupation            Energy/Eh            Energy/eV
      -------------------------------------------------------------
         1        2.0000           -0.9184803             -24.9931
       ...           ...                  ...                  ...
        25        2.0000           -0.6756835             -18.3863
        26        2.0000           -0.6719577             -18.2849
        27        2.0000           -0.6647390             -18.0885
        28        2.0000           -0.6552356             -17.8299
        29        2.0000           -0.6398109             -17.4101
        30        1.9999           -0.6359946             -17.3063
        31        1.9999           -0.6336885             -17.2435
        32        1.9998           -0.6126002             -16.6697
        33        1.9996           -0.6045491             -16.4506
        34        1.9992           -0.5939485             -16.1622
        35        1.9958           -0.5668689             -15.4253
        36        1.9918           -0.5560270             -15.1303
        37        1.8788           -0.5125393             -13.9469 (HOMO)
        38        0.1054           -0.4234065             -11.5215 (LUMO)
        39        0.0296           -0.4026566             -10.9568
        40        0.0002           -0.3223843              -8.7725
        41        0.0000           -0.2828951              -7.6980
        42        0.0000           -0.2610762              -7.1042
        43        0.0000           -0.2037093              -5.5432
        44                         -0.1802886              -4.9059
        45                         -0.1659794              -4.5165
        46                         -0.1319370              -3.5902
        47                         -0.0874635              -2.3800
        48                         -0.0702665              -1.9120
       ...                                ...                  ...
        67                          0.6058287              16.4854
      -------------------------------------------------------------
                  HL-Gap            0.0891328 Eh            2.4254 eV

     #   Z          covCN         q      C6AA      α(0)
     1   6 C        3.709    -0.093    22.425     6.768
     2   7 N        2.735     0.063    20.140     6.665
     3   6 C        2.801     0.055    26.762     8.475
     4   7 N        2.687    -0.133    23.880     7.258
     5   6 C        3.734     0.096    19.086     6.235
     6   6 C        2.910    -0.056    29.396     8.890
     7   6 C        2.808     0.251    22.781     7.820
     8   8 O        0.857    -0.380    21.284     6.185
     9   7 N        2.780    -0.082    22.827     7.096
    10   6 C        3.693    -0.059    21.816     6.683
    11   6 C        2.745     0.305    21.824     7.649
    12   8 O        0.857    -0.340    20.523     6.074
    13   7 N        3.662     0.062    20.154     6.668
    14   6 C        3.739    -0.033    21.245     6.577
    15   1 H        0.924     0.105     1.738     2.062
    16   1 H        0.925     0.097     1.817     2.108
    17   1 H        0.924     0.135     1.498     1.914
    18   1 H        0.926     0.109     1.707     2.043
    19   1 H        0.925     0.117     1.634     1.999
    20   1 H        0.925     0.094     1.841     2.122
    21   1 H        0.925     0.094     1.836     2.119
    22   1 H        0.925     0.115     1.655     2.012
    23   1 H        0.926     0.124     1.581     1.966
    24   1 H        0.925     0.132     1.520     1.928
    25   1 H        0.860     0.221     1.003     1.569

Wiberg/Mayer (AO) data.
largest (>0.10) Wiberg bond orders for each atom

     #   Z sym  total        # sym  WBO       # sym  WBO       # sym  WBO
 ---------------------------------------------------------------------------
     1   6 C    3.917 --     2 N    0.976    16 H    0.975    15 H    0.958
                            17 H    0.951
     2   7 N    3.652 --     3 C    1.425     6 C    1.080     1 C    0.976
                             4 N    0.102
     3   6 C    3.830 --     2 N    1.425     4 N    1.207    18 H    0.949
     4   7 N    3.384 --     3 C    1.207     5 C    1.027    25 H    0.922
                             2 N    0.102
     5   6 C    3.895 --     4 N    1.027    14 C    0.959    23 H    0.947
                            13 N    0.890
     6   6 C    3.618 --     7 C    1.215     2 N    1.080    13 N    0.949
                             8 O    0.140
     7   6 C    3.939 --     8 O    1.661     6 C    1.215     9 N    0.954
     8   8 O    2.026 --     7 C    1.661     6 C    0.140
     9   7 N    3.569 --    11 C    1.291    10 C    0.967     7 C    0.954
                            12 O    0.195
    10   6 C    3.918 --    20 H    0.971     9 N    0.967    19 H    0.967
                            21 H    0.965
    11   6 C    3.929 --    12 O    1.744     9 N    1.291    13 N    0.791
    12   8 O    2.128 --    11 C    1.744     9 N    0.195
    13   7 N    3.710 --     6 C    0.949     5 C    0.890    14 C    0.883
                            11 C    0.791
    14   6 C    3.870 --    22 H    0.964     5 C    0.959    24 H    0.958
                            13 N    0.883
    15   1 H    0.985 --     1 C    0.958
    16   1 H    0.990 --     1 C    0.975
    17   1 H    0.980 --     1 C    0.951
    18   1 H    0.987 --     3 C    0.949
    19   1 H    0.985 --    10 C    0.967
    20   1 H    0.990 --    10 C    0.971
    21   1 H    0.988 --    10 C    0.965
    22   1 H    0.986 --    14 C    0.964
    23   1 H    0.984 --     5 C    0.947
    24   1 H    0.981 --    14 C    0.958
    25   1 H    0.949 --     4 N    0.922
 ---------------------------------------------------------------------------

molecular dipole:
                 x           y           z       tot (Debye)
 q only:        1.605      -2.399      -0.004
   full:        1.665      -2.820      -0.057       8.323

           -------------------------------------------------
          | TOTAL ENERGY              -42.159835987681 Eh   |
          | GRADIENT NORM               0.007951786851 Eh/α |
          | HOMO-LUMO GAP               2.425427544132 eV   |
           -------------------------------------------------

 * finished run on 2024/06/05 at 19:58:05.765
