   * xtb version 6.6.1 (8d0f1dd) compiled by 'conda@1efc2f54142f' on 2023-08-01
          program call               : xtb struc.xyz --opt loose --input .xc1 --gfn2

   ID    Z sym.   atoms
    1    6 C      1, 3, 5-7, 10, 11, 14
    2    7 N      2, 4, 9, 13
    3    8 O      8, 12
    4    1 H      15-25
constraining bond 23 24 to    3.2800000 Å, actual value:    1.7744882 Å

          :  Hamiltonian                  GFN2-xTB          :
 * total energy  :   -34.1538063 Eh     change       -0.6650680E-10 Eh
 * total energy  :   -38.9505039 Eh     change       -0.4796698E+01 Eh
 * total energy  :   -41.3932676 Eh     change       -0.2442764E+01 Eh
 * total energy  :   -42.0339577 Eh     change       -0.6406901E+00 Eh
 * total energy  :   -42.0661306 Eh     change       -0.3217298E-01 Eh
 * total energy  :   -42.0663059 Eh     change       -0.1752575E-03 Eh
 * total energy  :   -42.0675557 Eh     change       -0.1249843E-02 Eh
 * total energy  :   -42.0682389 Eh     change       -0.6831187E-03 Eh
 * total energy  :   -42.0696198 Eh     change       -0.1380945E-02 Eh
 * total energy  :   -42.0711133 Eh     change       -0.1493516E-02 Eh
 * total energy  :   -42.1734835 Eh     change       -0.1674968E-02 Eh
 * total energy  :   -42.1740473 Eh     change       -0.5637960E-03 Eh
 * total energy  :   -42.1746301 Eh     change       -0.5827976E-03 Eh
 * total energy  :   -42.1748718 Eh     change       -0.2417141E-03 Eh
 * total energy  :   -42.1752735 Eh     change       -0.4016508E-03 Eh
 * total energy  :   -42.1754198 Eh     change       -0.1463637E-03 Eh
 * total energy  :   -42.1755751 Eh     change       -0.1552226E-03 Eh
 * total energy  :   -42.1756447 Eh     change       -0.6962765E-04 Eh
 * total energy  :   -42.1756711 Eh     change       -0.2640678E-04 Eh
   *** GEOMETRY OPTIMIZATION CONVERGED AFTER 38 ITERATIONS ***

 final structure:
================
25
 xtb: 6.6.1 (8d0f1dd)
C            3.23611168784999        1.20508326756626       -0.02904606962993
N            2.33018062180370        0.08898905321414       -0.05408141662513
C            2.66040492506967       -1.20948086174042       -0.07634242694213
N            1.53646858580740       -1.96752548645709       -0.05546593912172
C            0.46165494295709       -1.12180790656643       -0.01836349337556
C            0.95713107668929        0.17812220741848       -0.01631624127656
C            0.10792092985304        1.33483720708716        0.02079521816658
O            0.44068371862900        2.50175833907941        0.02652583557814
N           -1.25149589415271        0.94344559644942        0.04560007801592
C           -2.25035725348272        1.99837775758452        0.07072280827179
C           -1.69443059325382       -0.33167566968729        0.03053801527891
O           -3.01010238417419       -0.51183173939479        0.01062368897741
N           -0.87464369708971       -1.42599192695538        0.02562409309738
C           -1.35280899302665       -2.70101031910262        0.01511641279323
H            3.75430004528038        1.25089929680002        0.93029905636489
H            3.97487032954683        1.11106501025833       -0.82406447785544
H            2.66225289470837        2.12105208076014       -0.16355050831280
H            3.65754665792723       -1.59671595178381       -0.10704370122773
H           -1.71704975108352        2.94687472366972        0.07349655146946
H           -2.88966552784785        1.93107686866721       -0.80830371068033
H           -2.86608601433715        1.91071735018099        0.96405358472669
H           -2.33446498693768       -2.92478586267981        0.37700944761144
H           -0.67026135919063       -3.50001301545622       -0.14440857436113
H           -3.22118651110970       -1.43750053458099       -0.20415590030012
H            1.51345806366488       -2.97572094273106       -0.05809071274305

          :  Hamiltonian                  GFN2-xTB          :
         :: total energy             -42.175671096454 Eh    ::
         :: gradient norm              0.002009412451 Eh/a0 ::
         :: HOMO-LUMO gap              1.407056364124 eV    ::
         :: SCC energy               -42.693257394447 Eh    ::
         :: -> dispersion             -0.023015525428 Eh    ::
         :: repulsion energy           0.517478357787 Eh    ::

    * Orbital Energies and Occupations

         #    Occupation            Energy/Eh            Energy/eV
      -------------------------------------------------------------
         1        2.0000           -0.9002148             -24.4961
       ...           ...                  ...                  ...
        25        2.0000           -0.6679902             -18.1769
        26        2.0000           -0.6626569             -18.0318
        27        2.0000           -0.6584854             -17.9183
        28        2.0000           -0.6428611             -17.4931
        29        2.0000           -0.6345895             -17.2681
        30        2.0000           -0.6212393             -16.9048
        31        2.0000           -0.6186098             -16.8332
        32        1.9999           -0.6020308             -16.3821
        33        1.9999           -0.5997566             -16.3202
        34        1.9995           -0.5795213             -15.7696
        35        1.9989           -0.5674855             -15.4421
        36        1.9969           -0.5508950             -14.9906
        37        1.5891           -0.4699553             -12.7881 (HOMO)
        38        0.2573           -0.4182469             -11.3811 (LUMO)
        39        0.1433           -0.4079733             -11.1015
        40        0.0154           -0.3716280             -10.1125
        41        0.0000           -0.2798856              -7.6161
        42        0.0000           -0.1941366              -5.2827
        43        0.0000           -0.1856064              -5.0506
        44                         -0.1409750              -3.8361
        45                         -0.1256726              -3.4197
        46                         -0.0923205              -2.5122
        47                         -0.0525017              -1.4286
        48                         -0.0311245              -0.8469
       ...                                ...                  ...
        67                          0.5395950              14.6831
      -------------------------------------------------------------
                  HL-Gap            0.0517084 Eh            1.4071 eV

     #   Z          covCN         q      C6AA      α(0)
     1   6 C        3.691    -0.092    22.444     6.780
     2   7 N        2.826     0.067    20.076     6.655
     3   6 C        3.036     0.039    27.096     8.538
     4   7 N        2.781    -0.061    22.412     7.031
     5   6 C        3.075     0.082    26.107     8.377
     6   6 C        3.097    -0.018    28.344     8.725
     7   6 C        2.766     0.248    22.842     7.827
     8   8 O        0.857    -0.389    21.470     6.212
     9   7 N        2.746    -0.047    22.151     6.990
    10   6 C        3.707    -0.071    22.006     6.705
    11   6 C        2.774     0.226    23.252     7.898
    12   8 O        1.660    -0.331    19.549     5.969
    13   7 N        2.736     0.021    20.885     6.787
    14   6 C        2.797    -0.147    31.765     9.233
    15   1 H        0.924     0.102     1.765     2.077
    16   1 H        0.925     0.100     1.789     2.091
    17   1 H        0.925     0.133     1.514     1.924
    18   1 H        0.927     0.117     1.637     2.001
    19   1 H        0.925     0.124     1.584     1.968
    20   1 H        0.925     0.097     1.816     2.108
    21   1 H        0.925     0.098     1.807     2.102
    22   1 H        0.927     0.065     2.140     2.288
    23   1 H        0.927     0.059     2.206     2.322
    24   1 H        0.804     0.356     0.575     1.191
    25   1 H        0.860     0.224     0.992     1.560

Wiberg/Mayer (AO) data.
largest (>0.10) Wiberg bond orders for each atom

     #   Z sym  total        # sym  WBO       # sym  WBO       # sym  WBO
 ---------------------------------------------------------------------------
     1   6 C    3.921 --     2 N    0.988    16 H    0.965    17 H    0.962
                            15 H    0.958
     2   7 N    3.602 --     3 C    1.330     6 C    1.153     1 C    0.988
     3   6 C    3.733 --     2 N    1.330     4 N    1.257    18 H    0.956
     4   7 N    3.526 --     3 C    1.257     5 C    1.178    25 H    0.920
     5   6 C    3.857 --     6 C    1.336     4 N    1.178    13 N    1.111
     6   6 C    3.879 --     5 C    1.336     2 N    1.153     7 C    1.106
     7   6 C    3.895 --     8 O    1.639     6 C    1.106     9 N    1.037
     8   8 O    1.943 --     7 C    1.639     9 N    0.135
     9   7 N    3.544 --    11 C    1.244     7 C    1.037    10 C    0.970
                             8 O    0.135
    10   6 C    3.916 --     9 N    0.970    21 H    0.966    20 H    0.965
                            19 H    0.965
    11   6 C    3.776 --     9 N    1.244    13 N    1.156    12 O    1.145
                            14 C    0.112
    12   8 O    2.162 --    11 C    1.145    24 H    0.827
    13   7 N    3.651 --    14 C    1.185    11 C    1.156     5 C    1.111
    14   6 C    3.397 --    13 N    1.185    23 H    0.974    22 H    0.961
                            11 C    0.112
    15   1 H    0.983 --     1 C    0.958
    16   1 H    0.985 --     1 C    0.965
    17   1 H    0.982 --     1 C    0.962
    18   1 H    0.985 --     3 C    0.956
    19   1 H    0.984 --    10 C    0.965
    20   1 H    0.986 --    10 C    0.965
    21   1 H    0.986 --    10 C    0.966
    22   1 H    0.994 --    14 C    0.961
    23   1 H    0.996 --    14 C    0.974
    24   1 H    0.871 --    12 O    0.827
    25   1 H    0.949 --     4 N    0.920
 ---------------------------------------------------------------------------

molecular dipole:
                 x           y           z       tot (Debye)
 q only:        1.034      -1.888      -0.148
   full:        1.106      -2.647      -0.126       7.300

           -------------------------------------------------
          | TOTAL ENERGY              -42.175671096454 Eh   |
          | GRADIENT NORM               0.002009412451 Eh/α |
          | HOMO-LUMO GAP               1.407056364124 eV   |
           -------------------------------------------------

 * finished run on 2024/06/05 at 19:59:21.962
