   * xtb version 6.6.1 (8d0f1dd) compiled by 'conda@1efc2f54142f' on 2023-08-01
          program call               : xtb xtbopt.xyz --opt crude --input .xc2 --gfn2

   ID    Z sym.   atoms
    1    7 N      1, 17
    2    6 C      2-6, 8, 9, 11-16, 18-23, 25, 26, 28-33
    3    8 O      7, 10, 24, 27
    4    1 H      34-72

          :  Hamiltonian                  GFN2-xTB          :
 * total energy  :   -99.3573781 Eh     change       -0.1890044E-11 Eh
   *** GEOMETRY OPTIMIZATION CONVERGED AFTER 1 ITERATIONS ***

 final structure:
================
72
 xtb: 6.6.1 (8d0f1dd)
N           -1.83015613199129        3.24961718725259        2.15671868827940
C           -1.78281880023684        2.46045039868325        1.19076030071257
C           -2.92907007411458        2.17655001744817        0.26055759000688
C           -3.35946967191068        0.72525601505965        0.41287606903842
C           -4.26126400291910        0.17777565804583       -0.49661139123213
C           -4.68423946369764       -1.14350443642041       -0.37625554138359
O           -5.55845098893647       -1.74783244711938       -1.20802711250648
C           -6.17100647955763       -1.00259900695887       -2.23396056926145
C           -4.18049147153170       -1.93469312395106        0.66421192619700
O           -4.84875967020677       -5.82450330953415        0.85809103026366
C           -5.24621183102025       -6.88470050470224        1.24431928905046
C           -3.29719552319130       -1.38760958242226        1.56884462675573
C           -2.88577426073941       -0.06609041787071        1.45152564543740
C           -2.38150832230930        2.42400752631327       -1.17031460274670
C           -1.45773343801470        1.31440313871459       -1.70525667956389
C           -0.12926655860109        1.27359440727216       -1.05550739248431
N            0.48689987525017        0.17678863746232       -0.63850380327418
C            1.87007836357216        0.22544986794478       -0.22656760773606
C            2.81189334228913       -0.25796234333126       -1.34683562602844
C            4.24351319055137       -0.10298442930665       -0.91657287087646
C            4.91304522783584        1.09344224518490       -1.11805084580865
C            6.22505798553227        1.25210697466946       -0.70050484856893
C            6.89473965080183        0.21492276547904       -0.06684223982380
O            8.16416655370672        0.25540845415300        0.37666315855532
C            8.92290690896558        1.42741173668940        0.18504071257154
C            6.21462573385566       -1.01631532959227        0.14772924175681
O            6.93859352193985       -1.96995796748344        0.76523379591642
C            6.36342088795113       -3.23441173156728        0.99359528197638
C            4.90178256264523       -1.15025102565015       -0.27689124196326
C           -0.14993108419723       -1.11872843175207       -0.66418030893866
C           -4.17139034449054        3.07958610429233        0.51701677608502
C           -4.78822456187178        2.80495013431798        1.88635029769786
C           -3.87362882874130        4.56929911601054        0.37532446021824
H           -4.64376899088016        0.79185425955935       -1.29547132269039
H           -6.72476577091963       -0.14791304892345       -1.83397488028504
H           -6.86660062603559       -1.68519436033048       -2.71806935876076
H           -5.43952200844572       -0.65379286195761       -2.97051187235006
H           -4.50912302939170       -2.95868659258905        0.74028319417319
H           -6.09118407483516       -6.98153859638007        1.94277546851493
H           -4.79773962508212       -7.84174300617014        0.92756163542787
H           -2.92604495440085       -1.99230191415986        2.38198024726242
H           -2.21554641622280        0.34867765205208        2.18875594947047
H           -3.22307820961767        2.51783710044592       -1.85597289751140
H           -1.84243874557043        3.37227608446984       -1.18004351025641
H           -1.96409067597840        0.35317871843819       -1.64047484332563
H           -1.29105919845356        1.53463603601439       -2.76792048147656
H           -0.86617333179655        1.92054246021549        0.88029108579875
H            0.44751444088055        2.18700430150692       -1.04212361592346
H            2.00369604674722       -0.40197253349881        0.65839891146811
H            2.13451513797800        1.25127811883633        0.03847015819991
H            2.62641180873580        0.33980389836296       -2.24107563901126
H            2.59907356003080       -1.30204106678538       -1.57875664881463
H            4.41778497886524        1.91233603480055       -1.61742315006954
H            6.72184795167234        2.19155779702575       -0.87866136953085
H            8.48055039275942        2.28083789242208        0.70789992543840
H            9.03090731275564        1.66493849772554       -0.87745912001117
H            9.90232396419830        1.21347085092690        0.60839710577331
H            7.13884339641069       -3.82461084121619        1.47797490346379
H            5.49466332392911       -3.16660546625388        1.65620963117386
H            6.07310739967147       -3.71837763427565        0.05596064296110
H            4.37991671198726       -2.08220565075418       -0.12580167285156
H           -0.33675482038943       -1.44742300246156       -1.68845288962383
H           -1.10012590000854       -1.08932349475963       -0.12525369174496
H            0.49618830059902       -1.84612456655185       -0.18025161033879
H           -4.91182559883748        2.80930173134628       -0.24472713759663
H           -4.09261331241763        3.08418616874156        2.67136573061387
H           -5.04591702603932        1.75461458846001        2.00010765694415
H           -5.69470867128102        3.39349017168852        2.00131244630042
H           -3.13438985756778        4.87644417762242        1.10831708879474
H           -3.51788809867420        4.82026800310279       -0.62034504309940
H           -4.78526449573749        5.13318538975322        0.55477072721272
H           -0.98433798826287        3.39339792871672        2.69922688056020

          :  Hamiltonian                  GFN2-xTB          :
         :: total energy             -99.357378119125 Eh    ::
         :: gradient norm              0.002552532570 Eh/a0 ::
         :: HOMO-LUMO gap              1.668323857134 eV    ::
         :: SCC energy              -100.761222426739 Eh    ::
         :: -> dispersion             -0.072743651027 Eh    ::
         :: repulsion energy           1.402674071145 Eh    ::

    * Orbital Energies and Occupations

         #    Occupation            Energy/Eh            Energy/eV
      -------------------------------------------------------------
         1        2.0000           -0.8071895             -21.9647
       ...           ...                  ...                  ...
        78        1.9980           -0.5277908             -14.3619
        79        1.9977           -0.5256762             -14.3044
        80        1.9969           -0.5209075             -14.1746
        81        1.9968           -0.5203330             -14.1590
        82        1.9955           -0.5149806             -14.0133
        83        1.9944           -0.5115819             -13.9209
        84        1.9911           -0.5040976             -13.7172
        85        1.9823           -0.4932306             -13.4215
        86        1.9775           -0.4893707             -13.3165
        87        1.9646           -0.4821110             -13.1189
        88        1.9295           -0.4709142             -12.8142
        89        1.9246           -0.4698030             -12.7840
        90        1.8355           -0.4566939             -12.4273 (HOMO)
        91        0.3769           -0.3953842             -10.7590 (LUMO)
        92        0.0262           -0.3500903              -9.5264
        93        0.0126           -0.3383499              -9.2070
        94        0.0036           -0.3185242              -8.6675
        95        0.0026           -0.3132679              -8.5245
        96        0.0023           -0.3110654              -8.4645
        97        0.0019           -0.3079874              -8.3808
        98        0.0000           -0.1884895              -5.1291
        99        0.0000           -0.1867194              -5.0809
       100                         -0.1360837              -3.7030
       101                         -0.0680271              -1.8511
       ...                                ...                  ...
       171                          0.5752227              15.6526
      -------------------------------------------------------------
                  HL-Gap            0.0613098 Eh            1.6683 eV

     #   Z          covCN         q      C6AA      α(0)
     1   7 N        1.774    -0.266    27.736     7.799
     2   6 C        2.827     0.103    25.720     8.310
     3   6 C        3.908     0.006    20.427     6.424
     4   6 C        2.976     0.010    27.779     8.645
     5   6 C        2.921    -0.077    29.911     8.969
     6   6 C        2.863     0.150    24.741     8.153
     7   8 O        1.706    -0.243    18.023     5.732
     8   6 C        3.643     0.030    20.408     6.494
     9   6 C        2.918    -0.055    29.360     8.886
    10   8 O        0.856    -0.277    19.369     5.901
    11   6 C        2.701     0.180    24.122     8.039
    12   6 C        2.917    -0.031    28.773     8.796
    13   6 C        2.921    -0.052    29.301     8.877
    14   6 C        3.812    -0.063    21.706     6.631
    15   6 C        3.802    -0.069    21.828     6.652
    16   6 C        2.844     0.009    27.802     8.641
    17   7 N        2.729     0.016    20.978     6.803
    18   6 C        3.756    -0.017    20.934     6.524
    19   6 C        3.808    -0.071    21.843     6.653
    20   6 C        2.969     0.000    28.019     8.683
    21   6 C        2.922    -0.049    29.206     8.862
    22   6 C        2.914    -0.067    29.675     8.933
    23   6 C        2.865     0.134    25.071     8.207
    24   8 O        1.706    -0.221    17.660     5.674
    25   6 C        3.645     0.025    20.495     6.506
    26   6 C        2.863     0.134    25.076     8.208
    27   8 O        1.706    -0.223    17.704     5.681
    28   6 C        3.645     0.027    20.463     6.502
    29   6 C        2.919    -0.079    29.979     8.979
    30   6 C        3.700    -0.073    22.058     6.717
    31   6 C        3.853    -0.007    20.660     6.465
    32   6 C        3.756    -0.118    22.808     6.809
    33   6 C        3.755    -0.119    22.833     6.813
    34   1 H        0.926     0.044     2.395     2.420
    35   1 H        0.924     0.052     2.300     2.371
    36   1 H        0.925     0.077     2.005     2.214
    37   1 H        0.924     0.045     2.388     2.417
    38   1 H        0.926     0.080     1.980     2.201
    39   1 H        0.923     0.054     2.272     2.357
    40   1 H        0.923     0.052     2.293     2.368
    41   1 H        0.926     0.050     2.314     2.379
    42   1 H        0.926     0.034     2.536     2.490
    43   1 H        0.925     0.061     2.188     2.313
    44   1 H        0.924     0.053     2.287     2.365
    45   1 H        0.925     0.068     2.107     2.270
    46   1 H        0.923     0.080     1.975     2.198
    47   1 H        0.922     0.005     2.968     2.694
    48   1 H        0.926     0.070     2.082     2.256
    49   1 H        0.924     0.069     2.092     2.262
    50   1 H        0.924     0.068     2.111     2.272
    51   1 H        0.924     0.055     2.254     2.348
    52   1 H        0.924     0.057     2.238     2.340
    53   1 H        0.926     0.045     2.379     2.412
    54   1 H        0.926     0.059     2.210     2.325
    55   1 H        0.924     0.055     2.261     2.351
    56   1 H        0.924     0.056     2.241     2.341
    57   1 H        0.925     0.083     1.949     2.183
    58   1 H        0.925     0.082     1.954     2.186
    59   1 H        0.924     0.050     2.323     2.384
    60   1 H        0.924     0.053     2.280     2.361
    61   1 H        0.926     0.048     2.339     2.392
    62   1 H        0.924     0.078     2.003     2.213
    63   1 H        0.924     0.084     1.939     2.178
    64   1 H        0.925     0.082     1.961     2.190
    65   1 H        0.924     0.037     2.484     2.465
    66   1 H        0.925     0.068     2.109     2.271
    67   1 H        0.925     0.037     2.489     2.467
    68   1 H        0.925     0.051     2.306     2.375
    69   1 H        0.925     0.062     2.174     2.306
    70   1 H        0.925     0.034     2.524     2.484
    71   1 H        0.925     0.054     2.267     2.355
    72   1 H        0.860     0.158     1.350     1.820

Wiberg/Mayer (AO) data.
largest (>0.10) Wiberg bond orders for each atom

     #   Z sym  total        # sym  WBO       # sym  WBO       # sym  WBO
 ---------------------------------------------------------------------------
     1   7 N    3.040 --     2 C    1.958    72 H    0.941
     2   6 C    3.931 --     1 N    1.958     3 C    0.994    47 H    0.901
     3   6 C    3.974 --     2 C    0.994     4 C    0.969    14 C    0.956
                            31 C    0.943
     4   6 C    3.967 --    13 C    1.407     5 C    1.399     3 C    0.969
     5   6 C    3.957 --     4 C    1.399     6 C    1.363    34 H    0.959
     6   6 C    3.913 --     5 C    1.363     9 C    1.318     7 O    1.095
     7   8 O    2.249 --     6 C    1.095     8 C    0.979
     8   6 C    3.935 --     7 O    0.979    36 H    0.977    35 H    0.974
                            37 H    0.974
     9   6 C    3.950 --    12 C    1.476     6 C    1.318    38 H    0.963
    10   8 O    2.075 --    11 C    1.987
    11   6 C    3.863 --    10 O    1.987    39 H    0.938    40 H    0.938
    12   6 C    3.978 --     9 C    1.476    13 C    1.403    41 H    0.968
    13   6 C    3.953 --     4 C    1.407    12 C    1.403    42 H    0.962
    14   6 C    3.973 --    15 C    0.980    44 H    0.972    43 H    0.968
                             3 C    0.956
    15   6 C    3.986 --    16 C    1.060    14 C    0.980    45 H    0.961
                            46 H    0.927
    16   6 C    3.607 --    17 N    1.415    15 C    1.060    48 H    0.957
    17   7 N    3.491 --    16 C    1.415    30 C    0.997    18 C    0.988
    18   6 C    3.955 --    17 N    0.988    50 H    0.968    19 C    0.966
                            49 H    0.964
    19   6 C    3.976 --    20 C    1.008    52 H    0.972    51 H    0.971
                            18 C    0.966
    20   6 C    3.943 --    21 C    1.407    29 C    1.381    19 C    1.008
    21   6 C    3.948 --    22 C    1.418    20 C    1.407    53 H    0.968
    22   6 C    3.958 --    21 C    1.418    23 C    1.382    54 H    0.963
    23   6 C    3.893 --    22 C    1.382    26 C    1.218    24 O    1.112
    24   8 O    2.255 --    23 C    1.112    25 C    0.976
    25   6 C    3.927 --    57 H    0.977    24 O    0.976    55 H    0.972
                            56 H    0.972
    26   6 C    3.897 --    29 C    1.393    23 C    1.218    27 O    1.106
    27   8 O    2.255 --    26 C    1.106    28 C    0.978
    28   6 C    3.931 --    27 O    0.978    58 H    0.977    59 H    0.973
                            60 H    0.973
    29   6 C    3.958 --    26 C    1.393    20 C    1.381    61 H    0.962
    30   6 C    3.955 --    17 N    0.997    64 H    0.977    62 H    0.966
                            63 H    0.959
    31   6 C    3.973 --    33 C    1.009    32 C    1.008    65 H    0.959
                             3 C    0.943
    32   6 C    3.978 --    31 C    1.008    67 H    0.981    68 H    0.981
                            66 H    0.974
    33   6 C    3.981 --    31 C    1.009    70 H    0.983    71 H    0.980
                            69 H    0.975
    34   1 H    0.997 --     5 C    0.959
    35   1 H    0.994 --     8 C    0.974
    36   1 H    0.993 --     8 C    0.977
    37   1 H    0.994 --     8 C    0.974
    38   1 H    0.992 --     9 C    0.963
    39   1 H    0.986 --    11 C    0.938
    40   1 H    0.986 --    11 C    0.938
    41   1 H    0.995 --    12 C    0.968
    42   1 H    0.998 --    13 C    0.962
    43   1 H    0.995 --    14 C    0.968
    44   1 H    0.996 --    14 C    0.972
    45   1 H    0.995 --    15 C    0.961
    46   1 H    0.971 --    15 C    0.927
    47   1 H    0.985 --     2 C    0.901
    48   1 H    0.995 --    16 C    0.957
    49   1 H    0.991 --    18 C    0.964
    50   1 H    0.994 --    18 C    0.968
    51   1 H    0.996 --    19 C    0.971
    52   1 H    0.996 --    19 C    0.972
    53   1 H    0.997 --    21 C    0.968
    54   1 H    0.995 --    22 C    0.963
    55   1 H    0.991 --    25 C    0.972
    56   1 H    0.991 --    25 C    0.972
    57   1 H    0.992 --    25 C    0.977
    58   1 H    0.992 --    28 C    0.977
    59   1 H    0.993 --    28 C    0.973
    60   1 H    0.992 --    28 C    0.973
    61   1 H    0.996 --    29 C    0.962
    62   1 H    0.985 --    30 C    0.966
    63   1 H    0.986 --    30 C    0.959
    64   1 H    0.993 --    30 C    0.977
    65   1 H    0.992 --    31 C    0.959
    66   1 H    0.991 --    32 C    0.974
    67   1 H    0.996 --    32 C    0.981
    68   1 H    0.994 --    32 C    0.981
    69   1 H    0.992 --    33 C    0.975
    70   1 H    0.997 --    33 C    0.983
    71   1 H    0.994 --    33 C    0.980
    72   1 H    0.969 --     1 N    0.941
 ---------------------------------------------------------------------------

molecular dipole:
                 x           y           z       tot (Debye)
 q only:        0.728      -0.121      -0.896
   full:        0.862      -0.333      -1.107       3.666

           -------------------------------------------------
          | TOTAL ENERGY              -99.357378119125 Eh   |
          | GRADIENT NORM               0.002552532570 Eh/α |
          | HOMO-LUMO GAP               1.668323857134 eV   |
           -------------------------------------------------

 * finished run on 2024/04/06 at 11:13:01.717
