   * xtb version 6.6.1 (8d0f1dd) compiled by 'conda@1efc2f54142f' on 2023-08-01
          program call               : xtb xtbopt.xyz --opt crude --input .xc2 --gfn2

   ID    Z sym.   atoms
    1    6 C      1, 3, 5-7, 10, 11, 14
    2    7 N      2, 4, 9, 13
    3    8 O      8, 12
    4    1 H      15-25
########################################################################
[WARNING] Please study the warnings concerning your input carefully
-1- readin_getIntValue: could not parse ''
########################################################################

          :  Hamiltonian                  GFN2-xTB          :
 * total energy  :   -40.4249289 Eh     change       -0.1918465E-12 Eh
 * total energy  :   -42.1173475 Eh     change       -0.1692419E+01 Eh
 * total energy  :   -42.1467590 Eh     change       -0.2941155E-01 Eh
 * total energy  :   -42.1534663 Eh     change       -0.6707257E-02 Eh
 * total energy  :   -42.1568012 Eh     change       -0.3334980E-02 Eh
 * total energy  :   -42.1574934 Eh     change       -0.6921733E-03 Eh
 * total energy  :   -42.1582236 Eh     change       -0.7301553E-03 Eh
 * total energy  :   -42.1587057 Eh     change       -0.4821588E-03 Eh
 * total energy  :   -42.1592445 Eh     change       -0.5387242E-03 Eh
 * total energy  :   -42.1594382 Eh     change       -0.1937659E-03 Eh
   *** GEOMETRY OPTIMIZATION CONVERGED AFTER 10 ITERATIONS ***

 final structure:
================
25
 xtb: 6.6.1 (8d0f1dd)
C            2.93196656917410        1.08931224936253        0.28880608630679
N            2.12193035576879       -0.07519915459106        0.05350311024678
C            2.57175618762650       -1.31034448200572       -0.09849691975815
N            1.53997061801775       -2.13786994131933       -0.30402376908934
C            0.36534636654754       -1.40884158332483       -0.25542126566239
C            0.74699055952493       -0.09038719414096       -0.00241468140033
C           -0.05499485006749        1.15699696506762       -0.12280530277191
O            0.41244283105396        2.12251541073542       -0.68512088959170
N           -1.34002409699023        1.11257684344382        0.35615326970579
C           -2.27540709996398        2.13778999356616       -0.07229023236787
C           -1.79498697672745        0.22987782345892        1.31712997621918
O           -2.93172316612028        0.18989608006879        1.67769330552600
N           -0.88093175651736       -1.89790056634069       -0.32596317798679
C           -1.29523538571389       -2.89009882513219       -0.99906396165558
H            2.77392463016946        1.45844834569897        1.30343482874775
H            3.98137893327003        0.83963360180841        0.15526416464109
H            2.64386577304040        1.87936531371716       -0.40645376549102
H            3.60274962672870       -1.60542928460344       -0.05502654624602
H           -1.75992515663379        2.83721814019196       -0.72583673249792
H           -3.10723438489383        1.66988169261345       -0.60012978635255
H           -2.67510091668921        2.66197212858249        0.79539383273176
H           -0.99651523815678       -0.38253749019738        1.75433386076139
H           -0.70423865349027       -3.44071953936378       -1.73009899041371
H           -2.32166914027342       -3.18997946070297       -0.85396073993249
H            1.60609588541522       -3.13793852499284       -0.43343405576666

          :  Hamiltonian                  GFN2-xTB          :
         :: total energy             -42.159438218957 Eh    ::
         :: gradient norm              0.004498705833 Eh/a0 ::
         :: HOMO-LUMO gap              2.504095413315 eV    ::
         :: SCC energy               -42.701510434097 Eh    ::
         :: -> dispersion             -0.022346721834 Eh    ::
         :: repulsion energy           0.541865544459 Eh    ::

    * Orbital Energies and Occupations

         #    Occupation            Energy/Eh            Energy/eV
      -------------------------------------------------------------
         1        2.0000           -0.9124441             -24.8289
       ...           ...                  ...                  ...
        25        2.0000           -0.6648238             -18.0908
        26        1.9999           -0.6596093             -17.9489
        27        1.9999           -0.6540162             -17.7967
        28        1.9999           -0.6486183             -17.6498
        29        1.9998           -0.6393278             -17.3970
        30        1.9995           -0.6268240             -17.0567
        31        1.9991           -0.6173605             -16.7992
        32        1.9971           -0.5987872             -16.2938
        33        1.9964           -0.5956178             -16.2076
        34        1.9842           -0.5721056             -15.5678
        35        1.9632           -0.5584939             -15.1974
        36        1.9417           -0.5510559             -14.9950
        37        1.9295           -0.5479464             -14.9104 (HOMO)
        38        0.1514           -0.4559226             -12.4063 (LUMO)
        39        0.0346           -0.4315658             -11.7435
        40        0.0036           -0.3955120             -10.7624
        41        0.0003           -0.3579481              -9.7403
        42        0.0000           -0.3223367              -8.7712
        43                         -0.1905980              -5.1864
        44                         -0.1729573              -4.7064
        45                         -0.1236420              -3.3645
        46                         -0.0675864              -1.8391
        47                         -0.0550046              -1.4968
        48                         -0.0361264              -0.9830
       ...                                ...                  ...
        67                          0.5277039              14.3596
      -------------------------------------------------------------
                  HL-Gap            0.0920238 Eh            2.5041 eV

     #   Z          covCN         q      C6AA      α(0)
     1   6 C        3.693    -0.093    22.468     6.782
     2   7 N        2.844     0.087    19.727     6.597
     3   6 C        3.025     0.061    26.598     8.460
     4   7 N        2.803    -0.062    22.438     7.035
     5   6 C        3.016     0.126    25.221     8.238
     6   6 C        3.089    -0.015    28.292     8.719
     7   6 C        2.765     0.273    22.379     7.747
     8   8 O        0.859    -0.354    20.784     6.112
     9   7 N        2.734    -0.055    22.301     7.014
    10   6 C        3.707    -0.065    21.888     6.687
    11   6 C        2.713     0.249    22.819     7.819
    12   8 O        0.858    -0.279    19.407     5.906
    13   7 N        1.824    -0.154    25.123     7.427
    14   6 C        2.793     0.038    27.126     8.532
    15   1 H        0.924     0.110     1.700     2.039
    16   1 H        0.925     0.102     1.765     2.078
    17   1 H        0.924     0.139     1.469     1.896
    18   1 H        0.926     0.125     1.577     1.964
    19   1 H        0.925     0.107     1.721     2.052
    20   1 H        0.924     0.100     1.783     2.088
    21   1 H        0.925     0.101     1.776     2.084
    22   1 H        0.924     0.045     2.388     2.417
    23   1 H        0.925     0.069     2.096     2.264
    24   1 H        0.926     0.117     1.634     1.999
    25   1 H        0.860     0.227     0.977     1.549

Wiberg/Mayer (AO) data.
largest (>0.10) Wiberg bond orders for each atom

     #   Z sym  total        # sym  WBO       # sym  WBO       # sym  WBO
 ---------------------------------------------------------------------------
     1   6 C    3.917 --     2 N    0.987    16 H    0.974    15 H    0.956
                            17 H    0.948
     2   7 N    3.710 --     3 C    1.393     6 C    1.182     1 C    0.987
     3   6 C    3.904 --     2 N    1.393     4 N    1.319    18 H    0.950
     4   7 N    3.594 --     3 C    1.319     5 C    1.145    25 H    0.920
     5   6 C    3.919 --     6 C    1.371    13 N    1.220     4 N    1.145
     6   6 C    3.881 --     5 C    1.371     2 N    1.182     7 C    0.997
     7   6 C    3.940 --     8 O    1.700     9 N    1.153     6 C    0.997
     8   8 O    2.030 --     7 C    1.700     9 N    0.140
     9   7 N    3.560 --     7 C    1.153    11 C    1.126    10 C    0.970
                             8 O    0.140    12 O    0.133
    10   6 C    3.911 --    19 H    0.970     9 N    0.970    21 H    0.963
                            20 H    0.958
    11   6 C    3.932 --    12 O    1.837     9 N    1.126    22 H    0.911
    12   8 O    2.083 --    11 C    1.837     9 N    0.133
    13   7 N    3.157 --    14 C    1.787     5 C    1.220
    14   6 C    3.809 --    13 N    1.787    24 H    0.956    23 H    0.948
    15   1 H    0.986 --     1 C    0.956
    16   1 H    0.989 --     1 C    0.974
    17   1 H    0.979 --     1 C    0.948
    18   1 H    0.984 --     3 C    0.950
    19   1 H    0.986 --    10 C    0.970
    20   1 H    0.980 --    10 C    0.958
    21   1 H    0.981 --    10 C    0.963
    22   1 H    0.980 --    11 C    0.911
    23   1 H    0.983 --    14 C    0.948
    24   1 H    0.981 --    14 C    0.956
    25   1 H    0.948 --     4 N    0.920
 ---------------------------------------------------------------------------

molecular dipole:
                 x           y           z       tot (Debye)
 q only:        2.421      -1.843      -0.336
   full:        2.899      -2.491      -0.478       9.792

           -------------------------------------------------
          | TOTAL ENERGY              -42.159438218957 Eh   |
          | GRADIENT NORM               0.004498705833 Eh/α |
          | HOMO-LUMO GAP               2.504095413315 eV   |
           -------------------------------------------------

 * finished run on 2024/06/05 at 19:58:14.771
