   * xtb version 6.6.1 (8d0f1dd) compiled by 'conda@1efc2f54142f' on 2023-08-01
          program call               : xtb struc.xyz --opt loose --input .xc1 --gfn2

   ID    Z sym.   atoms
    1    7 N      1, 17
    2    6 C      2-6, 8, 9, 11-16, 18-23, 25, 26, 28-33
    3    8 O      7, 10, 24, 27
    4    1 H      34-72
constraining bond 31 67 to    4.1400000 Å, actual value:    2.1695973 Å

          :  Hamiltonian                  GFN2-xTB          :
 * total energy  :   -98.7109004 Eh     change       -0.4035485E-08 Eh
 * total energy  :   -98.9472569 Eh     change       -0.2363565E+00 Eh
 * total energy  :   -99.0813545 Eh     change       -0.1340976E+00 Eh
 * total energy  :   -99.1488052 Eh     change       -0.6745076E-01 Eh
 * total energy  :   -99.1762046 Eh     change       -0.2739940E-01 Eh
 * total energy  :   -99.1858971 Eh     change       -0.9692453E-02 Eh
 * total energy  :   -99.1901657 Eh     change       -0.4268565E-02 Eh
 * total energy  :   -99.1951939 Eh     change       -0.5028197E-02 Eh
 * total energy  :   -99.2055199 Eh     change       -0.1032600E-01 Eh
 * total energy  :   -99.2176899 Eh     change       -0.1217002E-01 Eh
 * total energy  :   -99.3395662 Eh     change       -0.2430075E-03 Eh
 * total energy  :   -99.3397235 Eh     change       -0.1572126E-03 Eh
 * total energy  :   -99.3398113 Eh     change       -0.8781635E-04 Eh
 * total energy  :   -99.3398959 Eh     change       -0.8466017E-04 Eh
 * total energy  :   -99.3399700 Eh     change       -0.7410859E-04 Eh
 * total energy  :   -99.3400629 Eh     change       -0.9290103E-04 Eh
 * total energy  :   -99.3401261 Eh     change       -0.6317345E-04 Eh
 * total energy  :   -99.3401761 Eh     change       -0.5000374E-04 Eh
 * total energy  :   -99.3402228 Eh     change       -0.4668813E-04 Eh
   *** GEOMETRY OPTIMIZATION CONVERGED AFTER 65 ITERATIONS ***

 final structure:
================
72
 xtb: 6.6.1 (8d0f1dd)
N           -2.65966227875414        2.75308037489278        2.26637251252306
C           -2.01363254328725        2.24526923077190        1.23147416974768
C           -2.95379615525383        1.94139196246081        0.11244763117189
C           -3.42174524794337        0.48700295766108        0.20388796589236
C           -4.40214242534714        0.03010353613360       -0.67844676254791
C           -4.90308460876616       -1.25757995388993       -0.59072584366073
O           -5.84281932739403       -1.78504865277685       -1.40304285864617
C           -6.43047954605721       -0.97296753300331       -2.39184341508738
C           -4.42322656503550       -2.12607579757834        0.42725052600078
O           -5.00026138631175       -3.34264612431153        0.47145568185185
C           -4.69158621048824       -4.20425222921593        1.54352303892009
C           -3.42574709221770       -1.67368369122283        1.27427562628570
C           -2.92797256503374       -0.38195092079954        1.16126685432591
C           -2.36489515196162        2.23797973222372       -1.27872571195999
C           -1.40228319175805        1.15186504517732       -1.78733023652704
C           -0.10513540154186        1.13673649947378       -1.07810992856047
N            0.51403220820670        0.05145491300911       -0.61908819092141
C            1.89115216996229        0.12967142015674       -0.19244187868489
C            2.85772742602728       -0.26711175318171       -1.32655832872411
C            4.28339167407489       -0.09806100168438       -0.88313546165779
C            4.94144445341193        1.10675984307839       -1.06392784216264
C            6.25341121503971        1.26892571894783       -0.64529246847277
C            6.93241730688876        0.22734030858194       -0.03085088577465
O            8.20563617236451        0.26956579340799        0.40768537372348
C            8.95555400911874        1.44784806794348        0.22346979561406
C            6.26251146797482       -1.01081673951625        0.16701937866323
O            6.99552382258028       -1.96974208248374        0.76985509072271
C            6.42911588287695       -3.24176722633954        0.97394032651005
C            4.95144083730784       -1.14925817919001       -0.25877352369316
C           -0.05906188784136       -1.26678891823398       -0.74607655090096
C           -4.16465632095985        2.85129732840724        0.50070918475982
C           -4.08165388794183        2.81984948901232        2.03650309912025
C           -4.05787460636266        4.28818576739685        0.00103642420888
H           -4.78387513568464        0.69766142026711       -1.43386316652447
H           -6.93224784969213       -0.10540798822484       -1.95216682649035
H           -7.16805081498395       -1.60188453595534       -2.88618348563791
H           -5.69237484533630       -0.63713282476356       -3.12758857366059
H           -4.89228655270490       -3.72781077322541        2.50759243491150
H           -5.34421854930080       -5.06678971515880        1.42242259479228
H           -3.64781770961749       -4.53327632106645        1.50798307181928
H           -3.04080717462211       -2.30984361815114        2.05375786212609
H           -2.16496393172237       -0.06056671877524        1.85313138222822
H           -3.18480545081428        2.31593785576580       -1.99194414427138
H           -1.84742625391866        3.19739483851170       -1.25493283748988
H           -1.89462615862567        0.18228916634996       -1.74392334517316
H           -1.20310894617423        1.37559857369563       -2.84389116054491
H           -0.95355236366592        2.07722001346580        1.23292043882406
H            0.42293997529845        2.07196594818714       -0.97513313508875
H            2.04081163066544       -0.53314441997215        0.66342416423993
H            2.11614153662463        1.15106190290280        0.12125504629879
H            2.65949689991214        0.37066564090862       -2.18993001733761
H            2.67537187723671       -1.30342153497773       -1.61337956734928
H            4.43916112706795        1.92977374479319       -1.54949544096857
H            6.74256443566877        2.21488271804022       -0.80999060230655
H            8.51006079707310        2.29439186564736        0.75498869200975
H            9.05844919241993        1.69523693911843       -0.83746658856102
H            9.93796492452940        1.23674621801070        0.64141988597436
H            7.20944562529943       -3.83690518902314        1.44426777131210
H            5.56156500831846       -3.19317063449588        1.64012961887772
H            6.13915471355461       -3.70894475389490        0.02754001941369
H            4.43745765276442       -2.08797660134695       -0.12292042810517
H           -0.12322933001702       -1.57573261451670       -1.79219527756007
H           -1.06056092897546       -1.28842311475808       -0.31121084427341
H            0.56392258833324       -1.97975725195502       -0.21195223884586
H           -5.10121417638704        2.41660112926451        0.15391347451297
H           -4.55077109642144        1.91649602060990        2.46598707426756
H           -4.26111292710879        0.23647233919977        3.68951356459711
H           -4.51110033809150        3.70258898628025        2.50826074310783
H           -3.14827372123531        4.76137482868770        0.36611038007738
H           -4.06571119455064        4.33765141798333       -1.08433711638276
H           -4.90959150377255        4.85859783517561        0.36443221087934
H           -2.26790767992375        2.87714154455966        3.18691641686100

          :  Hamiltonian                  GFN2-xTB          :
         :: total energy             -99.340222808380 Eh    ::
         :: gradient norm              0.001750412860 Eh/a0 ::
         :: HOMO-LUMO gap              0.772871239346 eV    ::
         :: SCC energy              -100.698015489632 Eh    ::
         :: -> dispersion             -0.077301323201 Eh    ::
         :: repulsion energy           1.356503256580 Eh    ::

    * Orbital Energies and Occupations

         #    Occupation            Energy/Eh            Energy/eV
      -------------------------------------------------------------
         1        2.0000           -0.8038090             -21.8728
       ...           ...                  ...                  ...
        78        1.9994           -0.5366688             -14.6035
        79        1.9993           -0.5351768             -14.5629
        80        1.9991           -0.5297514             -14.4153
        81        1.9989           -0.5276848             -14.3590
        82        1.9986           -0.5236421             -14.2490
        83        1.9986           -0.5234691             -14.2443
        84        1.9978           -0.5162968             -14.0492
        85        1.9976           -0.5149634             -14.0129
        86        1.9860           -0.4870365             -13.2529
        87        1.9820           -0.4829467             -13.1416
        88        1.9021           -0.4555144             -12.3952
        89        1.8697           -0.4507081             -12.2644
        90        1.3212           -0.4190770             -11.4037 (HOMO)
        91        0.4892           -0.3906745             -10.6308 (LUMO)
        92        0.4498           -0.3889382             -10.5835
        93        0.0047           -0.3126981              -8.5089
        94        0.0038           -0.3095479              -8.4232
        95        0.0033           -0.3068720              -8.3504
        96        0.0028           -0.3043898              -8.2829
        97        0.0000           -0.1873302              -5.0975
        98        0.0000           -0.1817288              -4.9451
        99                         -0.1289681              -3.5094
       100                         -0.1085257              -2.9531
       101                         -0.0789967              -2.1496
       ...                                ...                  ...
       171                          0.5826381              15.8544
      -------------------------------------------------------------
                  HL-Gap            0.0284025 Eh            0.7729 eV

     #   Z          covCN         q      C6AA      α(0)
     1   7 N        2.716    -0.052    22.245     7.005
     2   6 C        2.912     0.016    27.648     8.622
     3   6 C        3.939     0.013    20.299     6.403
     4   6 C        2.974    -0.008    28.204     8.711
     5   6 C        2.920    -0.082    30.059     8.991
     6   6 C        2.863     0.130    25.149     8.220
     7   8 O        1.706    -0.231    17.824     5.700
     8   6 C        3.645     0.028    20.438     6.498
     9   6 C        2.865     0.131    25.120     8.216
    10   8 O        1.706    -0.228    17.786     5.694
    11   6 C        3.646     0.027    20.458     6.500
    12   6 C        2.915    -0.066    29.655     8.930
    13   6 C        2.920    -0.046    29.155     8.854
    14   6 C        3.805    -0.068    21.795     6.646
    15   6 C        3.802    -0.070    21.837     6.653
    16   6 C        2.844    -0.009    28.225     8.707
    17   7 N        2.729     0.010    21.081     6.819
    18   6 C        3.756    -0.017    20.937     6.524
    19   6 C        3.808    -0.070    21.837     6.652
    20   6 C        2.969    -0.002    28.067     8.690
    21   6 C        2.922    -0.050    29.244     8.868
    22   6 C        2.914    -0.069    29.706     8.938
    23   6 C        2.865     0.132    25.108     8.213
    24   8 O        1.706    -0.226    17.742     5.687
    25   6 C        3.645     0.026    20.467     6.502
    26   6 C        2.863     0.132    25.112     8.214
    27   8 O        1.706    -0.228    17.782     5.693
    28   6 C        3.645     0.028    20.436     6.497
    29   6 C        2.920    -0.080    30.005     8.983
    30   6 C        3.700    -0.072    22.054     6.716
    31   6 C        3.898    -0.022    20.910     6.500
    32   6 C        3.809    -0.018    20.884     6.505
    33   6 C        3.754    -0.118    22.826     6.813
    34   1 H        0.926     0.049     2.336     2.390
    35   1 H        0.924     0.051     2.311     2.377
    36   1 H        0.925     0.081     1.971     2.195
    37   1 H        0.924     0.046     2.368     2.406
    38   1 H        0.924     0.058     2.220     2.330
    39   1 H        0.925     0.080     1.978     2.199
    40   1 H        0.924     0.048     2.346     2.395
    41   1 H        0.926     0.058     2.226     2.333
    42   1 H        0.926     0.038     2.472     2.459
    43   1 H        0.925     0.063     2.168     2.303
    44   1 H        0.924     0.056     2.243     2.342
    45   1 H        0.925     0.068     2.113     2.273
    46   1 H        0.923     0.078     1.997     2.210
    47   1 H        0.926     0.060     2.195     2.317
    48   1 H        0.926     0.062     2.179     2.308
    49   1 H        0.924     0.067     2.121     2.278
    50   1 H        0.924     0.065     2.140     2.288
    51   1 H        0.924     0.053     2.280     2.361
    52   1 H        0.924     0.055     2.260     2.351
    53   1 H        0.926     0.042     2.416     2.431
    54   1 H        0.926     0.056     2.245     2.343
    55   1 H        0.924     0.052     2.294     2.368
    56   1 H        0.924     0.054     2.270     2.356
    57   1 H        0.925     0.081     1.972     2.196
    58   1 H        0.925     0.080     1.976     2.198
    59   1 H        0.924     0.047     2.354     2.400
    60   1 H        0.924     0.051     2.309     2.376
    61   1 H        0.926     0.046     2.374     2.409
    62   1 H        0.924     0.075     2.035     2.231
    63   1 H        0.924     0.081     1.971     2.195
    64   1 H        0.925     0.079     1.990     2.206
    65   1 H        0.925     0.062     2.178     2.308
    66   1 H        0.922     0.098     1.803     2.100
    67   1 H        0.000    -0.308    59.952    14.158
    68   1 H        0.925     0.077     2.010     2.217
    69   1 H        0.925     0.045     2.385     2.415
    70   1 H        0.925     0.054     2.276     2.359
    71   1 H        0.925     0.059     2.215     2.327
    72   1 H        0.860     0.194     1.139     1.672

Wiberg/Mayer (AO) data.
largest (>0.10) Wiberg bond orders for each atom

     #   Z sym  total        # sym  WBO       # sym  WBO       # sym  WBO
 ---------------------------------------------------------------------------
     1   7 N    3.417 --     2 C    1.432    32 C    0.993    72 H    0.933
     2   6 C    3.525 --     1 N    1.432     3 C    1.023    47 H    0.961
     3   6 C    3.984 --     2 C    1.023    14 C    0.971     4 C    0.947
                            31 C    0.942
     4   6 C    3.927 --    13 C    1.421     5 C    1.367     3 C    0.947
     5   6 C    3.963 --     6 C    1.403     4 C    1.367    34 H    0.959
     6   6 C    3.909 --     5 C    1.403     9 C    1.223     7 O    1.097
     7   8 O    2.257 --     6 C    1.097     8 C    0.979
     8   6 C    3.934 --     7 O    0.979    36 H    0.977    35 H    0.974
                            37 H    0.974
     9   6 C    3.911 --    12 C    1.396     6 C    1.223    10 O    1.104
    10   8 O    2.259 --     9 C    1.104    11 C    0.976
    11   6 C    3.931 --    39 H    0.977    10 O    0.976    38 H    0.974
                            40 H    0.974
    12   6 C    3.964 --    13 C    1.397     9 C    1.396    41 H    0.963
    13   6 C    3.958 --     4 C    1.421    12 C    1.397    42 H    0.960
    14   6 C    3.967 --    15 C    0.983    44 H    0.973     3 C    0.971
                            43 H    0.969
    15   6 C    3.988 --    16 C    1.060    14 C    0.983    45 H    0.961
                            46 H    0.930
    16   6 C    3.517 --    17 N    1.387    15 C    1.060    48 H    0.959
    17   7 N    3.444 --    16 C    1.387    30 C    1.000    18 C    0.990
    18   6 C    3.956 --    17 N    0.990    50 H    0.968    49 H    0.965
                            19 C    0.965
    19   6 C    3.975 --    20 C    1.008    51 H    0.972    52 H    0.972
                            18 C    0.965
    20   6 C    3.950 --    21 C    1.414    29 C    1.377    19 C    1.008
    21   6 C    3.954 --    22 C    1.414    20 C    1.414    53 H    0.968
    22   6 C    3.963 --    21 C    1.414    23 C    1.387    54 H    0.963
    23   6 C    3.901 --    22 C    1.387    26 C    1.224    24 O    1.105
    24   8 O    2.255 --    23 C    1.105    25 C    0.977
    25   6 C    3.931 --    57 H    0.977    24 O    0.977    55 H    0.973
                            56 H    0.973
    26   6 C    3.904 --    29 C    1.399    23 C    1.224    27 O    1.099
    27   8 O    2.254 --    26 C    1.099    28 C    0.979
    28   6 C    3.934 --    27 O    0.979    58 H    0.977    59 H    0.974
                            60 H    0.974
    29   6 C    3.961 --    26 C    1.399    20 C    1.377    61 H    0.963
    30   6 C    3.958 --    17 N    1.000    64 H    0.977    62 H    0.966
                            63 H    0.960
    31   6 C    3.976 --    33 C    1.012    32 C    0.989    65 H    0.965
                             3 C    0.942
    32   6 C    3.933 --     1 N    0.993    31 C    0.989    68 H    0.965
                            66 H    0.923
    33   6 C    3.989 --    31 C    1.012    69 H    0.986    70 H    0.981
                            71 H    0.981
    34   1 H    0.996 --     5 C    0.959
    35   1 H    0.994 --     8 C    0.974
    36   1 H    0.993 --     8 C    0.977
    37   1 H    0.995 --     8 C    0.974
    38   1 H    0.993 --    11 C    0.974
    39   1 H    0.993 --    11 C    0.977
    40   1 H    0.994 --    11 C    0.974
    41   1 H    0.995 --    12 C    0.963
    42   1 H    0.998 --    13 C    0.960
    43   1 H    0.994 --    14 C    0.969
    44   1 H    0.996 --    14 C    0.973
    45   1 H    0.994 --    15 C    0.961
    46   1 H    0.966 --    15 C    0.930
    47   1 H    0.996 --     2 C    0.961
    48   1 H    0.996 --    16 C    0.959
    49   1 H    0.991 --    18 C    0.965
    50   1 H    0.994 --    18 C    0.968
    51   1 H    0.996 --    19 C    0.972
    52   1 H    0.996 --    19 C    0.972
    53   1 H    0.998 --    21 C    0.968
    54   1 H    0.995 --    22 C    0.963
    55   1 H    0.993 --    25 C    0.973
    56   1 H    0.993 --    25 C    0.973
    57   1 H    0.993 --    25 C    0.977
    58   1 H    0.993 --    28 C    0.977
    59   1 H    0.994 --    28 C    0.974
    60   1 H    0.994 --    28 C    0.974
    61   1 H    0.997 --    29 C    0.963
    62   1 H    0.983 --    30 C    0.966
    63   1 H    0.986 --    30 C    0.960
    64   1 H    0.993 --    30 C    0.977
    65   1 H    0.996 --    31 C    0.965
    66   1 H    0.977 --    32 C    0.923
    67   1 H    0.041
    68   1 H    0.990 --    32 C    0.965
    69   1 H    0.998 --    33 C    0.986
    70   1 H    0.996 --    33 C    0.981
    71   1 H    0.995 --    33 C    0.981
    72   1 H    0.961 --     1 N    0.933
 ---------------------------------------------------------------------------

molecular dipole:
                 x           y           z       tot (Debye)
 q only:        0.481       1.652      -1.205
   full:        0.535       1.805      -0.967       5.379

           -------------------------------------------------
          | TOTAL ENERGY              -99.340222808380 Eh   |
          | GRADIENT NORM               0.001750412860 Eh/α |
          | HOMO-LUMO GAP               0.772871239346 eV   |
           -------------------------------------------------

 * finished run on 2024/04/06 at 11:14:55.194
