   * xtb version 6.6.1 (8d0f1dd) compiled by 'conda@1efc2f54142f' on 2023-08-01
          program call               : xtb struc.xyz --opt loose --input .xc1 --gfn2

   ID    Z sym.   atoms
    1    6 C      1, 3, 5-7, 10, 11, 14
    2    7 N      2, 4, 9, 13
    3    8 O      8, 12
    4    1 H      15-25
constraining bond 9 13 to    4.8400000 Å, actual value:    2.3869999 Å

          :  Hamiltonian                  GFN2-xTB          :
 * total energy  :   -31.5161296 Eh     change       -0.2401990E-09 Eh
 * total energy  :   -35.4718719 Eh     change       -0.3955742E+01 Eh
 * total energy  :   -38.4350340 Eh     change       -0.2963162E+01 Eh
 * total energy  :   -40.2448909 Eh     change       -0.1809857E+01 Eh
 * total energy  :   -41.3209565 Eh     change       -0.1076066E+01 Eh
 * total energy  :   -41.6300480 Eh     change       -0.3090915E+00 Eh
 * total energy  :   -41.6753565 Eh     change       -0.4530852E-01 Eh
 * total energy  :   -41.7304695 Eh     change       -0.5511303E-01 Eh
 * total energy  :   -41.7819771 Eh     change       -0.5150758E-01 Eh
 * total energy  :   -41.8091515 Eh     change       -0.2717434E-01 Eh
 * total energy  :   -42.1295161 Eh     change       -0.2599615E-03 Eh
 * total energy  :   -42.1296319 Eh     change       -0.1157716E-03 Eh
 * total energy  :   -42.1298349 Eh     change       -0.2029890E-03 Eh
 * total energy  :   -42.1300127 Eh     change       -0.1778286E-03 Eh
 * total energy  :   -42.1301672 Eh     change       -0.1544559E-03 Eh
 * total energy  :   -42.1302840 Eh     change       -0.1168311E-03 Eh
 * total energy  :   -42.1303644 Eh     change       -0.8039043E-04 Eh
 * total energy  :   -42.1304181 Eh     change       -0.5366928E-04 Eh
 * total energy  :   -42.1304614 Eh     change       -0.4333180E-04 Eh
   *** GEOMETRY OPTIMIZATION CONVERGED AFTER 87 ITERATIONS ***

 final structure:
================
25
 xtb: 6.6.1 (8d0f1dd)
C            2.01247366006548        1.49338613266821       -0.40949000285254
N            1.55099971026944        0.13028607284410       -0.36938501469751
C            2.29092638027223       -0.87868839385559       -0.82614862588335
N            1.68974933431672       -2.03371769084023       -0.54643307756633
C            0.50335130631450       -1.82642761459724        0.15357764917755
C            0.40077232102514       -0.36336462888843        0.23598121636587
C           -0.57823126227669        0.46338849791760        0.92197552584681
O           -1.30177726090490       -0.00982871312552        1.78969719402409
N           -0.70025528765130        1.87997541104796        0.67473185391699
C           -1.09120304569358        2.40730553866061       -0.63754272750755
C           -1.69761225150593        1.41147084206072       -1.49432645969068
O           -1.88208831630077        0.27600050657950       -1.72480736125649
N           -0.11987278041202       -2.91106089044409        0.49305042936144
C           -1.32821264109068       -3.03225050284752        1.20074157885171
H            1.56378524367159        2.06191309678587        0.40205887215412
H            3.09683588287401        1.50820799067734       -0.29858957158960
H            1.76818892388699        1.95614158419218       -1.36866987245327
H            3.23503865965087       -0.77006509644216       -1.32329028239147
H           -1.29634826028546        2.23444612766674        1.41882831516661
H           -0.22491434971286        2.83389331775875       -1.16445259024997
H           -1.79704909518023        3.23384917904310       -0.49069055079541
H           -1.19566418984368       -3.80271057189191        1.96472641461454
H           -2.10793164174693       -3.38483378902724        0.51862847088940
H           -1.65469485410437       -2.09679178256693        1.67138620201960
H            2.02416532845141       -2.96228608177860       -0.76038596754864

          :  Hamiltonian                  GFN2-xTB          :
         :: total energy             -42.130461401545 Eh    ::
         :: gradient norm              0.003777145984 Eh/a0 ::
         :: HOMO-LUMO gap              1.316016126499 eV    ::
         :: SCC energy               -42.638359039065 Eh    ::
         :: -> dispersion             -0.022614052721 Eh    ::
         :: repulsion energy           0.507412711404 Eh    ::

    * Orbital Energies and Occupations

         #    Occupation            Energy/Eh            Energy/eV
      -------------------------------------------------------------
         1        2.0000           -0.9077350             -24.7007
       ...           ...                  ...                  ...
        25        1.9994           -0.6685294             -18.1916
        26        1.9990           -0.6556862             -17.8421
        27        1.9986           -0.6489839             -17.6597
        28        1.9980           -0.6400842             -17.4176
        29        1.9980           -0.6393728             -17.3982
        30        1.9976           -0.6358229             -17.3016
        31        1.9929           -0.6095865             -16.5877
        32        1.9925           -0.6083092             -16.5529
        33        1.9755           -0.5800112             -15.7829
        34        1.9644           -0.5710582             -15.5393
        35        1.9185           -0.5507932             -14.9878
        36        1.7307           -0.5199677             -14.1490
        37        1.5090           -0.5024472             -13.6723 (HOMO)
        38        0.5726           -0.4540845             -12.3563 (LUMO)
        39        0.1815           -0.4210503             -11.4574
        40        0.1470           -0.4155886             -11.3087
        41        0.0250           -0.3719587             -10.1215
        42        0.0018           -0.3088334              -8.4038
        43        0.0000           -0.1771199              -4.8197
        44        0.0000           -0.1734135              -4.7188
        45        0.0000           -0.1269820              -3.4554
        46                         -0.0697211              -1.8972
        47                         -0.0632135              -1.7201
        48                         -0.0565278              -1.5382
       ...                                ...                  ...
        67                          0.6369760              17.3330
      -------------------------------------------------------------
                  HL-Gap            0.0483627 Eh            1.3160 eV

     #   Z          covCN         q      C6AA      α(0)
     1   6 C        3.695    -0.087    22.342     6.762
     2   7 N        2.816     0.047    20.416     6.711
     3   6 C        2.962     0.059    26.669     8.471
     4   7 N        2.799    -0.065    22.490     7.043
     5   6 C        2.933     0.142    24.904     8.184
     6   6 C        3.027    -0.022    28.535     8.762
     7   6 C        2.745     0.260    22.624     7.788
     8   8 O        0.859    -0.376    21.216     6.176
     9   7 N        2.680    -0.216    25.719     7.532
    10   6 C        3.734    -0.007    20.784     6.506
    11   6 C        1.838     0.194    26.551     8.324
    12   8 O        0.856    -0.151    17.292     5.575
    13   7 N        1.838    -0.174    25.568     7.493
    14   6 C        3.692    -0.046    21.592     6.649
    15   1 H        0.925     0.111     1.692     2.034
    16   1 H        0.925     0.101     1.779     2.086
    17   1 H        0.924     0.088     1.899     2.155
    18   1 H        0.926     0.111     1.689     2.032
    19   1 H        0.860     0.215     1.033     1.592
    20   1 H        0.923     0.125     1.571     1.960
    21   1 H        0.924     0.134     1.505     1.919
    22   1 H        0.924     0.109     1.703     2.041
    23   1 H        0.924     0.106     1.727     2.055
    24   1 H        0.924     0.111     1.689     2.032
    25   1 H        0.860     0.232     0.956     1.532

Wiberg/Mayer (AO) data.
largest (>0.10) Wiberg bond orders for each atom

     #   Z sym  total        # sym  WBO       # sym  WBO       # sym  WBO
 ---------------------------------------------------------------------------
     1   6 C    3.931 --     2 N    0.992    16 H    0.968    15 H    0.963
                            17 H    0.958
     2   7 N    3.608 --     3 C    1.336     6 C    1.139     1 C    0.992
     3   6 C    3.786 --     2 N    1.336     4 N    1.322    18 H    0.953
     4   7 N    3.529 --     3 C    1.322     5 C    1.104    25 H    0.917
     5   6 C    3.912 --    13 N    1.515     6 C    1.149     4 N    1.104
     6   6 C    3.681 --     5 C    1.149     2 N    1.139     7 C    1.128
     7   6 C    3.874 --     8 O    1.633     6 C    1.128     9 N    1.041
     8   8 O    1.889 --     7 C    1.633     9 N    0.102
     9   7 N    3.148 --     7 C    1.041    10 C    0.966    19 H    0.926
                             8 O    0.102
    10   6 C    3.930 --    11 C    1.069     9 N    0.966    21 H    0.923
                            20 H    0.903
    11   6 C    3.192 --    12 O    2.047    10 C    1.069
    12   8 O    2.162 --    11 C    2.047
    13   7 N    2.748 --     5 C    1.515    14 C    1.078
    14   6 C    3.865 --    13 N    1.078    22 H    0.926    23 H    0.916
                            24 H    0.907
    15   1 H    0.985 --     1 C    0.963
    16   1 H    0.986 --     1 C    0.968
    17   1 H    0.985 --     1 C    0.958
    18   1 H    0.986 --     3 C    0.953
    19   1 H    0.950 --     9 N    0.926
    20   1 H    0.965 --    10 C    0.903
    21   1 H    0.966 --    10 C    0.923
    22   1 H    0.945 --    14 C    0.926
    23   1 H    0.942 --    14 C    0.916
    24   1 H    0.928 --    14 C    0.907
    25   1 H    0.945 --     4 N    0.917
 ---------------------------------------------------------------------------

molecular dipole:
                 x           y           z       tot (Debye)
 q only:        1.713       0.611      -1.144
   full:        1.718       0.853      -1.257       5.829

           -------------------------------------------------
          | TOTAL ENERGY              -42.130461401545 Eh   |
          | GRADIENT NORM               0.003777145984 Eh/α |
          | HOMO-LUMO GAP               1.316016126499 eV   |
           -------------------------------------------------

 * finished run on 2024/06/05 at 19:58:53.292
