   * xtb version 6.6.1 (8d0f1dd) compiled by 'conda@1efc2f54142f' on 2023-08-01
          program call               : xtb xtbopt.xyz --opt crude --input .xc2 --gfn2

   ID    Z sym.   atoms
    1    6 C      1, 3, 5-7, 10, 11, 14
    2    7 N      2, 4, 9, 13
    3    8 O      8, 12
    4    1 H      15-25
########################################################################
[WARNING] Please study the warnings concerning your input carefully
-1- readin_getIntValue: could not parse ''
########################################################################

          :  Hamiltonian                  GFN2-xTB          :
 * total energy  :   -42.1306590 Eh     change       -0.7986500E-11 Eh
 * total energy  :   -42.1334426 Eh     change       -0.2783651E-02 Eh
 * total energy  :   -42.1347310 Eh     change       -0.1288397E-02 Eh
 * total energy  :   -42.1350873 Eh     change       -0.3562664E-03 Eh
   *** GEOMETRY OPTIMIZATION CONVERGED AFTER 4 ITERATIONS ***

 final structure:
================
25
 xtb: 6.6.1 (8d0f1dd)
C            2.04897731112101        1.51996257369156       -0.40768801809837
N            1.58192730855863        0.15888029896564       -0.37939847600258
C            2.30611072069697       -0.86004100494692       -0.84571873897964
N            1.69162355443606       -2.01173792011922       -0.56934570506893
C            0.51451754246914       -1.77084842390859        0.13920794150422
C            0.44207922607125       -0.33634076216971        0.23607229363316
C           -0.56261880500532        0.40440305219521        0.95023793774533
O           -1.24388655627780       -0.09832419064332        1.83738109494028
N           -0.74319447812328        1.77248820352794        0.68279246688154
C           -1.09955953345236        2.32165388322128       -0.63323204219233
C           -1.70137198917127        1.34089283247407       -1.50887938317858
O           -1.89829947756132        0.20861045780846       -1.74192055697246
N           -0.17652492302643       -2.79239227183665        0.48859959081113
C           -1.37142851656994       -2.94107309495923        1.20271739223911
H            1.59288768590726        2.08473219667519        0.40277228518501
H            3.13095231927940        1.53089773505362       -0.28056296878305
H            1.81762339851284        1.98905663717719       -1.36643754383727
H            3.24672818379445       -0.75982209454975       -1.35011373689417
H           -1.34426032847651        2.14132478600081        1.41691198551331
H           -0.21776535968630        2.74020583411925       -1.14018679994666
H           -1.79008834749898        3.15868968072060       -0.48201908338944
H           -1.22370436081925       -3.74060515356363        1.93642739208269
H           -2.15735793068424       -3.27108242623128        0.51526221693071
H           -1.69290696860770       -2.02755838005574        1.71770400334621
H            2.00997183820268       -2.94373390704969       -0.78941192956333

          :  Hamiltonian                  GFN2-xTB          :
         :: total energy             -42.135087291177 Eh    ::
         :: gradient norm              0.005694031121 Eh/a0 ::
         :: HOMO-LUMO gap              1.319027184081 eV    ::
         :: SCC energy               -42.656878183370 Eh    ::
         :: -> dispersion             -0.022817053226 Eh    ::
         :: repulsion energy           0.521495501975 Eh    ::

    * Orbital Energies and Occupations

         #    Occupation            Energy/Eh            Energy/eV
      -------------------------------------------------------------
         1        2.0000           -0.9058904             -24.6505
       ...           ...                  ...                  ...
        25        1.9995           -0.6685629             -18.1925
        26        1.9991           -0.6571730             -17.8826
        27        1.9988           -0.6493163             -17.6688
        28        1.9982           -0.6398136             -17.4102
        29        1.9980           -0.6382488             -17.3676
        30        1.9978           -0.6356324             -17.2964
        31        1.9941           -0.6120636             -16.6551
        32        1.9930           -0.6080752             -16.5466
        33        1.9787           -0.5814090             -15.8209
        34        1.9648           -0.5692791             -15.4909
        35        1.9229           -0.5501613             -14.9706
        36        1.6844           -0.5135537             -13.9745
        37        1.5278           -0.5016611             -13.6509 (HOMO)
        38        0.5919           -0.4531878             -12.3319 (LUMO)
        39        0.1814           -0.4190265             -11.4023
        40        0.1466           -0.4135198             -11.2524
        41        0.0236           -0.3685840             -10.0297
        42        0.0014           -0.3005347              -8.1780
        43        0.0000           -0.1748595              -4.7582
        44        0.0000           -0.1555604              -4.2330
        45        0.0000           -0.1287974              -3.5048
        46                         -0.0633537              -1.7239
        47                         -0.0605805              -1.6485
        48                         -0.0466219              -1.2686
       ...                                ...                  ...
        67                          0.6396475              17.4057
      -------------------------------------------------------------
                  HL-Gap            0.0484734 Eh            1.3190 eV

     #   Z          covCN         q      C6AA      α(0)
     1   6 C        3.694    -0.085    22.307     6.757
     2   7 N        2.818     0.047    20.422     6.712
     3   6 C        2.980     0.059    26.676     8.472
     4   7 N        2.796    -0.069    22.569     7.056
     5   6 C        2.946     0.145    24.851     8.176
     6   6 C        3.047    -0.026    28.599     8.771
     7   6 C        2.748     0.264    22.553     7.776
     8   8 O        0.860    -0.386    21.411     6.204
     9   7 N        2.684    -0.209    25.559     7.509
    10   6 C        3.734    -0.009    20.824     6.513
    11   6 C        1.839     0.192    26.598     8.332
    12   8 O        0.856    -0.154    17.329     5.581
    13   7 N        1.834    -0.169    25.459     7.477
    14   6 C        3.688    -0.048    21.638     6.658
    15   1 H        0.925     0.107     1.719     2.050
    16   1 H        0.925     0.101     1.776     2.084
    17   1 H        0.924     0.088     1.900     2.156
    18   1 H        0.926     0.110     1.696     2.036
    19   1 H        0.860     0.215     1.034     1.593
    20   1 H        0.923     0.125     1.577     1.964
    21   1 H        0.924     0.134     1.504     1.918
    22   1 H        0.924     0.111     1.692     2.034
    23   1 H        0.924     0.107     1.726     2.055
    24   1 H        0.924     0.123     1.590     1.972
    25   1 H        0.860     0.230     0.966     1.540

Wiberg/Mayer (AO) data.
largest (>0.10) Wiberg bond orders for each atom

     #   Z sym  total        # sym  WBO       # sym  WBO       # sym  WBO
 ---------------------------------------------------------------------------
     1   6 C    3.933 --     2 N    0.992    16 H    0.968    15 H    0.966
                            17 H    0.958
     2   7 N    3.605 --     3 C    1.333     6 C    1.137     1 C    0.992
     3   6 C    3.779 --     2 N    1.333     4 N    1.319    18 H    0.953
     4   7 N    3.520 --     3 C    1.319     5 C    1.093    25 H    0.919
     5   6 C    3.921 --    13 N    1.520     6 C    1.165     4 N    1.093
     6   6 C    3.688 --     5 C    1.165     2 N    1.137     7 C    1.125
     7   6 C    3.882 --     8 O    1.604     6 C    1.125     9 N    1.079
     8   8 O    1.880 --     7 C    1.604     9 N    0.110
     9   7 N    3.183 --     7 C    1.079    10 C    0.960    19 H    0.926
                             8 O    0.110
    10   6 C    3.928 --    11 C    1.069     9 N    0.960    21 H    0.925
                            20 H    0.904
    11   6 C    3.186 --    12 O    2.043    10 C    1.069
    12   8 O    2.155 --    11 C    2.043
    13   7 N    2.758 --     5 C    1.520    14 C    1.082
    14   6 C    3.855 --    13 N    1.082    22 H    0.923    23 H    0.918
                            24 H    0.890
    15   1 H    0.986 --     1 C    0.966
    16   1 H    0.986 --     1 C    0.968
    17   1 H    0.985 --     1 C    0.958
    18   1 H    0.986 --     3 C    0.953
    19   1 H    0.950 --     9 N    0.926
    20   1 H    0.966 --    10 C    0.904
    21   1 H    0.967 --    10 C    0.925
    22   1 H    0.942 --    14 C    0.923
    23   1 H    0.944 --    14 C    0.918
    24   1 H    0.918 --    14 C    0.890
    25   1 H    0.946 --     4 N    0.919
 ---------------------------------------------------------------------------

molecular dipole:
                 x           y           z       tot (Debye)
 q only:        1.662       0.597      -1.126
   full:        1.708       0.827      -1.242       5.765

           -------------------------------------------------
          | TOTAL ENERGY              -42.135087291177 Eh   |
          | GRADIENT NORM               0.005694031121 Eh/α |
          | HOMO-LUMO GAP               1.319027184081 eV   |
           -------------------------------------------------

 * finished run on 2024/06/05 at 19:58:53.523
