   * xtb version 6.6.1 (8d0f1dd) compiled by 'conda@1efc2f54142f' on 2023-08-01
          program call               : xtb xtbopt.xyz --opt crude --input .xc2 --gfn2

   ID    Z sym.   atoms
    1    6 C      1, 3, 5-7, 10, 11, 14
    2    7 N      2, 4, 9, 13
    3    8 O      8, 12
    4    1 H      15-25
########################################################################
[WARNING] Please study the warnings concerning your input carefully
-1- readin_getIntValue: could not parse ''
########################################################################

          :  Hamiltonian                  GFN2-xTB          :
 * total energy  :   -40.4256246 Eh     change       -0.4050094E-12 Eh
 * total energy  :   -42.1210475 Eh     change       -0.1695423E+01 Eh
 * total energy  :   -42.1394844 Eh     change       -0.1843689E-01 Eh
 * total energy  :   -42.1436349 Eh     change       -0.4150470E-02 Eh
 * total energy  :   -42.1445027 Eh     change       -0.8677776E-03 Eh
 * total energy  :   -42.1448120 Eh     change       -0.3092827E-03 Eh
 * total energy  :   -42.1450785 Eh     change       -0.2665806E-03 Eh
 * total energy  :   -42.1452864 Eh     change       -0.2078337E-03 Eh
 * total energy  :   -42.1455027 Eh     change       -0.2163508E-03 Eh
 * total energy  :   -42.1456270 Eh     change       -0.1242571E-03 Eh
   *** GEOMETRY OPTIMIZATION CONVERGED AFTER 10 ITERATIONS ***

 final structure:
================
25
 xtb: 6.6.1 (8d0f1dd)
C            3.49090582636970        1.04088277616900        0.03491126797120
N            2.43737315026467        0.06461325935834       -0.01401307884764
C            2.59119818294690       -1.26868207609820       -0.03273150083473
N            1.37103282790002       -1.84961000934652       -0.03658992992514
C            0.40076095030054       -0.86413946680938       -0.02035424776009
C            1.08068356343885        0.36066945578861       -0.00008556897166
C           -0.54147899070043        2.08490612971546        0.01969819332689
O            0.73499807793714        1.64083413893075        0.03026378912080
N           -1.59242174620923        1.24779762102699        0.05182665917711
C           -3.04166632090208        1.39395959684092       -0.00239805487773
C           -1.79142098952255       -0.07693465321234        0.10656375248218
O           -3.17234927070124       -0.02933483596587        0.01627544636967
N           -0.94229692566148       -1.12377143880598       -0.00831925462878
C           -1.46544968862281       -2.47436834876193       -0.03221143890991
H            3.79426095207819        1.22769857514875        1.06789851689046
H            4.34947859169691        0.68097975230383       -0.52913105405278
H            3.13307225688680        1.97356934562438       -0.39758357510964
H            3.52545487977765       -1.78594390272108       -0.05113951091180
H           -0.66108104926366        3.14795507157957        0.06276068552646
H           -3.41604120580942        1.83258973410595       -0.92925020301660
H           -3.48473452399335        1.86720135945108        0.87632306537561
H           -1.14093490859305       -3.03280178959029        0.84759125500375
H           -1.14462118873349       -2.98763489401581       -0.93984381531989
H           -2.55129912114677       -2.41219180926333       -0.02925248301738
H            1.19700818436198       -2.84000504984958       -0.06003729715333

          :  Hamiltonian                  GFN2-xTB          :
         :: total energy             -42.145626991859 Eh    ::
         :: gradient norm              0.006946176912 Eh/a0 ::
         :: HOMO-LUMO gap              1.751921442677 eV    ::
         :: SCC energy               -42.626263325369 Eh    ::
         :: -> dispersion             -0.022159745394 Eh    ::
         :: repulsion energy           0.480546943302 Eh    ::

    * Orbital Energies and Occupations

         #    Occupation            Energy/Eh            Energy/eV
      -------------------------------------------------------------
         1        2.0000           -0.8892656             -24.1981
       ...           ...                  ...                  ...
        25        2.0000           -0.6660063             -18.1230
        26        2.0000           -0.6590204             -17.9329
        27        2.0000           -0.6489833             -17.6597
        28        2.0000           -0.6340473             -17.2533
        29        2.0000           -0.6259907             -17.0341
        30        2.0000           -0.6231127             -16.9558
        31        2.0000           -0.6194970             -16.8574
        32        2.0000           -0.6170753             -16.7915
        33        2.0000           -0.6135557             -16.6957
        34        2.0000           -0.5926148             -16.1259
        35        1.9999           -0.5810129             -15.8102
        36        1.9962           -0.5146413             -14.0041
        37        1.7638           -0.4472556             -12.1704 (HOMO)
        38        0.2270           -0.3828737             -10.4185 (LUMO)
        39        0.0109           -0.3330231              -9.0620
        40        0.0023           -0.3079620              -8.3801
        41        0.0000           -0.2152115              -5.8562
        42        0.0000           -0.1837950              -5.0013
        43        0.0000           -0.1679994              -4.5715
        44                         -0.1307196              -3.5571
        45                         -0.1181236              -3.2143
        46                         -0.1018919              -2.7726
        47                         -0.0643751              -1.7517
        48                         -0.0361554              -0.9838
       ...                                ...                  ...
        67                          0.5204981              14.1635
      -------------------------------------------------------------
                  HL-Gap            0.0643819 Eh            1.7519 eV

     #   Z          covCN         q      C6AA      α(0)
     1   6 C        3.691    -0.078    22.180     6.740
     2   7 N        2.826     0.020    20.897     6.789
     3   6 C        2.981     0.024    27.461     8.596
     4   7 N        2.784    -0.085    22.902     7.108
     5   6 C        3.007     0.040    27.080     8.536
     6   6 C        2.947     0.126    25.235     8.239
     7   6 C        2.720     0.044    26.992     8.505
     8   8 O        1.709    -0.176    16.958     5.560
     9   7 N        2.795    -0.050    22.204     6.999
    10   6 C        4.230     0.136    18.305     6.076
    11   6 C        3.352     0.185    21.645     7.327
    12   8 O        1.767    -0.264    18.361     5.786
    13   7 N        2.730    -0.036    21.948     6.958
    14   6 C        3.700    -0.067    21.958     6.701
    15   1 H        0.924     0.095     1.828     2.114
    16   1 H        0.925     0.095     1.831     2.116
    17   1 H        0.925     0.105     1.740     2.063
    18   1 H        0.927     0.106     1.732     2.058
    19   1 H        0.926     0.090     1.879     2.144
    20   1 H        0.924     0.103     1.758     2.074
    21   1 H        0.924     0.102     1.764     2.077
    22   1 H        0.924     0.080     1.984     2.203
    23   1 H        0.924     0.082     1.961     2.190
    24   1 H        0.925     0.108     1.715     2.048
    25   1 H        0.860     0.216     1.028     1.588

Wiberg/Mayer (AO) data.
largest (>0.10) Wiberg bond orders for each atom

     #   Z sym  total        # sym  WBO       # sym  WBO       # sym  WBO
 ---------------------------------------------------------------------------
     1   6 C    3.936 --     2 N    0.992    16 H    0.973    17 H    0.971
                            15 H    0.962
     2   7 N    3.567 --     3 C    1.294     6 C    1.116     1 C    0.992
     3   6 C    3.729 --     2 N    1.294     4 N    1.258    18 H    0.958
     4   7 N    3.486 --     3 C    1.258     5 C    1.126    25 H    0.925
     5   6 C    3.855 --     6 C    1.303    13 N    1.128     4 N    1.126
     6   6 C    3.847 --     5 C    1.303     2 N    1.116     8 O    1.107
     7   6 C    3.599 --     9 N    1.196     8 O    1.050    19 H    0.954
                            11 C    0.192
     8   8 O    2.405 --     6 C    1.107     7 C    1.050
     9   7 N    3.577 --    11 C    1.197     7 C    1.196    10 C    0.966
    10   6 C    3.908 --    12 O    0.968     9 N    0.966    21 H    0.958
                            20 H    0.957
    11   6 C    3.722 --     9 N    1.197    13 N    1.157    12 O    0.995
                             7 C    0.192
    12   8 O    2.118 --    11 C    0.995    10 C    0.968
    13   7 N    3.527 --    11 C    1.157     5 C    1.128    14 C    0.975
    14   6 C    3.938 --    13 N    0.975    24 H    0.973    22 H    0.973
                            23 H    0.973
    15   1 H    0.985 --     1 C    0.962
    16   1 H    0.989 --     1 C    0.973
    17   1 H    0.988 --     1 C    0.971
    18   1 H    0.988 --     3 C    0.958
    19   1 H    0.991 --     7 C    0.954
    20   1 H    0.988 --    10 C    0.957
    21   1 H    0.988 --    10 C    0.958
    22   1 H    0.992 --    14 C    0.973
    23   1 H    0.992 --    14 C    0.973
    24   1 H    0.988 --    14 C    0.973
    25   1 H    0.953 --     4 N    0.925
 ---------------------------------------------------------------------------

molecular dipole:
                 x           y           z       tot (Debye)
 q only:        1.015      -0.580      -0.024
   full:        0.966      -0.699      -0.016       3.031

           -------------------------------------------------
          | TOTAL ENERGY              -42.145626991859 Eh   |
          | GRADIENT NORM               0.006946176912 Eh/α |
          | HOMO-LUMO GAP               1.751921442677 eV   |
           -------------------------------------------------

 * finished run on 2024/06/05 at 19:58:03.657
