   * xtb version 6.6.1 (8d0f1dd) compiled by 'conda@1efc2f54142f' on 2023-08-01
          program call               : xtb struc.xyz --opt loose --input .xc1 --gfn2

   ID    Z sym.   atoms
    1    6 C      1, 3, 5-7, 10, 11, 14
    2    7 N      2, 4, 9, 13
    3    8 O      8, 12
    4    1 H      15-25
constraining bond 3 25 to    2.7133300 Å, actual value:    2.1044033 Å

          :  Hamiltonian                  GFN2-xTB          :
 * total energy  :   -42.9073439 Eh     change       -0.6633627E-10 Eh
 * total energy  :   -45.1402453 Eh     change       -0.2232901E+01 Eh
 * total energy  :   -48.5214003 Eh     change       -0.3381155E+01 Eh
 * total energy  :   -30.1356708 Eh     change        0.1838573E+02 Eh
 * total energy  :   -49.5984259 Eh     change       -0.1946276E+02 Eh
 * total energy  :   -49.5456655 Eh     change        0.5276034E-01 Eh
 * total energy  :   -49.6368389 Eh     change       -0.9117334E-01 Eh
 * total energy  :   -49.6949985 Eh     change       -0.5815965E-01 Eh
 * total energy  :   -49.7057819 Eh     change       -0.1078334E-01 Eh
 * total energy  :   -49.7131012 Eh     change       -0.7319369E-02 Eh
 * total energy  :   -49.9128654 Eh     change       -0.5673694E-03 Eh
 * total energy  :   -49.9133727 Eh     change       -0.5073377E-03 Eh
 * total energy  :   -49.9137627 Eh     change       -0.3899752E-03 Eh
 * total energy  :   -49.9138980 Eh     change       -0.1353550E-03 Eh
 * total energy  :   -49.9139636 Eh     change       -0.6559939E-04 Eh
 * total energy  :   -49.9139912 Eh     change       -0.2751301E-04 Eh
 * total energy  :   -49.9138517 Eh     change        0.1394717E-03 Eh
 * total energy  :   -49.9140193 Eh     change       -0.1675965E-03 Eh
 * total energy  :   -49.9140260 Eh     change       -0.6727194E-05 Eh
   *** GEOMETRY OPTIMIZATION CONVERGED AFTER 46 ITERATIONS ***

 final structure:
================
25
 xtb: 6.6.1 (8d0f1dd)
C            3.18982639973090        1.00589417230726       -0.08601521116226
N            2.18204535376141       -0.00137444503097       -0.05216332652528
C            2.49700489722343       -1.48057747185246       -0.11159969420407
N            1.19963771667540       -2.09762078349029       -0.04631109902768
C            0.29031331943929       -1.17514000193534       -0.01903269092803
C            0.89042858157695        0.14311450926584       -0.02375352543717
C            0.05559584863000        1.36039958337480       -0.01152016881384
O            0.51157713753699        2.47814990316659       -0.02654690878111
N           -1.28248970133710        1.06042018188976        0.01771446598277
C           -2.21934944875937        2.17621500101742        0.02887509295224
C           -1.88707369431109       -0.20861380267030        0.02580063938719
O           -3.07680399055061       -0.32321987488541        0.04642190285209
N           -1.04207974955299       -1.32219532811137        0.00991768738521
C           -1.61638263041629       -2.65520768029553        0.01077713157385
H            3.80309534970296        0.95106766499531        0.81652025354188
H            3.84325677723734        0.84375737824104       -0.94553670017294
H            2.72671595246633        1.99120680703786       -0.14937473059002
H            2.94793315122489       -1.70350623536839        0.90727609941415
H           -1.66271162783423        3.09254858359459        0.20799153287922
H           -2.73604142526242        2.23721078471476       -0.92934910566494
H           -2.96247175547670        2.01811465511489        0.80907802964063
H           -1.27077956621648       -3.20107860718347        0.88762110726706
H           -1.29835402363378       -3.19061203299294       -0.88286712631406
H           -2.69975300902125       -2.56222682355517        0.02822300505820
H            2.77729165126654       -1.61848759574849       -0.48097504241305

          :  Hamiltonian                  GFN2-xTB          :
         :: total energy             -49.914026012809 Eh    ::
         :: gradient norm              0.002921870221 Eh/a0 ::
         :: HOMO-LUMO gap              1.552409159557 eV    ::
         :: SCC energy               -42.723617762500 Eh    ::
         :: -> dispersion             -0.022280818506 Eh    ::
         :: repulsion energy           1.685365966890 Eh    ::

    * Orbital Energies and Occupations

         #    Occupation            Energy/Eh            Energy/eV
      -------------------------------------------------------------
         1        2.0000           -0.9206072             -25.0510
       ...           ...                  ...                  ...
        25        2.0000           -0.6811463             -18.5349
        26        2.0000           -0.6704158             -18.2429
        27        2.0000           -0.6619760             -18.0133
        28        2.0000           -0.6481322             -17.6366
        29        2.0000           -0.6439574             -17.5230
        30        2.0000           -0.6314424             -17.1824
        31        1.9999           -0.6191828             -16.8488
        32        1.9998           -0.6129997             -16.6806
        33        1.9987           -0.5996739             -16.3180
        34        1.9947           -0.5882808             -16.0079
        35        1.9912           -0.5842242             -15.8975
        36        1.9859           -0.5804713             -15.7954
        37        1.9599           -0.5720766             -15.5670 (HOMO)
        38        0.0699           -0.5150266             -14.0146 (LUMO)
        39                         -0.4069168             -11.0728
        40                         -0.3940185             -10.7218
        41                         -0.3073882              -8.3645
        42                         -0.2656862              -7.2297
        43                         -0.1982500              -5.3947
        44                         -0.1631707              -4.4401
        45                         -0.1376549              -3.7458
        46                         -0.1067659              -2.9052
        47                         -0.0810197              -2.2047
        48                         -0.0623529              -1.6967
       ...                                ...                  ...
        67                          6.7857744             184.6503
      -------------------------------------------------------------
                  HL-Gap            0.0570500 Eh            1.5524 eV

     #   Z          covCN         q      C6AA      α(0)
     1   6 C        3.690    -0.092    22.451     6.781
     2   7 N        2.789     0.053    20.310     6.693
     3   6 C        3.830     0.016    20.283     6.408
     4   7 N        1.874    -0.234    26.984     7.700
     5   6 C        3.003     0.153    24.672     8.148
     6   6 C        2.994     0.042    27.044     8.531
     7   6 C        2.763     0.274    22.370     7.746
     8   8 O        0.858    -0.345    20.606     6.086
     9   7 N        2.743    -0.075    22.693     7.075
    10   6 C        3.709    -0.064    21.878     6.685
    11   6 C        2.721     0.322    21.535     7.597
    12   8 O        0.860    -0.329    20.317     6.043
    13   7 N        2.739    -0.044    22.096     6.981
    14   6 C        3.702    -0.074    22.071     6.717
    15   1 H        0.924     0.124     1.578     1.965
    16   1 H        0.924     0.125     1.574     1.962
    17   1 H        0.924     0.139     1.467     1.894
    18   1 H        0.916     0.161     1.320     1.797
    19   1 H        0.925     0.113     1.669     2.020
    20   1 H        0.924     0.105     1.740     2.063
    21   1 H        0.925     0.110     1.700     2.039
    22   1 H        0.925     0.102     1.765     2.078
    23   1 H        0.925     0.103     1.759     2.074
    24   1 H        0.925     0.122     1.596     1.975
    25   1 H        0.936     0.192     1.137     1.668

Wiberg/Mayer (AO) data.
largest (>0.10) Wiberg bond orders for each atom

     #   Z sym  total        # sym  WBO       # sym  WBO       # sym  WBO
 ---------------------------------------------------------------------------
     1   6 C    3.916 --     2 N    1.012    17 H    0.956    16 H    0.940
                            15 H    0.936
     2   7 N    3.692 --     6 C    1.536     1 C    1.012     3 C    0.932
                             4 N    0.119
     3   6 C    3.921 --     4 N    1.095     2 N    0.932    25 H    0.917
                            18 H    0.861
     4   7 N    3.030 --     5 C    1.540     3 C    1.095     2 N    0.119
                            13 N    0.114
     5   6 C    3.975 --     4 N    1.540    13 N    1.215     6 C    1.087
     6   6 C    3.919 --     2 N    1.536     5 C    1.087     7 C    0.998
     7   6 C    3.962 --     8 O    1.698     9 N    1.173     6 C    0.998
     8   8 O    2.072 --     7 C    1.698     9 N    0.184
     9   7 N    3.580 --     7 C    1.173    11 C    1.061    10 C    0.969
                             8 O    0.184    12 O    0.110
    10   6 C    3.908 --    19 H    0.969     9 N    0.969    21 H    0.961
                            20 H    0.956
    11   6 C    3.960 --    12 O    1.739    13 N    1.070     9 N    1.061
    12   8 O    2.091 --    11 C    1.739    13 N    0.118     9 N    0.110
    13   7 N    3.572 --     5 C    1.215    11 C    1.070    14 C    0.966
                            12 O    0.118     4 N    0.114
    14   6 C    3.907 --    24 H    0.968    13 N    0.966    22 H    0.963
                            23 H    0.963
    15   1 H    0.980 --     1 C    0.936
    16   1 H    0.981 --     1 C    0.940
    17   1 H    0.980 --     1 C    0.956
    18   1 H    0.961 --     3 C    0.861
    19   1 H    0.986 --    10 C    0.969
    20   1 H    0.980 --    10 C    0.956
    21   1 H    0.982 --    10 C    0.961
    22   1 H    0.983 --    14 C    0.963
    23   1 H    0.983 --    14 C    0.963
    24   1 H    0.985 --    14 C    0.968
    25   1 H    0.960 --     3 C    0.917
 ---------------------------------------------------------------------------

molecular dipole:
                 x           y           z       tot (Debye)
 q only:        2.385      -0.856       0.074
   full:        2.628      -0.659       0.093       6.891

           -------------------------------------------------
          | TOTAL ENERGY              -49.914026012809 Eh   |
          | GRADIENT NORM               0.002921870221 Eh/α |
          | HOMO-LUMO GAP               1.552409159557 eV   |
           -------------------------------------------------

 * finished run on 2024/06/05 at 19:58:10.318
