   * xtb version 6.6.1 (8d0f1dd) compiled by 'conda@1efc2f54142f' on 2023-08-01
          program call               : xtb xtbopt.xyz --opt crude --input .xc2 --gfn2

   ID    Z sym.   atoms
    1    6 C      1, 3, 5-7, 10, 11, 14
    2    7 N      2, 4, 9, 13
    3    8 O      8, 12
    4    1 H      15-25
########################################################################
[WARNING] Please study the warnings concerning your input carefully
-1- readin_getIntValue: could not parse ''
########################################################################

          :  Hamiltonian                  GFN2-xTB          :
 * total energy  :   -41.0381307 Eh     change        0.0000000E+00 Eh
 * total energy  :   -42.1837845 Eh     change       -0.1145654E+01 Eh
 * total energy  :   -42.1953270 Eh     change       -0.1154246E-01 Eh
 * total energy  :   -42.1981436 Eh     change       -0.2816644E-02 Eh
 * total energy  :   -42.1987466 Eh     change       -0.6030286E-03 Eh
 * total energy  :   -42.1991665 Eh     change       -0.4198307E-03 Eh
 * total energy  :   -42.1995019 Eh     change       -0.3354779E-03 Eh
 * total energy  :   -42.1997068 Eh     change       -0.2048895E-03 Eh
 * total energy  :   -42.1998086 Eh     change       -0.1017814E-03 Eh
   *** GEOMETRY OPTIMIZATION CONVERGED AFTER 9 ITERATIONS ***

 final structure:
================
25
 xtb: 6.6.1 (8d0f1dd)
C            3.17919820791432        1.00477738159029       -0.04007614704805
N            2.17069115936015       -0.00399023862372       -0.02504762331621
C            2.44153495480563       -1.44042212201894       -0.00062289049963
N            1.19439863123668       -2.09112646568536       -0.00223690507580
C            0.27904785123176       -1.17192590219553        0.00006922894746
C            0.87771657102307        0.14812720613659       -0.01573677489726
C            0.04476950864594        1.36568838299914       -0.02473532068464
O            0.50001633549898        2.48387080512866       -0.05497645832753
N           -1.29367384306778        1.06657428073122        0.00842859094967
C           -2.23127836196591        2.18145410034736        0.01399374067055
C           -1.89829526434052       -0.20250135873607        0.01904491479524
O           -3.08849541602870       -0.31524668324170        0.03181482107853
N           -1.05458285277215       -1.31698247737191        0.01775324408087
C           -1.63324320964209       -2.64820999736442        0.03271112328361
H            3.80488983627126        0.92169284171542        0.85138342017354
H            3.82319687761000        0.87787347565123       -0.91243823029571
H            2.71351352580464        1.99049660013611       -0.06773822684604
H            3.00250097521082       -1.71136218738906        0.90586613910129
H           -1.67271698936817        3.10116588304885        0.16810127169590
H           -2.76305314055232        2.22460795591792       -0.93683295962271
H           -2.96193314651497        2.03689473682964        0.80839045793292
H           -1.28401866419200       -3.18817788858404        0.91175288620222
H           -1.32402330210594       -3.19258351899704       -0.85858295324321
H           -2.71622423104498       -2.55084937038315        0.05623352813677
H            3.05049550108236       -1.75160689804147       -0.85534725929175

          :  Hamiltonian                  GFN2-xTB          :
         :: total energy             -42.199808618067 Eh    ::
         :: gradient norm              0.003794335574 Eh/a0 ::
         :: HOMO-LUMO gap              1.542509848339 eV    ::
         :: SCC energy               -42.712404477220 Eh    ::
         :: -> dispersion             -0.022253220114 Eh    ::
         :: repulsion energy           0.512476646199 Eh    ::

    * Orbital Energies and Occupations

         #    Occupation            Energy/Eh            Energy/eV
      -------------------------------------------------------------
         1        2.0000           -0.9138908             -24.8682
       ...           ...                  ...                  ...
        25        2.0000           -0.6794633             -18.4891
        26        2.0000           -0.6688589             -18.2006
        27        2.0000           -0.6608041             -17.9814
        28        2.0000           -0.6461284             -17.5820
        29        2.0000           -0.6422846             -17.4775
        30        2.0000           -0.6292918             -17.1239
        31        1.9999           -0.6179100             -16.8142
        32        1.9998           -0.6117428             -16.6464
        33        1.9988           -0.5978703             -16.2689
        34        1.9941           -0.5854531             -15.9310
        35        1.9906           -0.5818291             -15.8324
        36        1.9864           -0.5788865             -15.7523
        37        1.9589           -0.5700050             -15.5106 (HOMO)
        38        0.0715           -0.5133188             -13.9681 (LUMO)
        39                         -0.4047696             -11.0143
        40                         -0.3921478             -10.6709
        41                         -0.3052501              -8.3063
        42                         -0.2251603              -6.1269
        43                         -0.1898847              -5.1670
        44                         -0.1476236              -4.0170
        45                         -0.1226916              -3.3386
        46                         -0.0869079              -2.3649
        47                         -0.0570633              -1.5528
        48                         -0.0473257              -1.2878
       ...                                ...                  ...
        67                          0.5509240              14.9914
      -------------------------------------------------------------
                  HL-Gap            0.0566862 Eh            1.5425 eV

     #   Z          covCN         q      C6AA      α(0)
     1   6 C        3.691    -0.094    22.486     6.786
     2   7 N        2.797     0.075    19.943     6.633
     3   6 C        3.942     0.044    19.768     6.318
     4   7 N        1.872    -0.219    26.609     7.646
     5   6 C        3.063     0.152    24.644     8.141
     6   6 C        3.041     0.041    27.038     8.529
     7   6 C        2.763     0.274    22.369     7.745
     8   8 O        0.858    -0.347    20.644     6.092
     9   7 N        2.743    -0.076    22.711     7.078
    10   6 C        3.709    -0.064    21.868     6.683
    11   6 C        2.721     0.321    21.540     7.598
    12   8 O        0.860    -0.331    20.343     6.047
    13   7 N        2.738    -0.044    22.100     6.982
    14   6 C        3.702    -0.073    22.067     6.717
    15   1 H        0.924     0.123     1.592     1.973
    16   1 H        0.924     0.123     1.593     1.974
    17   1 H        0.924     0.139     1.468     1.894
    18   1 H        0.923     0.152     1.376     1.835
    19   1 H        0.925     0.113     1.672     2.022
    20   1 H        0.924     0.105     1.743     2.065
    21   1 H        0.925     0.109     1.709     2.045
    22   1 H        0.925     0.102     1.768     2.080
    23   1 H        0.925     0.102     1.768     2.079
    24   1 H        0.925     0.122     1.597     1.976
    25   1 H        0.924     0.151     1.385     1.840

Wiberg/Mayer (AO) data.
largest (>0.10) Wiberg bond orders for each atom

     #   Z sym  total        # sym  WBO       # sym  WBO       # sym  WBO
 ---------------------------------------------------------------------------
     1   6 C    3.916 --     2 N    1.008    17 H    0.958    16 H    0.941
                            15 H    0.939
     2   7 N    3.704 --     6 C    1.525     1 C    1.008     3 C    0.966
                             4 N    0.116
     3   6 C    3.949 --     4 N    1.102     2 N    0.966    25 H    0.895
                            18 H    0.888
     4   7 N    3.023 --     5 C    1.537     3 C    1.102     2 N    0.116
                            13 N    0.113
     5   6 C    3.975 --     4 N    1.537    13 N    1.214     6 C    1.087
     6   6 C    3.917 --     2 N    1.525     5 C    1.087     7 C    1.002
     7   6 C    3.962 --     8 O    1.696     9 N    1.172     6 C    1.002
     8   8 O    2.069 --     7 C    1.696     9 N    0.184
     9   7 N    3.579 --     7 C    1.172    11 C    1.061    10 C    0.969
                             8 O    0.184    12 O    0.110
    10   6 C    3.909 --    19 H    0.969     9 N    0.969    21 H    0.961
                            20 H    0.957
    11   6 C    3.960 --    12 O    1.737    13 N    1.071     9 N    1.061
    12   8 O    2.089 --    11 C    1.737    13 N    0.118     9 N    0.110
    13   7 N    3.570 --     5 C    1.214    11 C    1.071    14 C    0.966
                            12 O    0.118     4 N    0.113
    14   6 C    3.908 --    24 H    0.968    13 N    0.966    22 H    0.963
                            23 H    0.963
    15   1 H    0.981 --     1 C    0.939
    16   1 H    0.981 --     1 C    0.941
    17   1 H    0.981 --     1 C    0.958
    18   1 H    0.966 --     3 C    0.888
    19   1 H    0.986 --    10 C    0.969
    20   1 H    0.980 --    10 C    0.957
    21   1 H    0.982 --    10 C    0.961
    22   1 H    0.984 --    14 C    0.963
    23   1 H    0.983 --    14 C    0.963
    24   1 H    0.985 --    14 C    0.968
    25   1 H    0.967 --     3 C    0.895
 ---------------------------------------------------------------------------

molecular dipole:
                 x           y           z       tot (Debye)
 q only:        2.421      -0.894       0.034
   full:        2.726      -0.712       0.025       7.161

           -------------------------------------------------
          | TOTAL ENERGY              -42.199808618067 Eh   |
          | GRADIENT NORM               0.003794335574 Eh/α |
          | HOMO-LUMO GAP               1.542509848339 eV   |
           -------------------------------------------------

 * finished run on 2024/06/05 at 19:58:10.784
