   * xtb version 6.6.1 (8d0f1dd) compiled by 'conda@1efc2f54142f' on 2023-08-01
          program call               : xtb struc.xyz --opt loose --input .xc1 --gfn2

   ID    Z sym.   atoms
    1    7 N      1, 17
    2    6 C      2-6, 8, 9, 11-16, 18-23, 25, 26, 28-33
    3    8 O      7, 10, 24, 27
    4    1 H      34-72
constraining bond 31 68 to    4.1400000 Å, actual value:    2.1482385 Å

          :  Hamiltonian                  GFN2-xTB          :
 * total energy  :   -98.6957900 Eh     change       -0.4035485E-08 Eh
 * total energy  :   -98.9368056 Eh     change       -0.2410156E+00 Eh
 * total energy  :   -99.0738720 Eh     change       -0.1370664E+00 Eh
 * total energy  :   -99.1435994 Eh     change       -0.6972739E-01 Eh
 * total energy  :   -99.1731508 Eh     change       -0.2955141E-01 Eh
 * total energy  :   -99.1834419 Eh     change       -0.1029113E-01 Eh
 * total energy  :   -99.1878186 Eh     change       -0.4376693E-02 Eh
 * total energy  :   -99.1930030 Eh     change       -0.5184409E-02 Eh
 * total energy  :   -99.2042267 Eh     change       -0.1122369E-01 Eh
 * total energy  :   -99.2170680 Eh     change       -0.1284122E-01 Eh
 * total energy  :   -99.3391724 Eh     change       -0.1493984E-03 Eh
 * total energy  :   -99.3393569 Eh     change       -0.1844850E-03 Eh
 * total energy  :   -99.3394976 Eh     change       -0.1406875E-03 Eh
 * total energy  :   -99.3396972 Eh     change       -0.1996137E-03 Eh
 * total energy  :   -99.3398738 Eh     change       -0.1766320E-03 Eh
 * total energy  :   -99.3400259 Eh     change       -0.1521096E-03 Eh
 * total energy  :   -99.3401020 Eh     change       -0.7608095E-04 Eh
 * total energy  :   -99.3401511 Eh     change       -0.4903022E-04 Eh
 * total energy  :   -99.3401928 Eh     change       -0.4175931E-04 Eh
   *** GEOMETRY OPTIMIZATION CONVERGED AFTER 68 ITERATIONS ***

 final structure:
================
72
 xtb: 6.6.1 (8d0f1dd)
N           -2.62960618588813        2.77217921644264        2.21974755029164
C           -2.00656933148057        2.19715578400472        1.20627276827206
C           -2.95311184906845        1.91473318219145        0.08817120408396
C           -3.49017174211519        0.48567231187278        0.19939487110242
C           -4.48369349885267        0.05941585894187       -0.68300389021972
C           -5.01089189748781       -1.21862575162030       -0.60656599234010
O           -5.96933532651102       -1.71749350407690       -1.41407472082997
C           -6.56264876416255       -0.88401823130932       -2.38055610073198
C           -4.53285637112003       -2.11432028639456        0.38844806558687
O           -5.09944300134629       -3.33623592843227        0.38655340053052
C           -4.72480683943405       -4.26193881598977        1.38058298666373
C           -3.54535748318388       -1.68143709082312        1.25703385615244
C           -3.02977546918265       -0.39496762749534        1.16289739220523
C           -2.34038226448547        2.14471895755340       -1.30561511019885
C           -1.38339018428198        1.02627695055604       -1.75230027406250
C           -0.08616751588876        1.05196470778968       -1.04465112568032
N            0.51789977366371        0.00459255286465       -0.48713920235033
C            1.89819467608231        0.10841828454522       -0.07634169808509
C            2.85336937674847       -0.33073889653237       -1.20440726700781
C            4.28475560288822       -0.12301091793786       -0.79860403486300
C            4.90198517096026        1.10159448167211       -0.99225201767874
C            6.22285407404049        1.29762962371885       -0.61938708604204
C            6.95287895092712        0.27050379675337       -0.03976481539432
O            8.24149410735410        0.34327746674395        0.34623708345246
C            8.95591500974420        1.53791456200316        0.12907725527514
C            6.32378595730428       -0.98582180447964        0.17607644511270
O            7.10315419117406       -1.92804972838505        0.74580446496999
C            6.57798189510064       -3.21584645580778        0.96139544428866
C            5.00241368902880       -1.15785728783783       -0.20350515573620
C           -0.06700959432236       -1.31407674211557       -0.50976530008159
C           -4.11611753363823        2.89901310438541        0.44023987333223
C           -4.04353713720654        2.91157179961171        1.97513525131872
C           -3.92763781229882        4.30792256094968       -0.11201179692968
H           -4.85291811304596        0.73883439097831       -1.43416605991506
H           -7.04136392218984       -0.01338495629503       -1.92173497622770
H           -7.32068244581915       -1.49538995447583       -2.86620490285721
H           -5.83500763368085       -0.55157902563367       -3.12826668017277
H           -4.92420510110424       -3.87455362122295        2.38389202701715
H           -5.33736869830858       -5.14382286159874        1.20465424408060
H           -3.66732634532633       -4.53275048886505        1.29621747608712
H           -3.17872331694143       -2.32966091494219        2.03534677592129
H           -2.27578936481219       -0.08768718401054        1.87086872184236
H           -3.15073018015178        2.20106534514386       -2.03139196783478
H           -1.80985510128844        3.09667003566470       -1.31748369235750
H           -1.87908596625611        0.06265085772089       -1.65404177483924
H           -1.18416123491746        1.18988569945860       -2.81960164154607
H           -0.95852221948781        1.96788632227503        1.22998676271507
H            0.45073090421302        1.98746523125012       -1.01652017617166
H            2.05995258412254       -0.51616761240867        0.80521925706097
H            2.11973277447452        1.14378086927722        0.19130517440741
H            2.63097459167458        0.26234447376305       -2.09368988394542
H            2.67905612074908       -1.38171837529356       -1.43769975093973
H            4.36018905868716        1.91343594042292       -1.45367974787307
H            6.67929185740701        2.25816603651517       -0.79351774977183
H            8.52148999547162        2.37256786622632        0.68778772004577
H            8.99755601082208        1.79183039182569       -0.93446596197679
H            9.96316774103840        1.34587208111634        0.49362527033609
H            7.38915581735791       -3.79216382647536        1.40193529965319
H            5.73218148838348       -3.19386842174823        1.65622087909811
H            6.26905992605493       -3.68582673154928        0.02237618361738
H            4.51921438547997       -2.11085782348630       -0.05510351454307
H           -0.11921912837457       -1.71153531484854       -1.52622326458597
H           -1.07562223967054       -1.28781491399418       -0.09182266513645
H            0.53967046541986       -1.98445761074073        0.09388251031980
H           -5.07319133485939        2.50466436375200        0.10028940320451
H           -4.42815557740733        3.82939153775949        2.41938315636978
H           -4.56309909429042        2.04786204598033        2.42593931012981
H           -4.25511986156453        0.36932237447856        3.69335130422184
H           -2.97575031613825        4.72896592672721        0.20267277388929
H           -3.97319607310872        4.31581702648863       -1.19649064268372
H           -4.72374422459253        4.94951934586587        0.25735691761997
H           -2.23624330409978        2.90926486407861        3.13793640407035

          :  Hamiltonian                  GFN2-xTB          :
         :: total energy             -99.340192811501 Eh    ::
         :: gradient norm              0.001822326763 Eh/a0 ::
         :: HOMO-LUMO gap              0.761204414385 eV    ::
         :: SCC energy              -100.698880145584 Eh    ::
         :: -> dispersion             -0.077239252192 Eh    ::
         :: repulsion energy           1.357432232689 Eh    ::

    * Orbital Energies and Occupations

         #    Occupation            Energy/Eh            Energy/eV
      -------------------------------------------------------------
         1        2.0000           -0.8038672             -21.8743
       ...           ...                  ...                  ...
        78        1.9994           -0.5365747             -14.6009
        79        1.9993           -0.5350690             -14.5600
        80        1.9991           -0.5300304             -14.4229
        81        1.9989           -0.5276732             -14.3587
        82        1.9986           -0.5237465             -14.2519
        83        1.9986           -0.5232812             -14.2392
        84        1.9978           -0.5163663             -14.0510
        85        1.9976           -0.5149509             -14.0125
        86        1.9860           -0.4869848             -13.2515
        87        1.9820           -0.4829621             -13.1421
        88        1.9020           -0.4554533             -12.3935
        89        1.8691           -0.4505924             -12.2612
        90        1.3171           -0.4188971             -11.3988 (HOMO)
        91        0.4958           -0.3909233             -10.6376 (LUMO)
        92        0.4481           -0.3888276             -10.5805
        93        0.0047           -0.3125522              -8.5050
        94        0.0038           -0.3093337              -8.4174
        95        0.0032           -0.3067205              -8.3463
        96        0.0028           -0.3044586              -8.2847
        97        0.0000           -0.1867527              -5.0818
        98        0.0000           -0.1816674              -4.9434
        99                         -0.1284889              -3.4964
       100                         -0.1084656              -2.9515
       101                         -0.0791416              -2.1536
       ...                                ...                  ...
       171                          0.5823920              15.8477
      -------------------------------------------------------------
                  HL-Gap            0.0279737 Eh            0.7612 eV

     #   Z          covCN         q      C6AA      α(0)
     1   7 N        2.716    -0.052    22.240     7.004
     2   6 C        2.912     0.017    27.641     8.621
     3   6 C        3.939     0.013    20.295     6.402
     4   6 C        2.974    -0.007    28.190     8.709
     5   6 C        2.919    -0.082    30.039     8.988
     6   6 C        2.863     0.130    25.142     8.219
     7   8 O        1.706    -0.230    17.815     5.699
     8   6 C        3.644     0.028    20.440     6.498
     9   6 C        2.865     0.131    25.123     8.216
    10   8 O        1.706    -0.228    17.778     5.693
    11   6 C        3.646     0.027    20.458     6.500
    12   6 C        2.914    -0.068    29.685     8.934
    13   6 C        2.921    -0.047    29.158     8.855
    14   6 C        3.805    -0.068    21.802     6.647
    15   6 C        3.802    -0.070    21.837     6.653
    16   6 C        2.845    -0.009    28.229     8.708
    17   7 N        2.729     0.009    21.107     6.823
    18   6 C        3.756    -0.017    20.935     6.524
    19   6 C        3.808    -0.070    21.834     6.652
    20   6 C        2.969    -0.002    28.067     8.690
    21   6 C        2.922    -0.050    29.247     8.869
    22   6 C        2.914    -0.069    29.707     8.938
    23   6 C        2.865     0.132    25.107     8.213
    24   8 O        1.706    -0.226    17.741     5.687
    25   6 C        3.645     0.026    20.467     6.502
    26   6 C        2.863     0.132    25.110     8.214
    27   8 O        1.706    -0.228    17.778     5.693
    28   6 C        3.645     0.028    20.437     6.498
    29   6 C        2.920    -0.080    29.999     8.982
    30   6 C        3.700    -0.073    22.060     6.717
    31   6 C        3.898    -0.022    20.913     6.501
    32   6 C        3.809    -0.017    20.874     6.504
    33   6 C        3.754    -0.118    22.827     6.813
    34   1 H        0.926     0.049     2.338     2.391
    35   1 H        0.924     0.051     2.311     2.377
    36   1 H        0.925     0.081     1.970     2.195
    37   1 H        0.924     0.046     2.365     2.405
    38   1 H        0.924     0.058     2.226     2.333
    39   1 H        0.925     0.080     1.976     2.198
    40   1 H        0.924     0.047     2.355     2.400
    41   1 H        0.926     0.057     2.232     2.336
    42   1 H        0.926     0.040     2.452     2.449
    43   1 H        0.925     0.063     2.166     2.302
    44   1 H        0.925     0.057     2.238     2.339
    45   1 H        0.925     0.067     2.120     2.277
    46   1 H        0.923     0.078     1.997     2.210
    47   1 H        0.926     0.060     2.196     2.317
    48   1 H        0.926     0.062     2.179     2.308
    49   1 H        0.924     0.067     2.123     2.279
    50   1 H        0.924     0.065     2.140     2.288
    51   1 H        0.924     0.053     2.282     2.362
    52   1 H        0.924     0.054     2.266     2.354
    53   1 H        0.926     0.042     2.426     2.436
    54   1 H        0.926     0.056     2.247     2.344
    55   1 H        0.924     0.052     2.292     2.367
    56   1 H        0.924     0.054     2.273     2.357
    57   1 H        0.925     0.081     1.972     2.196
    58   1 H        0.925     0.080     1.975     2.198
    59   1 H        0.924     0.048     2.350     2.397
    60   1 H        0.924     0.051     2.308     2.376
    61   1 H        0.926     0.046     2.367     2.406
    62   1 H        0.924     0.074     2.043     2.235
    63   1 H        0.924     0.081     1.964     2.192
    64   1 H        0.925     0.078     1.997     2.210
    65   1 H        0.925     0.062     2.177     2.308
    66   1 H        0.925     0.077     2.015     2.220
    67   1 H        0.923     0.098     1.808     2.103
    68   1 H        0.000    -0.307    59.391    14.091
    69   1 H        0.925     0.045     2.388     2.417
    70   1 H        0.925     0.054     2.273     2.358
    71   1 H        0.925     0.059     2.216     2.328
    72   1 H        0.860     0.194     1.138     1.671

Wiberg/Mayer (AO) data.
largest (>0.10) Wiberg bond orders for each atom

     #   Z sym  total        # sym  WBO       # sym  WBO       # sym  WBO
 ---------------------------------------------------------------------------
     1   7 N    3.417 --     2 C    1.432    32 C    0.993    72 H    0.932
     2   6 C    3.525 --     1 N    1.432     3 C    1.023    47 H    0.961
     3   6 C    3.984 --     2 C    1.023    14 C    0.971     4 C    0.947
                            31 C    0.942
     4   6 C    3.927 --    13 C    1.420     5 C    1.368     3 C    0.947
     5   6 C    3.964 --     6 C    1.402     4 C    1.368    34 H    0.959
     6   6 C    3.909 --     5 C    1.402     9 C    1.223     7 O    1.098
     7   8 O    2.258 --     6 C    1.098     8 C    0.979
     8   6 C    3.934 --     7 O    0.979    36 H    0.977    35 H    0.974
                            37 H    0.974
     9   6 C    3.911 --    12 C    1.396     6 C    1.223    10 O    1.104
    10   8 O    2.260 --     9 C    1.104    11 C    0.977
    11   6 C    3.931 --    39 H    0.977    10 O    0.977    40 H    0.974
                            38 H    0.973
    12   6 C    3.964 --     9 C    1.396    13 C    1.396    41 H    0.963
    13   6 C    3.958 --     4 C    1.420    12 C    1.396    42 H    0.960
    14   6 C    3.965 --    15 C    0.981    44 H    0.973     3 C    0.971
                            43 H    0.969
    15   6 C    3.988 --    16 C    1.060    14 C    0.981    45 H    0.962
                            46 H    0.930
    16   6 C    3.516 --    17 N    1.384    15 C    1.060    48 H    0.960
    17   7 N    3.442 --    16 C    1.384    30 C    1.000    18 C    0.989
    18   6 C    3.956 --    17 N    0.989    50 H    0.968    49 H    0.966
                            19 C    0.965
    19   6 C    3.974 --    20 C    1.008    52 H    0.973    51 H    0.971
                            18 C    0.965
    20   6 C    3.950 --    21 C    1.412    29 C    1.378    19 C    1.008
    21   6 C    3.954 --    22 C    1.415    20 C    1.412    53 H    0.969
    22   6 C    3.963 --    21 C    1.415    23 C    1.387    54 H    0.963
    23   6 C    3.900 --    22 C    1.387    26 C    1.224    24 O    1.105
    24   8 O    2.255 --    23 C    1.105    25 C    0.977
    25   6 C    3.931 --    57 H    0.977    24 O    0.977    56 H    0.973
                            55 H    0.973
    26   6 C    3.904 --    29 C    1.398    23 C    1.224    27 O    1.100
    27   8 O    2.255 --    26 C    1.100    28 C    0.979
    28   6 C    3.934 --    27 O    0.979    58 H    0.977    59 H    0.974
                            60 H    0.974
    29   6 C    3.961 --    26 C    1.398    20 C    1.378    61 H    0.963
    30   6 C    3.957 --    17 N    1.000    64 H    0.978    62 H    0.966
                            63 H    0.959
    31   6 C    3.976 --    33 C    1.012    32 C    0.990    65 H    0.965
                             3 C    0.942
    32   6 C    3.934 --     1 N    0.993    31 C    0.990    66 H    0.965
                            67 H    0.925
    33   6 C    3.989 --    31 C    1.012    69 H    0.985    70 H    0.982
                            71 H    0.980
    34   1 H    0.996 --     5 C    0.959
    35   1 H    0.994 --     8 C    0.974
    36   1 H    0.993 --     8 C    0.977
    37   1 H    0.995 --     8 C    0.974
    38   1 H    0.993 --    11 C    0.973
    39   1 H    0.993 --    11 C    0.977
    40   1 H    0.994 --    11 C    0.974
    41   1 H    0.995 --    12 C    0.963
    42   1 H    0.998 --    13 C    0.960
    43   1 H    0.994 --    14 C    0.969
    44   1 H    0.996 --    14 C    0.973
    45   1 H    0.995 --    15 C    0.962
    46   1 H    0.966 --    15 C    0.930
    47   1 H    0.996 --     2 C    0.961
    48   1 H    0.996 --    16 C    0.960
    49   1 H    0.992 --    18 C    0.966
    50   1 H    0.994 --    18 C    0.968
    51   1 H    0.996 --    19 C    0.971
    52   1 H    0.996 --    19 C    0.973
    53   1 H    0.998 --    21 C    0.969
    54   1 H    0.995 --    22 C    0.963
    55   1 H    0.993 --    25 C    0.973
    56   1 H    0.993 --    25 C    0.973
    57   1 H    0.993 --    25 C    0.977
    58   1 H    0.993 --    28 C    0.977
    59   1 H    0.994 --    28 C    0.974
    60   1 H    0.994 --    28 C    0.974
    61   1 H    0.997 --    29 C    0.963
    62   1 H    0.983 --    30 C    0.966
    63   1 H    0.987 --    30 C    0.959
    64   1 H    0.994 --    30 C    0.978
    65   1 H    0.996 --    31 C    0.965
    66   1 H    0.990 --    32 C    0.965
    67   1 H    0.977 --    32 C    0.925
    68   1 H    0.037
    69   1 H    0.998 --    33 C    0.985
    70   1 H    0.996 --    33 C    0.982
    71   1 H    0.995 --    33 C    0.980
    72   1 H    0.961 --     1 N    0.932
 ---------------------------------------------------------------------------

molecular dipole:
                 x           y           z       tot (Debye)
 q only:        0.505       1.557      -1.180
   full:        0.556       1.701      -0.942       5.139

           -------------------------------------------------
          | TOTAL ENERGY              -99.340192811501 Eh   |
          | GRADIENT NORM               0.001822326763 Eh/α |
          | HOMO-LUMO GAP               0.761204414385 eV   |
           -------------------------------------------------

 * finished run on 2024/04/06 at 11:14:55.895
