   * xtb version 6.6.1 (8d0f1dd) compiled by 'conda@1efc2f54142f' on 2023-08-01
          program call               : xtb xtbopt.xyz --opt crude --input .xc2 --gfn2

   ID    Z sym.   atoms
    1    6 C      1, 3, 5-7, 10, 11, 14
    2    7 N      2, 4, 9, 13
    3    8 O      8, 12
    4    1 H      15-25
########################################################################
[WARNING] Please study the warnings concerning your input carefully
-1- readin_getIntValue: could not parse ''
########################################################################

          :  Hamiltonian                  GFN2-xTB          :
 * total energy  :   -42.1130759 Eh     change       -0.5044853E-12 Eh
   *** GEOMETRY OPTIMIZATION CONVERGED AFTER 1 ITERATIONS ***

 final structure:
================
25
 xtb: 6.6.1 (8d0f1dd)
C            3.18873993838353        1.51117695472855       -0.33976986807600
N            2.22993044037269        0.69911844259360        0.06490210468632
C            1.91813652265163       -0.42417406867245       -0.62284682684175
N            0.90639166747601       -1.30878241345895       -0.25576907282237
C           -0.41445190754523       -1.11124784706271       -0.16824579162977
C            1.53236643029412        1.04603414371017        1.24235704273187
C            0.74895842996630        0.26589486989137        1.94279119090382
O            0.01825049152730       -0.34968316016829        2.60784871216259
N           -1.13299561318183       -0.03611919244967       -0.48442546998196
C           -0.79280111067582        1.14186498741945       -1.24311283149538
C           -2.52470288521606       -0.23213397578188       -0.13401584810480
O           -3.36015317685032        0.59547734813857       -0.31118741363425
N           -2.59884816647090       -1.47926379434383        0.37211947054945
C           -1.32680372391033       -2.13976481860635        0.44035086487838
H            3.44657911846717        2.37347432845951        0.23942986686358
H            3.73458944563915        1.28557116582315       -1.23548001290276
H            1.75412421304661        2.02436055668580        1.64430814023568
H            2.64591039725883       -0.78628429004579       -1.32728655335765
H            0.27866733045076        1.22755116987950       -1.38291428377902
H           -1.27763300493476        1.08622822614721       -2.21955677300133
H           -1.18984121254830        2.01741445921305       -0.72684615149599
H           -1.03990002265367       -2.36302335152668        1.47706745100214
H           -1.32249214300461       -3.08088503858199       -0.12476029721629
H           -3.45484749852121       -1.86466556525894        0.73488578129014
H            1.19325755407954       -2.27990059513077       -0.15867181306594

          :  Hamiltonian                  GFN2-xTB          :
         :: total energy             -42.113075933920 Eh    ::
         :: gradient norm              0.003823417382 Eh/a0 ::
         :: HOMO-LUMO gap              1.820825593296 eV    ::
         :: SCC energy               -42.674127847764 Eh    ::
         :: -> dispersion             -0.023966972527 Eh    ::
         :: repulsion energy           0.560780605174 Eh    ::

    * Orbital Energies and Occupations

         #    Occupation            Energy/Eh            Energy/eV
      -------------------------------------------------------------
         1        2.0000           -0.9063836             -24.6640
       ...           ...                  ...                  ...
        25        2.0000           -0.6758502             -18.3908
        26        2.0000           -0.6736809             -18.3318
        27        2.0000           -0.6630599             -18.0428
        28        2.0000           -0.6551972             -17.8288
        29        2.0000           -0.6542851             -17.8040
        30        1.9999           -0.6342503             -17.2588
        31        1.9999           -0.6309179             -17.1682
        32        1.9999           -0.6220769             -16.9276
        33        1.9988           -0.5872380             -15.9796
        34        1.9961           -0.5680538             -15.4575
        35        1.9946           -0.5626131             -15.3095
        36        1.9869           -0.5486509             -14.9295
        37        1.7161           -0.4976150             -13.5408 (HOMO)
        38        0.1623           -0.4307009             -11.7200 (LUMO)
        39        0.1255           -0.4263097             -11.6005
        40        0.0194           -0.3958949             -10.7728
        41        0.0004           -0.3331278              -9.0649
        42        0.0001           -0.3118291              -8.4853
        43                         -0.1952905              -5.3141
        44                         -0.1795157              -4.8849
        45                         -0.1370772              -3.7301
        46                         -0.1222305              -3.3261
        47                         -0.1069961              -2.9115
        48                         -0.0707410              -1.9250
       ...                                ...                  ...
        67                          0.9692422              26.3744
      -------------------------------------------------------------
                  HL-Gap            0.0669141 Eh            1.8208 eV

     #   Z          covCN         q      C6AA      α(0)
     1   6 C        2.837    -0.093    30.333     9.026
     2   7 N        2.734     0.129    19.048     6.482
     3   6 C        2.805    -0.037    28.894     8.806
     4   7 N        2.684    -0.093    23.070     7.134
     5   6 C        2.900     0.121    25.337     8.253
     6   6 C        2.867    -0.091    30.291     9.022
     7   6 C        1.840     0.237    25.639     8.180
     8   8 O        0.856    -0.198    18.042     5.695
     9   7 N        2.780    -0.045    22.108     6.983
    10   6 C        3.690    -0.067    21.988     6.711
    11   6 C        2.784     0.325    21.486     7.592
    12   8 O        0.857    -0.354    20.784     6.112
    13   7 N        2.741    -0.164    24.550     7.359
    14   6 C        3.798    -0.019    20.917     6.512
    15   1 H        0.927     0.096     1.826     2.113
    16   1 H        0.926     0.088     1.896     2.153
    17   1 H        0.926     0.133     1.512     1.923
    18   1 H        0.926     0.083     1.947     2.182
    19   1 H        0.925     0.079     1.992     2.207
    20   1 H        0.924     0.104     1.749     2.068
    21   1 H        0.924     0.108     1.717     2.049
    22   1 H        0.923     0.115     1.655     2.012
    23   1 H        0.924     0.107     1.721     2.052
    24   1 H        0.860     0.226     0.985     1.554
    25   1 H        0.860     0.213     1.040     1.598

Wiberg/Mayer (AO) data.
largest (>0.10) Wiberg bond orders for each atom

     #   Z sym  total        # sym  WBO       # sym  WBO       # sym  WBO
 ---------------------------------------------------------------------------
     1   6 C    3.677 --     2 N    1.400    16 H    0.969    15 H    0.969
                             3 C    0.182
     2   7 N    3.735 --     1 C    1.400     3 C    1.231     6 C    1.026
     3   6 C    3.608 --     2 N    1.231     4 N    1.076    18 H    0.951
                             1 C    0.182
     4   7 N    3.503 --     5 C    1.293     3 C    1.076    25 H    0.913
                             9 N    0.101
     5   6 C    3.833 --     9 N    1.330     4 N    1.293    14 C    1.009
     6   6 C    3.859 --     7 C    1.639     2 N    1.026    17 H    0.897
                             8 O    0.210
     7   6 C    3.764 --     8 O    2.004     6 C    1.639
     8   8 O    2.324 --     7 C    2.004     6 C    0.210
     9   7 N    3.560 --     5 C    1.330    10 C    0.986    11 C    0.942
                            12 O    0.104     4 N    0.101
    10   6 C    3.932 --     9 N    0.986    19 H    0.972    21 H    0.964
                            20 H    0.959
    11   6 C    3.949 --    12 O    1.733    13 N    1.217     9 N    0.942
    12   8 O    2.087 --    11 C    1.733    13 N    0.196     9 N    0.104
    13   7 N    3.415 --    11 C    1.217    14 C    1.017    24 H    0.922
                            12 O    0.196
    14   6 C    3.967 --    13 N    1.017     5 C    1.009    23 H    0.934
                            22 H    0.928
    15   1 H    0.991 --     1 C    0.969
    16   1 H    0.991 --     1 C    0.969
    17   1 H    0.969 --     6 C    0.897
    18   1 H    0.990 --     3 C    0.951
    19   1 H    0.994 --    10 C    0.972
    20   1 H    0.985 --    10 C    0.959
    21   1 H    0.985 --    10 C    0.964
    22   1 H    0.976 --    14 C    0.928
    23   1 H    0.979 --    14 C    0.934
    24   1 H    0.949 --    13 N    0.922
    25   1 H    0.945 --     4 N    0.913
 ---------------------------------------------------------------------------

molecular dipole:
                 x           y           z       tot (Debye)
 q only:        1.573      -1.185      -0.206
   full:        1.777      -1.511      -0.096       5.933

           -------------------------------------------------
          | TOTAL ENERGY              -42.113075933920 Eh   |
          | GRADIENT NORM               0.003823417382 Eh/α |
          | HOMO-LUMO GAP               1.820825593296 eV   |
           -------------------------------------------------

 * finished run on 2024/06/05 at 19:58:02.145
