   * xtb version 6.6.1 (8d0f1dd) compiled by 'conda@1efc2f54142f' on 2023-08-01
          program call               : xtb struc.xyz --opt loose --input .xc1 --gfn2

   ID    Z sym.   atoms
    1    6 C      1, 3, 5-7, 10, 11, 14
    2    7 N      2, 4, 9, 13
    3    8 O      8, 12
    4    1 H      15-25
constraining bond 7 13 to    5.9200000 Å, actual value:    2.8933564 Å

          :  Hamiltonian                  GFN2-xTB          :
 * total energy  :    23.1781185 Eh     change       -0.6650680E-10 Eh
 * total energy  :    -2.7281634 Eh     change       -0.2590628E+02 Eh
 * total energy  :   -17.5799320 Eh     change       -0.1485177E+02 Eh
 * total energy  :   -26.5305437 Eh     change       -0.8950612E+01 Eh
 * total energy  :   -34.0035506 Eh     change       -0.7473007E+01 Eh
 * total energy  :   -38.2186299 Eh     change       -0.4215079E+01 Eh
 * total energy  :   -40.4330699 Eh     change       -0.2214440E+01 Eh
 * total energy  :   -41.2626993 Eh     change       -0.8296294E+00 Eh
 * total energy  :   -41.4709468 Eh     change       -0.2082475E+00 Eh
 * total energy  :   -41.5364874 Eh     change       -0.6554055E-01 Eh
 * total energy  :   -41.9875200 Eh     change        0.4214271E-04 Eh
 * total energy  :   -41.9877009 Eh     change       -0.1808168E-03 Eh
 * total energy  :   -41.9877713 Eh     change       -0.7048984E-04 Eh
 * total energy  :   -41.9879624 Eh     change       -0.1911078E-03 Eh
 * total energy  :   -41.9880802 Eh     change       -0.1177140E-03 Eh
 * total energy  :   -41.9881468 Eh     change       -0.6665236E-04 Eh
 * total energy  :   -41.9882104 Eh     change       -0.6357051E-04 Eh
 * total energy  :   -41.9882536 Eh     change       -0.4317948E-04 Eh
 * total energy  :   -41.9882925 Eh     change       -0.3891875E-04 Eh
   *** GEOMETRY OPTIMIZATION CONVERGED AFTER 84 ITERATIONS ***

 final structure:
================
25
 xtb: 6.6.1 (8d0f1dd)
C            4.05227279923493        1.46617087056337        0.07734244157282
N            3.36510753150073        0.20981994867605       -0.00290844806583
C            3.89296063478234       -1.00584695365612       -0.03948640136919
N            2.89662203260985       -1.90563619564265       -0.11249361548781
C            1.66050470809980       -1.34519135798296       -0.12949525338255
C            1.96713281138963        0.05649635420380       -0.05649343254594
C            1.09065595033465        1.06894548086928       -0.04292517427481
O            0.25229420960828        1.86827154716656       -0.03379793534363
N           -2.72881186626189        1.63053583286908       -0.02586261589617
C           -3.30136666498788        2.91151507103707        0.07921560080590
C           -2.63304250740339        0.48091285516134        0.20093537547875
O           -2.38390162907035       -0.65569702081561        0.31418298419778
N           -2.63893430768033       -3.52732232626239       -0.14647060251065
C           -3.70912286686591       -4.20261868087731       -0.22921471471993
H            3.78325393688115        1.98754374624492        0.99871851480916
H            5.12698539953198        1.29634361648795        0.06746943126213
H            3.78167029545539        2.09853825351003       -0.77041116682631
H            4.94268962149853       -1.22349596107803       -0.01274719483642
H           -2.51129882275469        3.64512604499099       -0.08010406674280
H           -4.06638045879465        3.03573059937596       -0.69039443993977
H           -3.74575694316622        3.06356608496501        1.06439564317881
H           -2.56248577860411       -2.53214142041530        0.11356939449333
H           -1.75194754904155       -3.97709474782468       -0.36232328907323
H           -4.65652635117475       -3.72124247696680        0.00245721853371
H            3.03785732899776       -2.90499062299744       -0.15198663541761

          :  Hamiltonian                  GFN2-xTB          :
         :: total energy             -41.988292485478 Eh    ::
         :: gradient norm              0.003997701682 Eh/a0 ::
         :: HOMO-LUMO gap              1.190311293136 eV    ::
         :: SCC energy               -42.598011794098 Eh    ::
         :: -> dispersion             -0.015715333632 Eh    ::
         :: repulsion energy           0.609791831412 Eh    ::

    * Orbital Energies and Occupations

         #    Occupation            Energy/Eh            Energy/eV
      -------------------------------------------------------------
         1        2.0000           -0.8949924             -24.3540
       ...           ...                  ...                  ...
        25        2.0000           -0.6398355             -17.4108
        26        2.0000           -0.6354624             -17.2918
        27        2.0000           -0.6233388             -16.9619
        28        1.9999           -0.6154207             -16.7464
        29        1.9999           -0.6128792             -16.6773
        30        1.9999           -0.6105881             -16.6149
        31        1.9999           -0.6103861             -16.6094
        32        1.9997           -0.5886869             -16.0190
        33        1.9962           -0.5508506             -14.9894
        34        1.9840           -0.5279640             -14.3666
        35        1.9804           -0.5247032             -14.2779
        36        1.9107           -0.5001057             -13.6086
        37        1.5582           -0.4715531             -12.8316 (HOMO)
        38        0.3642           -0.4278099             -11.6413 (LUMO)
        39        0.1844           -0.4153797             -11.3031
        40        0.0160           -0.3752434             -10.2109
        41        0.0064           -0.3606310              -9.8133
        42        0.0001           -0.2891468              -7.8681
        43        0.0000           -0.2737532              -7.4492
        44        0.0000           -0.2729738              -7.4280
        45                         -0.1501492              -4.0858
        46                         -0.0958811              -2.6091
        47                         -0.0803351              -2.1860
        48                         -0.0633872              -1.7249
       ...                                ...                  ...
        67                          1.2667819              34.4709
      -------------------------------------------------------------
                  HL-Gap            0.0437431 Eh            1.1903 eV

     #   Z          covCN         q      C6AA      α(0)
     1   6 C        3.690    -0.073    22.090     6.726
     2   7 N        2.812     0.040    20.534     6.730
     3   6 C        2.977     0.065    26.545     8.451
     4   7 N        2.840    -0.019    21.621     6.906
     5   6 C        1.999    -0.157    35.514     9.624
     6   6 C        3.114     0.018    27.458     8.584
     7   6 C        1.845     0.244    25.487     8.155
     8   8 O        0.856    -0.143    17.168     5.555
     9   7 N        1.820    -0.140    24.811     7.380
    10   6 C        3.685    -0.031    21.330     6.612
    11   6 C        1.769     0.303    24.389     7.984
    12   8 O        0.856    -0.329    20.311     6.042
    13   7 N        2.629    -0.088    22.964     7.117
    14   6 C        1.835    -0.061    32.829     9.256
    15   1 H        0.924     0.089     1.886     2.148
    16   1 H        0.925     0.092     1.862     2.134
    17   1 H        0.924     0.089     1.887     2.148
    18   1 H        0.926     0.090     1.876     2.142
    19   1 H        0.925     0.092     1.861     2.133
    20   1 H        0.924     0.085     1.930     2.173
    21   1 H        0.924     0.078     1.999     2.211
    22   1 H        0.859     0.239     0.927     1.508
    23   1 H        0.860     0.220     1.011     1.575
    24   1 H        0.925     0.095     1.831     2.116
    25   1 H        0.860     0.203     1.092     1.637

Wiberg/Mayer (AO) data.
largest (>0.10) Wiberg bond orders for each atom

     #   Z sym  total        # sym  WBO       # sym  WBO       # sym  WBO
 ---------------------------------------------------------------------------
     1   6 C    3.947 --     2 N    0.999    16 H    0.975    17 H    0.966
                            15 H    0.965
     2   7 N    3.588 --     3 C    1.378     6 C    1.050     1 C    0.999
     3   6 C    3.822 --     2 N    1.378     4 N    1.295    18 H    0.955
     4   7 N    3.646 --     3 C    1.295     5 C    1.292    25 H    0.930
     5   6 C    2.728 --     4 N    1.292     6 C    1.209
     6   6 C    3.889 --     7 C    1.397     5 C    1.209     2 N    1.050
                             8 O    0.120
     7   6 C    3.558 --     8 O    2.064     6 C    1.397
     8   8 O    2.294 --     7 C    2.064     6 C    0.120
     9   7 N    3.468 --    11 C    2.076    10 C    1.016    12 O    0.372
    10   6 C    3.940 --     9 N    1.016    19 H    0.964    21 H    0.961
                            20 H    0.960
    11   6 C    3.948 --     9 N    2.076    12 O    1.789
    12   8 O    2.242 --    11 C    1.789     9 N    0.372
    13   7 N    3.612 --    14 C    1.819    23 H    0.919    22 H    0.857
    14   6 C    2.760 --    13 N    1.819    24 H    0.928
    15   1 H    0.988 --     1 C    0.965
    16   1 H    0.991 --     1 C    0.975
    17   1 H    0.988 --     1 C    0.966
    18   1 H    0.990 --     3 C    0.955
    19   1 H    0.988 --    10 C    0.964
    20   1 H    0.988 --    10 C    0.960
    21   1 H    0.990 --    10 C    0.961
    22   1 H    0.899 --    13 N    0.857
    23   1 H    0.938 --    13 N    0.919
    24   1 H    0.948 --    14 C    0.928
    25   1 H    0.956 --     4 N    0.930
 ---------------------------------------------------------------------------

molecular dipole:
                 x           y           z       tot (Debye)
 q only:        1.643      -0.994      -0.089
   full:        2.335      -0.456       0.083       6.051

           -------------------------------------------------
          | TOTAL ENERGY              -41.988292485478 Eh   |
          | GRADIENT NORM               0.003997701682 Eh/α |
          | HOMO-LUMO GAP               1.190311293136 eV   |
           -------------------------------------------------

 * finished run on 2024/06/05 at 20:00:15.793
