   * xtb version 6.6.1 (8d0f1dd) compiled by 'conda@1efc2f54142f' on 2023-08-01
          program call               : xtb xtbopt.xyz --opt crude --input .xc2 --gfn2

   ID    Z sym.   atoms
    1    6 C      1, 3, 5-7, 10, 11, 14
    2    7 N      2, 4, 9, 13
    3    8 O      8, 12
    4    1 H      15-25

          :  Hamiltonian                  GFN2-xTB          :
 * total energy  :   -41.9882925 Eh     change        0.7105427E-12 Eh
 * total energy  :   -41.9883290 Eh     change       -0.3652331E-04 Eh
   *** GEOMETRY OPTIMIZATION CONVERGED AFTER 2 ITERATIONS ***

 final structure:
================
25
 xtb: 6.6.1 (8d0f1dd)
C            4.05214606631085        1.46540143461037        0.07722053374429
N            3.36489331676506        0.20910642671902       -0.00333368356125
C            3.89390729380608       -1.00583101712871       -0.03962682334190
N            2.89887103580857       -1.90666721101369       -0.11254934733040
C            1.66226077132055       -1.34757854031655       -0.12856614786995
C            1.96760203922721        0.05389824024397       -0.05577839359725
C            1.08834619465959        1.06441487927411       -0.03955709796502
O            0.24849669755521        1.86342940622487       -0.03361250957093
N           -2.73196748039544        1.63050375322717       -0.02695449039934
C           -3.30275294822742        2.91147112130741        0.07911104929240
C           -2.63221346752616        0.48218345016206        0.20514299035918
O           -2.38471311970849       -0.65485287260981        0.31420992117644
N           -2.63818881151685       -3.52287240613934       -0.14842526855156
C           -3.70574112079892       -4.20330573291510       -0.22022027833516
H            3.78198697417806        1.98633315775964        0.99827660545133
H            5.12700545322200        1.29633523058315        0.06745131167764
H            3.78200393758618        2.09749303037820       -0.77082411678967
H            4.94379481127275       -1.22250723509362       -0.01359928881359
H           -2.51239919500669        3.64452524334440       -0.08127383378777
H           -4.06781088614114        3.03630544151019       -0.68912637767049
H           -3.74658055102468        3.06340158018516        1.06431871411516
H           -2.56570782186554       -2.52540004571595        0.09857678771781
H           -1.75002818968141       -3.97143473624763       -0.35801590503479
H           -4.65412544626994       -3.72042451997887        0.00078792384675
H            3.04134596056991       -2.90568953676830       -0.15246065686216

          :  Hamiltonian                  GFN2-xTB          :
         :: total energy             -41.988329012822 Eh    ::
         :: gradient norm              0.001876544776 Eh/a0 ::
         :: HOMO-LUMO gap              1.189939324878 eV    ::
         :: SCC energy               -42.598614567196 Eh    ::
         :: -> dispersion             -0.015717900345 Eh    ::
         :: repulsion energy           0.610358392688 Eh    ::

    * Orbital Energies and Occupations

         #    Occupation            Energy/Eh            Energy/eV
      -------------------------------------------------------------
         1        2.0000           -0.8946939             -24.3459
       ...           ...                  ...                  ...
        25        2.0000           -0.6399351             -17.4135
        26        2.0000           -0.6354216             -17.2907
        27        2.0000           -0.6233920             -16.9634
        28        1.9999           -0.6155298             -16.7494
        29        1.9999           -0.6129880             -16.6803
        30        1.9999           -0.6107008             -16.6180
        31        1.9999           -0.6105084             -16.6128
        32        1.9997           -0.5887578             -16.0209
        33        1.9962           -0.5508973             -14.9907
        34        1.9840           -0.5280178             -14.3681
        35        1.9804           -0.5247025             -14.2779
        36        1.9105           -0.5001139             -13.6088
        37        1.5578           -0.4715951             -12.8328 (HOMO)
        38        0.3641           -0.4278656             -11.6428 (LUMO)
        39        0.1853           -0.4155259             -11.3070
        40        0.0159           -0.3752744             -10.2117
        41        0.0063           -0.3606144              -9.8128
        42        0.0001           -0.2891366              -7.8678
        43        0.0000           -0.2737746              -7.4498
        44        0.0000           -0.2730864              -7.4311
        45                         -0.1500414              -4.0828
        46                         -0.0947197              -2.5775
        47                         -0.0802842              -2.1846
        48                         -0.0625691              -1.7026
       ...                                ...                  ...
        67                          1.2673405              34.4861
      -------------------------------------------------------------
                  HL-Gap            0.0437295 Eh            1.1899 eV

     #   Z          covCN         q      C6AA      α(0)
     1   6 C        3.690    -0.073    22.091     6.727
     2   7 N        2.813     0.041    20.532     6.730
     3   6 C        2.978     0.065    26.544     8.451
     4   7 N        2.841    -0.019    21.621     6.906
     5   6 C        1.999    -0.157    35.516     9.624
     6   6 C        3.116     0.018    27.448     8.582
     7   6 C        1.845     0.244    25.494     8.157
     8   8 O        0.856    -0.144    17.178     5.557
     9   7 N        1.820    -0.140    24.808     7.380
    10   6 C        3.685    -0.031    21.330     6.612
    11   6 C        1.769     0.303    24.389     7.984
    12   8 O        0.856    -0.329    20.308     6.042
    13   7 N        2.629    -0.088    22.968     7.118
    14   6 C        1.835    -0.061    32.828     9.256
    15   1 H        0.924     0.089     1.886     2.147
    16   1 H        0.925     0.092     1.862     2.134
    17   1 H        0.924     0.089     1.887     2.148
    18   1 H        0.926     0.090     1.876     2.142
    19   1 H        0.925     0.092     1.862     2.134
    20   1 H        0.924     0.085     1.928     2.171
    21   1 H        0.924     0.078     1.999     2.211
    22   1 H        0.859     0.239     0.926     1.508
    23   1 H        0.860     0.220     1.011     1.575
    24   1 H        0.925     0.095     1.830     2.115
    25   1 H        0.860     0.203     1.092     1.637

Wiberg/Mayer (AO) data.
largest (>0.10) Wiberg bond orders for each atom

     #   Z sym  total        # sym  WBO       # sym  WBO       # sym  WBO
 ---------------------------------------------------------------------------
     1   6 C    3.947 --     2 N    0.999    16 H    0.975    17 H    0.966
                            15 H    0.965
     2   7 N    3.588 --     3 C    1.378     6 C    1.050     1 C    0.999
     3   6 C    3.822 --     2 N    1.378     4 N    1.295    18 H    0.955
     4   7 N    3.646 --     3 C    1.295     5 C    1.292    25 H    0.930
     5   6 C    2.728 --     4 N    1.292     6 C    1.209
     6   6 C    3.889 --     7 C    1.397     5 C    1.209     2 N    1.050
                             8 O    0.120
     7   6 C    3.557 --     8 O    2.063     6 C    1.397
     8   8 O    2.292 --     7 C    2.063     6 C    0.120
     9   7 N    3.468 --    11 C    2.075    10 C    1.017    12 O    0.372
    10   6 C    3.940 --     9 N    1.017    19 H    0.964    21 H    0.961
                            20 H    0.960
    11   6 C    3.947 --     9 N    2.075    12 O    1.789
    12   8 O    2.243 --    11 C    1.789     9 N    0.372
    13   7 N    3.612 --    14 C    1.819    23 H    0.919    22 H    0.857
    14   6 C    2.759 --    13 N    1.819    24 H    0.928
    15   1 H    0.988 --     1 C    0.965
    16   1 H    0.991 --     1 C    0.975
    17   1 H    0.988 --     1 C    0.966
    18   1 H    0.990 --     3 C    0.955
    19   1 H    0.988 --    10 C    0.964
    20   1 H    0.988 --    10 C    0.960
    21   1 H    0.990 --    10 C    0.961
    22   1 H    0.899 --    13 N    0.857
    23   1 H    0.938 --    13 N    0.919
    24   1 H    0.948 --    14 C    0.928
    25   1 H    0.956 --     4 N    0.930
 ---------------------------------------------------------------------------

molecular dipole:
                 x           y           z       tot (Debye)
 q only:        1.642      -0.992      -0.092
   full:        2.336      -0.452       0.078       6.050

           -------------------------------------------------
          | TOTAL ENERGY              -41.988329012822 Eh   |
          | GRADIENT NORM               0.001876544776 Eh/α |
          | HOMO-LUMO GAP               1.189939324878 eV   |
           -------------------------------------------------

 * finished run on 2024/06/05 at 20:00:16.065
