   * xtb version 6.6.1 (8d0f1dd) compiled by 'conda@1efc2f54142f' on 2023-08-01
          program call               : xtb xtbopt.xyz --opt crude --input .xc2 --gfn2

   ID    Z sym.   atoms
    1    6 C      1, 3, 5-7, 10, 11, 14
    2    7 N      2, 4, 9, 13
    3    8 O      8, 12
    4    1 H      15-25

          :  Hamiltonian                  GFN2-xTB          :
 * total energy  :   -42.0035581 Eh     change       -0.1097789E-10 Eh
   *** GEOMETRY OPTIMIZATION CONVERGED AFTER 1 ITERATIONS ***

 final structure:
================
25
 xtb: 6.6.1 (8d0f1dd)
C            1.98869028393920        1.88761120681516        0.09231529664341
N            2.02990063637961        0.48594405652714        0.04147426144090
C            5.23205310740286       -0.85761481403958       -0.26976804563526
N            1.02698545352422       -2.27914801099296       -0.02535944274293
C            0.25747711796465       -1.28187659695625       -0.00417653937410
C            0.80205307622343        0.06211163869894        0.03495989528880
C           -0.09227634685888        1.18118401521976        0.08073009336455
O            0.59738362721685        2.29655930528818        0.11622357737205
N           -1.40350941941899        1.06282205871991        0.08293224146318
C           -2.30441545209831        2.19825485386322        0.13665739135947
C           -1.99798606204458       -0.23334102323697        0.02724046210131
O           -3.19261704434501       -0.32244090982335        0.01869583293953
N           -1.14479336061315       -1.31298461679451       -0.01367216010710
C           -1.77806078708823       -2.62554923484482       -0.06587548739429
H            2.49062938056916        2.27408159097248        0.98969425270001
H            6.26998095709846       -0.63102968182369       -0.39746332819969
H            2.47695278572481        2.33889372578081       -0.78222233165858
H            4.69849927810701       -1.78176283949747       -0.19528772150941
H           -1.72054015044194        3.11291666690946        0.18765723614854
H           -2.93952081893932        2.20085228655560       -0.74968975808234
H           -2.94856365660990        2.10789133571728        1.01179664177278
H           -1.49743180849427       -3.21342811148472        0.80901545587183
H           -1.48285909994463       -3.14801876885364       -0.97656400957282
H           -2.85718853984615       -2.48768633052119       -0.06942530658621
H            0.64958835670967       -3.21600326061517       -0.04871688964676

          :  Hamiltonian                  GFN2-xTB          :
         :: total energy             -42.003558053629 Eh    ::
         :: gradient norm              0.001024682140 Eh/a0 ::
         :: HOMO-LUMO gap              0.500951097427 eV    ::
         :: SCC energy               -42.501654123744 Eh    ::
         :: -> dispersion             -0.020690766986 Eh    ::
         :: repulsion energy           0.498023910616 Eh    ::

    * Orbital Energies and Occupations

         #    Occupation            Energy/Eh            Energy/eV
      -------------------------------------------------------------
         1        2.0000           -0.9329831             -25.3878
       ...           ...                  ...                  ...
        25        1.9999           -0.6621128             -18.0170
        26        1.9996           -0.6432371             -17.5034
        27        1.9996           -0.6404621             -17.4279
        28        1.9992           -0.6310398             -17.1715
        29        1.9988           -0.6240769             -16.9820
        30        1.9983           -0.6181838             -16.8216
        31        1.9981           -0.6171059             -16.7923
        32        1.9903           -0.5908236             -16.0771
        33        1.9898           -0.5900178             -16.0552
        34        1.9717           -0.5737772             -15.6133
        35        1.9530           -0.5655649             -15.3898
        36        1.8752           -0.5494730             -14.9519
        37        1.1674           -0.5119175             -13.9300 (HOMO)
        38        0.6096           -0.4935079             -13.4290 (LUMO)
        39        0.4449           -0.4867506             -13.2452
        40        0.0042           -0.4089149             -11.1271
        41        0.0007           -0.3794066             -10.3242
        42        0.0000           -0.2898115              -7.8862
        43                         -0.2137055              -5.8152
        44                         -0.1677268              -4.5641
        45                         -0.1461169              -3.9760
        46                         -0.0887967              -2.4163
        47                         -0.0883031              -2.4028
        48                         -0.0403799              -1.0988
       ...                                ...                  ...
        67                          0.5428841              14.7726
      -------------------------------------------------------------
                  HL-Gap            0.0184096 Eh            0.5010 eV

     #   Z          covCN         q      C6AA      α(0)
     1   6 C        3.915     0.127    18.470     6.108
     2   7 N        1.875    -0.179    25.678     7.512
     3   6 C        1.853    -0.080    33.328     9.325
     4   7 N        1.786    -0.258    27.547     7.774
     5   6 C        2.819     0.165    24.428     8.098
     6   6 C        3.071     0.066    26.449     8.433
     7   6 C        2.981     0.219    23.388     7.933
     8   8 O        1.709    -0.191    17.193     5.598
     9   7 N        2.735    -0.038    21.971     6.962
    10   6 C        3.700    -0.065    21.924     6.696
    11   6 C        2.725     0.320    21.568     7.603
    12   8 O        0.859    -0.341    20.539     6.076
    13   7 N        2.741    -0.082    22.834     7.097
    14   6 C        3.706    -0.064    21.873     6.686
    15   1 H        0.923     0.135     1.496     1.913
    16   1 H        0.927     0.151     1.382     1.838
    17   1 H        0.923     0.135     1.498     1.914
    18   1 H        0.927     0.152     1.378     1.835
    19   1 H        0.925     0.103     1.762     2.076
    20   1 H        0.924     0.115     1.658     2.013
    21   1 H        0.924     0.115     1.656     2.012
    22   1 H        0.924     0.089     1.888     2.149
    23   1 H        0.924     0.089     1.888     2.149
    24   1 H        0.925     0.118     1.632     1.998
    25   1 H        0.860     0.199     1.110     1.650

Wiberg/Mayer (AO) data.
largest (>0.10) Wiberg bond orders for each atom

     #   Z sym  total        # sym  WBO       # sym  WBO       # sym  WBO
 ---------------------------------------------------------------------------
     1   6 C    3.897 --     2 N    1.107    17 H    0.908    15 H    0.908
                             8 O    0.904
     2   7 N    2.842 --     6 C    1.563     1 C    1.107
     3   6 C    1.891 --    18 H    0.945    16 H    0.945
     4   7 N    2.918 --     5 C    1.745    25 H    0.921    13 N    0.118
     5   6 C    3.950 --     4 N    1.745    13 N    1.074     6 C    1.054
     6   6 C    3.906 --     2 N    1.563     7 C    1.125     5 C    1.054
     7   6 C    3.824 --     9 N    1.332     8 O    1.213     6 C    1.125
     8   8 O    2.334 --     7 C    1.213     1 C    0.904
     9   7 N    3.579 --     7 C    1.332    11 C    0.991    10 C    0.967
    10   6 C    3.911 --    19 H    0.975     9 N    0.967    21 H    0.958
                            20 H    0.958
    11   6 C    3.939 --    12 O    1.715    13 N    1.148     9 N    0.991
    12   8 O    2.045 --    11 C    1.715    13 N    0.144
    13   7 N    3.520 --    11 C    1.148     5 C    1.074    14 C    0.972
                            12 O    0.144     4 N    0.118
    14   6 C    3.918 --    13 N    0.972    23 H    0.966    22 H    0.965
                            24 H    0.965
    15   1 H    0.953 --     1 C    0.908
    16   1 H    0.952 --     3 C    0.945
    17   1 H    0.953 --     1 C    0.908
    18   1 H    0.952 --     3 C    0.945
    19   1 H    0.988 --    10 C    0.975
    20   1 H    0.980 --    10 C    0.958
    21   1 H    0.980 --    10 C    0.958
    22   1 H    0.986 --    14 C    0.965
    23   1 H    0.986 --    14 C    0.966
    24   1 H    0.984 --    14 C    0.965
    25   1 H    0.953 --     4 N    0.921
 ---------------------------------------------------------------------------

molecular dipole:
                 x           y           z       tot (Debye)
 q only:        1.966       0.222      -0.038
   full:        1.702       0.322      -0.035       4.405

           -------------------------------------------------
          | TOTAL ENERGY              -42.003558053629 Eh   |
          | GRADIENT NORM               0.001024682140 Eh/α |
          | HOMO-LUMO GAP               0.500951097427 eV   |
           -------------------------------------------------

 * finished run on 2024/06/05 at 20:00:10.714
