   * xtb version 6.6.1 (8d0f1dd) compiled by 'conda@1efc2f54142f' on 2023-08-01
          program call               : xtb xtbopt.xyz --opt crude --input .xc2 --gfn2

   ID    Z sym.   atoms
    1    6 C      1, 3, 5-7, 10, 11, 14
    2    7 N      2, 4, 9, 13
    3    8 O      8, 12
    4    1 H      15-25

          :  Hamiltonian                  GFN2-xTB          :
 * total energy  :   -42.1039371 Eh     change       -0.7283063E-11 Eh
   *** GEOMETRY OPTIMIZATION CONVERGED AFTER 1 ITERATIONS ***

 final structure:
================
25
 xtb: 6.6.1 (8d0f1dd)
C            3.26782266747905        1.05341802545405       -0.03792906730171
N            2.31855280717256       -0.02689324440662       -0.02902904982767
C            2.59222166513376       -1.32812868779064       -0.00469469839271
N            1.44026866447674       -2.03966886552927        0.01912062774494
C            0.40071357374447       -1.15875466794888        0.00930072282440
C            0.94701458010831        0.11836261731693       -0.02055577870144
C            0.13989276787733        1.29977955108476       -0.05706858822012
O            0.51204180688684        2.45153791768926       -0.11009401780864
N           -1.26085851158604        0.97629291914253       -0.02994900036237
C           -2.12582893343462        1.99682095267040       -0.05459289116851
C           -1.82029832205768       -0.33589638182374        0.01270078513316
O           -3.00872347576092       -0.50231256495850        0.03392087165664
N           -0.92593227825655       -1.40153484107497        0.02476993590161
C           -1.45048071336202       -2.75552005551274        0.04429775098471
H            3.73076796543135        1.15929424500633        0.94467921274301
H            4.04712649998999        0.86543567745177       -0.77509024447713
H            2.74493162309483        1.97817119635057       -0.27850265992553
H            3.57263459886769       -1.76048402884467       -0.00623691269529
H           -3.64264423141984        4.76289101881094        0.28599388355548
H           -1.72722092866915        2.99400509924796       -0.08934082275361
H           -3.17754282374406        1.78355154734530       -0.03280851492296
H           -1.14730604566964       -3.26847604292551        0.95715464076762
H           -1.10755337337081       -3.30676108403020       -0.83126749960433
H           -2.53712237264571       -2.68959835823795        0.01973223536215
H            1.37795430381371       -3.04729340288661        0.03666069738816

          :  Hamiltonian                  GFN2-xTB          :
         :: total energy             -42.103937075344 Eh    ::
         :: gradient norm              0.002893717993 Eh/a0 ::
         :: HOMO-LUMO gap              0.082748377358 eV    ::
         :: SCC energy               -42.624701026501 Eh    ::
         :: -> dispersion             -0.022629721050 Eh    ::
         :: repulsion energy           0.520692454575 Eh    ::

    * Orbital Energies and Occupations

         #    Occupation            Energy/Eh            Energy/eV
      -------------------------------------------------------------
         1        2.0000           -0.9105963             -24.7786
       ...           ...                  ...                  ...
        25        2.0000           -0.6709549             -18.2576
        26        2.0000           -0.6685512             -18.1922
        27        2.0000           -0.6621930             -18.0192
        28        1.9999           -0.6328485             -17.2207
        29        1.9999           -0.6295718             -17.1315
        30        1.9999           -0.6276268             -17.0786
        31        1.9998           -0.6184383             -16.8286
        32        1.9997           -0.6136519             -16.6983
        33        1.9997           -0.6125743             -16.6690
        34        1.9982           -0.5848321             -15.9141
        35        1.9941           -0.5658419             -15.3973
        36        1.9904           -0.5581694             -15.1886
        37        0.9875           -0.4732427             -12.8776 (HOMO)
        38        0.8919           -0.4702018             -12.7948 (LUMO)
        39        0.1182           -0.4298104             -11.6957
        40        0.0177           -0.3989233             -10.8553
        41        0.0032           -0.3715875             -10.1114
        42        0.0000           -0.2869677              -7.8088
        43        0.0000           -0.2078915              -5.6570
        44                         -0.1962909              -5.3413
        45                         -0.1506531              -4.0995
        46                         -0.1450846              -3.9480
        47                         -0.0783521              -2.1321
        48                         -0.0539127              -1.4670
       ...                                ...                  ...
        67                          0.5478080              14.9066
      -------------------------------------------------------------
                  HL-Gap            0.0030409 Eh            0.0827 eV

     #   Z          covCN         q      C6AA      α(0)
     1   6 C        3.691    -0.093    22.478     6.785
     2   7 N        2.829     0.078    19.893     6.624
     3   6 C        3.049     0.047    26.903     8.507
     4   7 N        2.791    -0.058    22.367     7.024
     5   6 C        3.041     0.105    25.633     8.304
     6   6 C        3.108    -0.023    28.440     8.737
     7   6 C        2.775     0.253    22.740     7.810
     8   8 O        0.857    -0.364    20.969     6.139
     9   7 N        2.741    -0.030    21.833     6.940
    10   6 C        2.817    -0.022    28.551     8.755
    11   6 C        2.738     0.308    21.762     7.638
    12   8 O        0.859    -0.351    20.722     6.103
    13   7 N        2.737    -0.049    22.190     6.996
    14   6 C        3.699    -0.074    22.079     6.720
    15   1 H        0.924     0.108     1.713     2.047
    16   1 H        0.925     0.104     1.751     2.069
    17   1 H        0.925     0.134     1.505     1.918
    18   1 H        0.926     0.123     1.587     1.970
    19   1 H        0.000     0.017     6.926     4.812
    20   1 H        0.926     0.133     1.510     1.921
    21   1 H        0.926     0.130     1.535     1.938
    22   1 H        0.925     0.085     1.933     2.174
    23   1 H        0.925     0.083     1.946     2.181
    24   1 H        0.925     0.127     1.556     1.951
    25   1 H        0.860     0.229     0.970     1.543

Wiberg/Mayer (AO) data.
largest (>0.10) Wiberg bond orders for each atom

     #   Z sym  total        # sym  WBO       # sym  WBO       # sym  WBO
 ---------------------------------------------------------------------------
     1   6 C    3.917 --     2 N    0.987    16 H    0.965    17 H    0.961
                            15 H    0.955
     2   7 N    3.648 --     3 C    1.379     6 C    1.145     1 C    0.987
     3   6 C    3.820 --     2 N    1.379     4 N    1.266    18 H    0.953
     4   7 N    3.578 --     3 C    1.266     5 C    1.194    25 H    0.919
     5   6 C    3.898 --     6 C    1.328     4 N    1.194    13 N    1.189
     6   6 C    3.909 --     5 C    1.328     2 N    1.145     7 C    1.117
     7   6 C    3.867 --     8 O    1.672     6 C    1.117     9 N    0.986
     8   8 O    1.954 --     7 C    1.672     9 N    0.107
     9   7 N    3.615 --    10 C    1.350    11 C    1.012     7 C    0.986
                             8 O    0.107
    10   6 C    3.351 --     9 N    1.350    21 H    0.960    20 H    0.956
    11   6 C    3.904 --    12 O    1.707    13 N    1.090     9 N    1.012
    12   8 O    2.019 --    11 C    1.707    13 N    0.135
    13   7 N    3.566 --     5 C    1.189    11 C    1.090    14 C    0.970
                            12 O    0.135
    14   6 C    3.924 --    23 H    0.972    22 H    0.971    13 N    0.970
                            24 H    0.965
    15   1 H    0.983 --     1 C    0.955
    16   1 H    0.986 --     1 C    0.965
    17   1 H    0.982 --     1 C    0.961
    18   1 H    0.984 --     3 C    0.953
    19   1 H    0.003
    20   1 H    0.981 --    10 C    0.956
    21   1 H    0.982 --    10 C    0.960
    22   1 H    0.991 --    14 C    0.971
    23   1 H    0.991 --    14 C    0.972
    24   1 H    0.983 --    14 C    0.965
    25   1 H    0.947 --     4 N    0.919
 ---------------------------------------------------------------------------

molecular dipole:
                 x           y           z       tot (Debye)
 q only:        2.349      -2.035       0.022
   full:        2.579      -2.486       0.039       9.106

           -------------------------------------------------
          | TOTAL ENERGY              -42.103937075344 Eh   |
          | GRADIENT NORM               0.002893717993 Eh/α |
          | HOMO-LUMO GAP               0.082748377358 eV   |
           -------------------------------------------------

 * finished run on 2024/06/05 at 20:00:14.985
