   * xtb version 6.6.1 (8d0f1dd) compiled by 'conda@1efc2f54142f' on 2023-08-01
          program call               : xtb xtbopt.xyz --opt crude --input .xc2 --gfn2

   ID    Z sym.   atoms
    1    7 N      1, 17
    2    6 C      2-6, 8, 9, 11-16, 18-23, 25, 26, 28-33
    3    8 O      7, 10, 24, 27
    4    1 H      34-72

          :  Hamiltonian                  GFN2-xTB          :
 * total energy  :   -99.3653451 Eh     change       -0.2415845E-11 Eh
   *** GEOMETRY OPTIMIZATION CONVERGED AFTER 1 ITERATIONS ***

 final structure:
================
72
 xtb: 6.6.1 (8d0f1dd)
N           -1.84474207913448        2.82556352974510        2.25289373671195
C           -1.79199118447414        2.08716993497558        1.24768291743295
C           -2.94703969185798        1.82647912144900        0.32017539624368
C           -3.34438864345187        0.36021927330953        0.39911429912411
C           -4.24430743662511       -0.16365962102002       -0.53116625718718
C           -4.66328631116842       -1.48218943675295       -0.46990158641775
O           -5.53094920093347       -2.06427843803985       -1.32212754338446
C           -6.14970664280980       -1.28412191512557       -2.31822318316756
C           -4.16524741766916       -2.32771128316599        0.55919909062082
O           -4.63221272950318       -3.59066461210490        0.54707307063333
C           -4.25933070604511       -4.47102372696390        1.58164531016375
C           -3.26834375985480       -1.80190861889541        1.47616658436463
C           -2.86591503879730       -0.47525262184569        1.39699567563392
C           -2.43164751597589        2.16343718784908       -1.10340556225566
C           -1.44641049661367        1.13321545884311       -1.67992077709696
C           -0.08283588861276        1.23162060773003       -1.11299757170070
N            0.69855755630579        0.21554560971492       -0.80880647011468
C            2.09568430179956        0.42469521065134       -0.51272535508342
C            2.97180904130675        0.22734576923946       -1.76767818772721
C            4.40995135215678        0.16942640372660       -1.34242731031955
C            5.12032391049672        1.33135797948441       -1.07115540637504
C            6.41460705101287        1.28697966860130       -0.58794470006711
C            7.02398864935164        0.05413484031450       -0.34889334288040
O            8.26073443588198       -0.11724998513536        0.15392541085133
C            9.06756047981792        1.01236259698043        0.41011650829886
C            6.31659953797345       -1.11829472144391       -0.63957470639892
O            3.18970965726187       -2.09089443173059        1.12106187445370
C            4.05873570048348       -2.66255197567723        1.72943349550291
C            5.03287735730835       -1.05772097945081       -1.13204684535103
C            0.23778512593079       -1.15280120524030       -0.83605901747011
C           -4.20721892011284        2.68408384629278        0.64323598293714
C           -4.78885245402968        2.33196698053122        2.01028505912379
C           -3.95177567359683        4.18634222545936        0.56324938328192
H           -4.63523497547611        0.47448294392029       -1.30607156478074
H           -6.72345193765926       -0.46047367256116       -1.88289276416123
H           -6.82683895586857       -1.95877890118042       -2.83828015530203
H           -5.41958096984408       -0.88716309506218       -3.03096957795933
H           -4.56147350339483       -4.08800294054586        2.56092888830271
H           -4.78819754960743       -5.40019441013366        1.37865397100727
H           -3.18126344756669       -4.66003536914917        1.57965627503931
H           -2.88315297528794       -2.41606519321742        2.27372973593828
H           -2.19140464037507       -0.09491432332640        2.14834763779822
H           -3.28625279385521        2.23155486865765       -1.77542737701307
H           -1.95288357852969        3.14310576371215       -1.08174622100376
H           -1.85625770270683        0.12981026919685       -1.57424058028083
H           -1.35706927649034        1.34425766646714       -2.75392217318615
H           -0.87012278243634        1.57793908712868        0.90650171161549
H            0.36451118578887        2.21510580148723       -1.07192302245055
H            2.41049443402726       -0.29296990580882        0.24721471006426
H            2.24442332954914        1.43442493704345       -0.12539709519445
H            2.80320597725499        1.04968428107906       -2.46541390988218
H            2.69596841830319       -0.70767843684386       -2.25544346600277
H            4.65871319086526        2.29304857375178       -1.24377612690086
H            6.93672913130811        2.21004084697762       -0.39402893293780
H            8.62868093715923        1.65060710219929        1.18291638397480
H            9.23317513416851        1.59807573537265       -0.49882193685162
H           10.01848816820150        0.61940860825552        0.76439098159199
H            6.80352984263278       -2.06505945153210       -0.46724331150485
H            4.52209216695573       -2.24559270652008        2.63236333233400
H            4.43781085334467       -3.64631814826718        1.42021121807359
H            4.50431122916992       -1.97131686524694       -1.35555838489445
H            0.03416114959298       -1.48174774688432       -1.85696514003842
H           -0.67632185565073       -1.25705258184481       -0.24752408925675
H            1.00537939481242       -1.79162164955800       -0.40556492698945
H           -4.95602667095010        2.42762934656958       -0.11505546034549
H           -4.08466226953876        2.59366120228802        2.79358385549061
H           -5.01751073374179        1.27121891174984        2.07977754642493
H           -5.70737533672644        2.89080751339344        2.16973166602063
H           -3.18073220561716        4.47641644477147        1.27016360129511
H           -3.65966751979571        4.49698995987142       -0.43636946719650
H           -4.86499677940220        4.71605750676429        0.82153227930697
H           -0.99740285240130        2.95317487761514        2.79699675983493

          :  Hamiltonian                  GFN2-xTB          :
         :: total energy             -99.365345074749 Eh    ::
         :: gradient norm              0.003652141960 Eh/a0 ::
         :: HOMO-LUMO gap              1.785889953383 eV    ::
         :: SCC energy              -100.770498769817 Eh    ::
         :: -> dispersion             -0.074899557698 Eh    ::
         :: repulsion energy           1.403705367880 Eh    ::

    * Orbital Energies and Occupations

         #    Occupation            Energy/Eh            Energy/eV
      -------------------------------------------------------------
         1        2.0000           -0.8129013             -22.1202
       ...           ...                  ...                  ...
        78        1.9980           -0.5302701             -14.4294
        79        1.9979           -0.5296765             -14.4132
        80        1.9969           -0.5237729             -14.2526
        81        1.9952           -0.5165953             -14.0573
        82        1.9943           -0.5140437             -13.9878
        83        1.9933           -0.5114152             -13.9163
        84        1.9927           -0.5099260             -13.8758
        85        1.9876           -0.5015621             -13.6482
        86        1.9844           -0.4979752             -13.5506
        87        1.9776           -0.4921279             -13.3915
        88        1.9279           -0.4732375             -12.8774
        89        1.8910           -0.4663814             -12.6909
        90        1.8491           -0.4608797             -12.5412 (HOMO)
        91        0.3253           -0.3952495             -10.7553 (LUMO)
        92        0.0784           -0.3705357             -10.0828
        93        0.0124           -0.3408168              -9.2741
        94        0.0030           -0.3180642              -8.6550
        95        0.0025           -0.3152510              -8.5784
        96        0.0024           -0.3150492              -8.5729
        97        0.0015           -0.3074710              -8.3667
        98        0.0000           -0.1924498              -5.2368
        99        0.0000           -0.1854427              -5.0462
       100                         -0.1305286              -3.5519
       101                         -0.0697669              -1.8985
       ...                                ...                  ...
       171                          0.5731018              15.5949
      -------------------------------------------------------------
                  HL-Gap            0.0656302 Eh            1.7859 eV

     #   Z          covCN         q      C6AA      α(0)
     1   7 N        1.774    -0.266    27.726     7.797
     2   6 C        2.827     0.102    25.732     8.312
     3   6 C        3.908     0.006    20.412     6.422
     4   6 C        2.974     0.002    27.970     8.675
     5   6 C        2.920    -0.080    29.998     8.982
     6   6 C        2.862     0.130    25.143     8.219
     7   8 O        1.706    -0.228    17.774     5.692
     8   6 C        3.644     0.027    20.459     6.501
     9   6 C        2.864     0.130    25.148     8.220
    10   8 O        1.706    -0.225    17.734     5.686
    11   6 C        3.645     0.026    20.474     6.503
    12   6 C        2.913    -0.073    29.812     8.953
    13   6 C        2.921    -0.052    29.279     8.873
    14   6 C        3.813    -0.065    21.741     6.637
    15   6 C        3.802    -0.070    21.841     6.654
    16   6 C        2.845     0.013    27.711     8.627
    17   7 N        2.729     0.032    20.688     6.755
    18   6 C        3.760    -0.031    21.179     6.561
    19   6 C        3.808    -0.069    21.816     6.649
    20   6 C        2.972     0.004    27.920     8.667
    21   6 C        2.924    -0.037    28.916     8.818
    22   6 C        2.915    -0.062    29.552     8.914
    23   6 C        2.865     0.153    24.688     8.145
    24   8 O        1.706    -0.240    17.974     5.724
    25   6 C        3.644     0.027    20.458     6.502
    26   6 C        2.919    -0.052    29.286     8.874
    27   8 O        0.856    -0.328    20.297     6.040
    28   6 C        2.703     0.174    24.235     8.058
    29   6 C        2.923    -0.034    28.845     8.808
    30   6 C        3.701    -0.078    22.162     6.732
    31   6 C        3.853    -0.007    20.674     6.467
    32   6 C        3.756    -0.119    22.826     6.812
    33   6 C        3.755    -0.119    22.839     6.814
    34   1 H        0.926     0.052     2.289     2.366
    35   1 H        0.924     0.055     2.262     2.352
    36   1 H        0.925     0.082     1.956     2.187
    37   1 H        0.924     0.048     2.344     2.394
    38   1 H        0.924     0.056     2.244     2.343
    39   1 H        0.925     0.082     1.956     2.187
    40   1 H        0.924     0.051     2.309     2.376
    41   1 H        0.926     0.055     2.261     2.351
    42   1 H        0.926     0.042     2.429     2.437
    43   1 H        0.925     0.061     2.187     2.313
    44   1 H        0.924     0.055     2.261     2.352
    45   1 H        0.925     0.069     2.096     2.264
    46   1 H        0.923     0.083     1.946     2.181
    47   1 H        0.922     0.007     2.942     2.682
    48   1 H        0.925     0.074     2.046     2.237
    49   1 H        0.924     0.106     1.735     2.060
    50   1 H        0.924     0.065     2.142     2.289
    51   1 H        0.924     0.052     2.299     2.371
    52   1 H        0.925     0.058     2.218     2.329
    53   1 H        0.926     0.043     2.413     2.429
    54   1 H        0.926     0.052     2.291     2.367
    55   1 H        0.924     0.053     2.287     2.365
    56   1 H        0.924     0.055     2.257     2.349
    57   1 H        0.925     0.079     1.990     2.206
    58   1 H        0.926     0.061     2.187     2.312
    59   1 H        0.924     0.046     2.370     2.408
    60   1 H        0.923     0.048     2.340     2.392
    61   1 H        0.926     0.051     2.305     2.374
    62   1 H        0.924     0.078     2.001     2.212
    63   1 H        0.924     0.079     1.992     2.207
    64   1 H        0.925     0.103     1.755     2.072
    65   1 H        0.924     0.038     2.476     2.461
    66   1 H        0.925     0.069     2.096     2.264
    67   1 H        0.925     0.036     2.506     2.475
    68   1 H        0.925     0.052     2.296     2.370
    69   1 H        0.925     0.062     2.175     2.307
    70   1 H        0.925     0.035     2.513     2.479
    71   1 H        0.925     0.055     2.253     2.347
    72   1 H        0.860     0.159     1.343     1.815

Wiberg/Mayer (AO) data.
largest (>0.10) Wiberg bond orders for each atom

     #   Z sym  total        # sym  WBO       # sym  WBO       # sym  WBO
 ---------------------------------------------------------------------------
     1   7 N    3.038 --     2 C    1.959    72 H    0.941
     2   6 C    3.933 --     1 N    1.959     3 C    0.994    47 H    0.904
     3   6 C    3.975 --     2 C    0.994     4 C    0.970    14 C    0.956
                            31 C    0.942
     4   6 C    3.944 --    13 C    1.411     5 C    1.369     3 C    0.970
     5   6 C    3.960 --     6 C    1.399     4 C    1.369    34 H    0.957
     6   6 C    3.900 --     5 C    1.399     9 C    1.218     7 O    1.102
     7   8 O    2.253 --     6 C    1.102     8 C    0.978
     8   6 C    3.931 --     7 O    0.978    36 H    0.976    35 H    0.973
                            37 H    0.973
     9   6 C    3.897 --    12 C    1.388     6 C    1.218    10 O    1.106
    10   8 O    2.253 --     9 C    1.106    11 C    0.977
    11   6 C    3.929 --    39 H    0.977    10 O    0.977    38 H    0.973
                            40 H    0.973
    12   6 C    3.959 --    13 C    1.408     9 C    1.388    41 H    0.963
    13   6 C    3.950 --     4 C    1.411    12 C    1.408    42 H    0.962
    14   6 C    3.976 --    15 C    0.985    44 H    0.972    43 H    0.968
                             3 C    0.956
    15   6 C    3.986 --    16 C    1.059    14 C    0.985    45 H    0.959
                            46 H    0.924
    16   6 C    3.650 --    17 N    1.455    15 C    1.059    48 H    0.956
    17   7 N    3.527 --    16 C    1.455    30 C    0.996    18 C    0.984
    18   6 C    3.943 --    17 N    0.984    50 H    0.968    19 C    0.962
                            49 H    0.949
    19   6 C    3.975 --    20 C    1.009    52 H    0.972    51 H    0.971
                            18 C    0.962
    20   6 C    3.938 --    21 C    1.401    29 C    1.378    19 C    1.009
    21   6 C    3.971 --    22 C    1.452    20 C    1.401    53 H    0.968
    22   6 C    3.952 --    21 C    1.452    23 C    1.343    54 H    0.964
    23   6 C    3.904 --    22 C    1.343    26 C    1.319    24 O    1.103
    24   8 O    2.244 --    23 C    1.103    25 C    0.975
    25   6 C    3.930 --    57 H    0.977    24 O    0.975    56 H    0.973
                            55 H    0.973
    26   6 C    3.949 --    29 C    1.480    23 C    1.319    58 H    0.966
    27   8 O    2.020 --    28 C    1.914
    28   6 C    3.811 --    27 O    1.914    59 H    0.946    60 H    0.946
    29   6 C    3.972 --    26 C    1.480    20 C    1.378    61 H    0.966
    30   6 C    3.951 --    17 N    0.996    64 H    0.972    62 H    0.965
                            63 H    0.964
    31   6 C    3.971 --    33 C    1.009    32 C    1.008    65 H    0.959
                             3 C    0.942
    32   6 C    3.977 --    31 C    1.008    67 H    0.981    68 H    0.981
                            66 H    0.973
    33   6 C    3.981 --    31 C    1.009    70 H    0.983    71 H    0.980
                            69 H    0.976
    34   1 H    0.996 --     5 C    0.957
    35   1 H    0.993 --     8 C    0.973
    36   1 H    0.993 --     8 C    0.976
    37   1 H    0.993 --     8 C    0.973
    38   1 H    0.992 --    11 C    0.973
    39   1 H    0.992 --    11 C    0.977
    40   1 H    0.992 --    11 C    0.973
    41   1 H    0.995 --    12 C    0.963
    42   1 H    0.998 --    13 C    0.962
    43   1 H    0.995 --    14 C    0.968
    44   1 H    0.996 --    14 C    0.972
    45   1 H    0.994 --    15 C    0.959
    46   1 H    0.972 --    15 C    0.924
    47   1 H    0.985 --     2 C    0.904
    48   1 H    0.994 --    16 C    0.956
    49   1 H    0.985 --    18 C    0.949
    50   1 H    0.994 --    18 C    0.968
    51   1 H    0.995 --    19 C    0.971
    52   1 H    0.995 --    19 C    0.972
    53   1 H    0.997 --    21 C    0.968
    54   1 H    0.996 --    22 C    0.964
    55   1 H    0.992 --    25 C    0.973
    56   1 H    0.992 --    25 C    0.973
    57   1 H    0.993 --    25 C    0.977
    58   1 H    0.995 --    26 C    0.966
    59   1 H    0.994 --    28 C    0.946
    60   1 H    0.994 --    28 C    0.946
    61   1 H    0.995 --    29 C    0.966
    62   1 H    0.985 --    30 C    0.965
    63   1 H    0.988 --    30 C    0.964
    64   1 H    0.989 --    30 C    0.972
    65   1 H    0.991 --    31 C    0.959
    66   1 H    0.990 --    32 C    0.973
    67   1 H    0.996 --    32 C    0.981
    68   1 H    0.994 --    32 C    0.981
    69   1 H    0.992 --    33 C    0.976
    70   1 H    0.997 --    33 C    0.983
    71   1 H    0.993 --    33 C    0.980
    72   1 H    0.969 --     1 N    0.941
 ---------------------------------------------------------------------------

molecular dipole:
                 x           y           z       tot (Debye)
 q only:        0.555       0.350      -0.722
   full:        1.123       0.314      -0.707       3.467

           -------------------------------------------------
          | TOTAL ENERGY              -99.365345074749 Eh   |
          | GRADIENT NORM               0.003652141960 Eh/α |
          | HOMO-LUMO GAP               1.785889953383 eV   |
           -------------------------------------------------

 * finished run on 2024/04/06 at 11:14:39.076
