   * xtb version 6.6.1 (8d0f1dd) compiled by 'conda@1efc2f54142f' on 2023-08-01
          program call               : xtb struc.xyz --opt loose --input .xc1 --gfn2

   ID    Z sym.   atoms
    1    6 C      1, 3, 5-7, 10, 11, 14
    2    7 N      2, 4, 9, 13
    3    8 O      8, 12
    4    1 H      15-25
constraining bond 11 21 to    5.1400000 Å, actual value:    2.6553777 Å

          :  Hamiltonian                  GFN2-xTB          :
 * total energy  :     1.8429849 Eh     change       -0.6650680E-10 Eh
 * total energy  :   -18.8709114 Eh     change       -0.2071390E+02 Eh
 * total energy  :   -31.2390393 Eh     change       -0.1236813E+02 Eh
 * total energy  :   -38.2063769 Eh     change       -0.6967338E+01 Eh
 * total energy  :   -41.2002461 Eh     change       -0.2993869E+01 Eh
 * total energy  :   -41.7247335 Eh     change       -0.5244874E+00 Eh
 * total energy  :   -41.7631611 Eh     change       -0.3842763E-01 Eh
 * total energy  :   -41.8028756 Eh     change       -0.3971449E-01 Eh
 * total energy  :   -41.8656529 Eh     change       -0.6277731E-01 Eh
 * total energy  :   -41.8765425 Eh     change       -0.1088960E-01 Eh
 * total energy  :   -42.1028929 Eh     change       -0.2639537E-02 Eh
 * total energy  :   -42.1033464 Eh     change       -0.4535281E-03 Eh
 * total energy  :   -42.1035932 Eh     change       -0.2467428E-03 Eh
 * total energy  :   -42.1039202 Eh     change       -0.3270223E-03 Eh
 * total energy  :   -42.1040247 Eh     change       -0.1045345E-03 Eh
 * total energy  :   -42.1041149 Eh     change       -0.9021025E-04 Eh
 * total energy  :   -42.1042105 Eh     change       -0.9559498E-04 Eh
 * total energy  :   -42.1042691 Eh     change       -0.5859254E-04 Eh
 * total energy  :   -42.1043121 Eh     change       -0.4296193E-04 Eh
   *** GEOMETRY OPTIMIZATION CONVERGED AFTER 35 ITERATIONS ***

 final structure:
================
25
 xtb: 6.6.1 (8d0f1dd)
C            3.22199250242997        1.12244458259393        0.05778438020088
N            2.28882759103813        0.02803935871917        0.02336702041011
C            2.58427575537177       -1.26825952668378        0.05926907941036
N            1.44553543796884       -1.99955616129583        0.02408432173878
C            0.39152313021582       -1.13784344208177       -0.03769036527104
C            0.91644293989422        0.14879289806916       -0.03606850475094
C            0.09224562684664        1.31736580466460       -0.10348220204448
O            0.44470959027506        2.47608569370497       -0.10908170081962
N           -1.30271313768037        0.96911954371304       -0.16942097291472
C           -2.17908884719793        1.98031135519385       -0.24592196708692
C           -1.84044887127255       -0.35232878802862       -0.17360419363939
O           -3.02385963504152       -0.54175618619114       -0.23747792053420
N           -0.92950490678127       -1.40387791230593       -0.09071449781580
C           -1.43604953890152       -2.76397875999328       -0.09853199336956
H            3.71966451218252        1.16631447202756        1.02760277920565
H            3.97678422309672        1.00031121019245       -0.71872609409039
H            2.67795557610043        2.05220572116084       -0.10307328581262
H            3.57385513033793       -1.67893185483422        0.10615709262775
H           -1.78964091850883        2.98106141687597       -0.25565142306721
H           -3.22646294938810        1.75653060500370       -0.30303204528740
H           -3.11150101512278        4.26736888639821        1.68661033606771
H           -1.10456241234820       -3.29592063481940        0.79310280801471
H           -1.10768638720704       -3.28656046576380       -0.99798976190829
H           -2.52330933451416       -2.71001452751553       -0.09787351180401
H            1.40144745230610       -3.00868474720389        0.03153424044069

          :  Hamiltonian                  GFN2-xTB          :
         :: total energy             -42.104312087203 Eh    ::
         :: gradient norm              0.002970742843 Eh/a0 ::
         :: HOMO-LUMO gap              0.214914693384 eV    ::
         :: SCC energy               -42.624317171511 Eh    ::
         :: -> dispersion             -0.022660068599 Eh    ::
         :: repulsion energy           0.519912901966 Eh    ::

    * Orbital Energies and Occupations

         #    Occupation            Energy/Eh            Energy/eV
      -------------------------------------------------------------
         1        2.0000           -0.9112274             -24.7958
       ...           ...                  ...                  ...
        25        2.0000           -0.6713735             -18.2690
        26        2.0000           -0.6690891             -18.2068
        27        2.0000           -0.6629487             -18.0398
        28        1.9999           -0.6327404             -17.2177
        29        1.9999           -0.6301353             -17.1469
        30        1.9999           -0.6277285             -17.0814
        31        1.9998           -0.6190610             -16.8455
        32        1.9997           -0.6143962             -16.7186
        33        1.9997           -0.6130558             -16.6821
        34        1.9982           -0.5855126             -15.9326
        35        1.9941           -0.5666766             -15.4201
        36        1.9901           -0.5585876             -15.1999
        37        1.0643           -0.4766163             -12.9694 (HOMO)
        38        0.8171           -0.4687183             -12.7545 (LUMO)
        39        0.1168           -0.4305471             -11.7158
        40        0.0175           -0.3996410             -10.8748
        41        0.0031           -0.3723109             -10.1311
        42        0.0000           -0.2878821              -7.8337
        43        0.0000           -0.2088599              -5.6834
        44                         -0.1972948              -5.3687
        45                         -0.1508785              -4.1056
        46                         -0.1463982              -3.9837
        47                         -0.0792306              -2.1560
        48                         -0.0547516              -1.4899
       ...                                ...                  ...
        67                          0.5470417              14.8858
      -------------------------------------------------------------
                  HL-Gap            0.0078980 Eh            0.2149 eV

     #   Z          covCN         q      C6AA      α(0)
     1   6 C        3.691    -0.094    22.490     6.786
     2   7 N        2.829     0.077    19.895     6.625
     3   6 C        3.048     0.047    26.900     8.506
     4   7 N        2.792    -0.058    22.355     7.022
     5   6 C        3.039     0.106    25.625     8.303
     6   6 C        3.108    -0.023    28.433     8.736
     7   6 C        2.775     0.254    22.732     7.809
     8   8 O        0.857    -0.363    20.947     6.136
     9   7 N        2.740    -0.031    21.849     6.942
    10   6 C        2.815    -0.022    28.533     8.752
    11   6 C        2.736     0.309    21.759     7.637
    12   8 O        0.859    -0.349    20.697     6.099
    13   7 N        2.737    -0.049    22.197     6.997
    14   6 C        3.698    -0.074    22.080     6.721
    15   1 H        0.924     0.107     1.721     2.051
    16   1 H        0.925     0.105     1.742     2.064
    17   1 H        0.925     0.134     1.502     1.917
    18   1 H        0.926     0.124     1.583     1.968
    19   1 H        0.926     0.135     1.500     1.915
    20   1 H        0.926     0.130     1.532     1.936
    21   1 H        0.000     0.010     7.183     4.901
    22   1 H        0.925     0.083     1.943     2.180
    23   1 H        0.924     0.085     1.933     2.174
    24   1 H        0.925     0.128     1.554     1.949
    25   1 H        0.860     0.229     0.970     1.543

Wiberg/Mayer (AO) data.
largest (>0.10) Wiberg bond orders for each atom

     #   Z sym  total        # sym  WBO       # sym  WBO       # sym  WBO
 ---------------------------------------------------------------------------
     1   6 C    3.917 --     2 N    0.986    16 H    0.963    17 H    0.962
                            15 H    0.957
     2   7 N    3.649 --     3 C    1.379     6 C    1.146     1 C    0.986
     3   6 C    3.821 --     2 N    1.379     4 N    1.267    18 H    0.953
     4   7 N    3.579 --     3 C    1.267     5 C    1.194    25 H    0.919
     5   6 C    3.899 --     6 C    1.328     4 N    1.194    13 N    1.191
     6   6 C    3.909 --     5 C    1.328     2 N    1.146     7 C    1.117
     7   6 C    3.868 --     8 O    1.674     6 C    1.117     9 N    0.985
     8   8 O    1.958 --     7 C    1.674     9 N    0.108
     9   7 N    3.615 --    10 C    1.347    11 C    1.014     7 C    0.985
                             8 O    0.108
    10   6 C    3.357 --     9 N    1.347    20 H    0.960    19 H    0.956
    11   6 C    3.904 --    12 O    1.709    13 N    1.087     9 N    1.014
    12   8 O    2.021 --    11 C    1.709    13 N    0.135
    13   7 N    3.565 --     5 C    1.191    11 C    1.087    14 C    0.971
                            12 O    0.135
    14   6 C    3.923 --    22 H    0.972    23 H    0.971    13 N    0.971
                            24 H    0.965
    15   1 H    0.984 --     1 C    0.957
    16   1 H    0.985 --     1 C    0.963
    17   1 H    0.982 --     1 C    0.962
    18   1 H    0.984 --     3 C    0.953
    19   1 H    0.981 --    10 C    0.956
    20   1 H    0.982 --    10 C    0.960
    21   1 H    0.016
    22   1 H    0.991 --    14 C    0.972
    23   1 H    0.990 --    14 C    0.971
    24   1 H    0.983 --    14 C    0.965
    25   1 H    0.947 --     4 N    0.919
 ---------------------------------------------------------------------------

molecular dipole:
                 x           y           z       tot (Debye)
 q only:        2.380      -2.020       0.027
   full:        2.618      -2.466       0.048       9.141

           -------------------------------------------------
          | TOTAL ENERGY              -42.104312087203 Eh   |
          | GRADIENT NORM               0.002970742843 Eh/α |
          | HOMO-LUMO GAP               0.214914693384 eV   |
           -------------------------------------------------

 * finished run on 2024/06/05 at 20:00:17.686
