   * xtb version 6.6.1 (8d0f1dd) compiled by 'conda@1efc2f54142f' on 2023-08-01
          program call               : xtb xtbopt.xyz --opt crude --input .xc2 --gfn2

   ID    Z sym.   atoms
    1    6 C      1, 3, 5-7, 10, 11, 14
    2    7 N      2, 4, 9, 13
    3    8 O      8, 12
    4    1 H      15-25
########################################################################
[WARNING] Please study the warnings concerning your input carefully
-1- readin_getIntValue: could not parse ''
########################################################################

          :  Hamiltonian                  GFN2-xTB          :
 * total energy  :   -42.1717734 Eh     change       -0.1776357E-12 Eh
 * total energy  :   -42.1767789 Eh     change       -0.5005517E-02 Eh
 * total energy  :   -42.1798954 Eh     change       -0.3116521E-02 Eh
 * total energy  :   -42.1813002 Eh     change       -0.1404748E-02 Eh
 * total energy  :   -42.1821191 Eh     change       -0.8189255E-03 Eh
 * total energy  :   -42.1824821 Eh     change       -0.3629975E-03 Eh
   *** GEOMETRY OPTIMIZATION CONVERGED AFTER 6 ITERATIONS ***

 final structure:
================
25
 xtb: 6.6.1 (8d0f1dd)
C            3.42777536555735        1.46776892184314        0.57814758388535
N            2.20724753608235       -0.50901736087876       -0.24241795092968
C            2.50094853553637        0.84803566270623       -0.46582186567665
N            0.49220363335685       -3.01181889043849        0.13772004147792
C            0.09259161878655       -1.81115343101388        0.05993533105755
C            0.92384905207037       -0.62997961784325       -0.13302107414854
C            0.30032844009715        0.65761438286455       -0.28227620965445
O            1.21520983377075        1.56045023696482       -0.49783432474483
N           -1.00188793307409        0.82576033135255       -0.20518263244509
C           -1.64301980558712        2.11863390346450       -0.35174842286605
C           -1.85938283713947       -0.30570306447189        0.01545502214265
O           -3.03943517725921       -0.12591640866431        0.08751672220069
N           -1.25915732169819       -1.53842458436184        0.13084629036669
C           -2.13213769567273       -2.68994195065572        0.29136756542642
H            4.35590843157999        0.90372883947007        0.59636485405521
H            3.62892315366696        2.50168281666016        0.30396601717141
H            2.96848091526066        1.43228449542528        1.56599877047935
H            2.95797071608748        0.96459376577075       -1.46279871554600
H           -0.87842941804614        2.88649663870017       -0.43542135304259
H           -2.27506024679791        2.11714725247075       -1.24081212659807
H           -2.28123759008951        2.30621990798197        0.51230290241152
H           -1.77177963001126       -3.29836044939645        1.12008804086670
H           -2.10492423839088       -3.29847871898508       -0.61362893734750
H           -3.14725041047236       -2.34724568471733        0.47700661208828
H            1.48269658646280       -3.20613845265118        0.08541947727059

          :  Hamiltonian                  GFN2-xTB          :
         :: total energy             -42.182482077901 Eh    ::
         :: gradient norm              0.006476300808 Eh/a0 ::
         :: HOMO-LUMO gap              1.621526533051 eV    ::
         :: SCC energy               -42.690563703841 Eh    ::
         :: -> dispersion             -0.021699162393 Eh    ::
         :: repulsion energy           0.507963762206 Eh    ::

    * Orbital Energies and Occupations

         #    Occupation            Energy/Eh            Energy/eV
      -------------------------------------------------------------
         1        2.0000           -0.9473589             -25.7789
       ...           ...                  ...                  ...
        25        1.9998           -0.6727797             -18.3073
        26        1.9997           -0.6681710             -18.1819
        27        1.9991           -0.6502647             -17.6946
        28        1.9986           -0.6432342             -17.5033
        29        1.9969           -0.6305661             -17.1586
        30        1.9955           -0.6246931             -16.9988
        31        1.9949           -0.6228745             -16.9493
        32        1.9937           -0.6195167             -16.8579
        33        1.9849           -0.6055208             -16.4771
        34        1.9825           -0.6032434             -16.4151
        35        1.9698           -0.5944736             -16.1764
        36        1.9122           -0.5771011             -15.7037
        37        1.8091           -0.5639219             -15.3451 (HOMO)
        38        0.3604           -0.5043319             -13.7236 (LUMO)
        39        0.0029           -0.4250634             -11.5666
        40        0.0005           -0.3968201             -10.7980
        41        0.0000           -0.3068275              -8.3492
        42                         -0.2347017              -6.3866
        43                         -0.1932796              -5.2594
        44                         -0.1567157              -4.2645
        45                         -0.1115776              -3.0362
        46                         -0.0993253              -2.7028
        47                         -0.0609921              -1.6597
        48                         -0.0572313              -1.5573
       ...                                ...                  ...
        67                          0.5327326              14.4964
      -------------------------------------------------------------
                  HL-Gap            0.0595900 Eh            1.6215 eV

     #   Z          covCN         q      C6AA      α(0)
     1   6 C        3.751    -0.126    22.977     6.836
     2   7 N        1.876    -0.191    25.958     7.553
     3   6 C        3.929     0.178    17.703     5.979
     4   7 N        1.787    -0.236    27.013     7.698
     5   6 C        2.826     0.162    24.495     8.110
     6   6 C        3.052     0.058    26.653     8.467
     7   6 C        2.955     0.227    23.244     7.908
     8   8 O        1.707    -0.194    17.235     5.605
     9   7 N        2.735    -0.036    21.942     6.957
    10   6 C        3.699    -0.067    21.956     6.701
    11   6 C        2.721     0.317    21.607     7.609
    12   8 O        0.859    -0.320    20.154     6.019
    13   7 N        2.752    -0.038    21.983     6.964
    14   6 C        3.711    -0.077    22.113     6.720
    15   1 H        0.925     0.111     1.691     2.034
    16   1 H        0.925     0.102     1.770     2.080
    17   1 H        0.925     0.088     1.896     2.154
    18   1 H        0.923     0.127     1.558     1.952
    19   1 H        0.925     0.106     1.733     2.059
    20   1 H        0.924     0.117     1.634     1.999
    21   1 H        0.924     0.121     1.606     1.982
    22   1 H        0.925     0.118     1.626     1.994
    23   1 H        0.924     0.114     1.667     2.019
    24   1 H        0.925     0.123     1.591     1.972
    25   1 H        0.860     0.217     1.025     1.586

Wiberg/Mayer (AO) data.
largest (>0.10) Wiberg bond orders for each atom

     #   Z sym  total        # sym  WBO       # sym  WBO       # sym  WBO
 ---------------------------------------------------------------------------
     1   6 C    3.920 --    17 H    0.975    16 H    0.971    15 H    0.966
                             3 C    0.952
     2   7 N    2.882 --     6 C    1.592     3 C    1.090
     3   6 C    3.884 --     2 N    1.090     1 C    0.952    18 H    0.895
                             8 O    0.867
     4   7 N    2.867 --     5 C    1.709    25 H    0.919
     5   6 C    3.947 --     4 N    1.709    13 N    1.125     6 C    1.030
     6   6 C    3.885 --     2 N    1.592     7 C    1.099     5 C    1.030
     7   6 C    3.844 --     9 N    1.344     8 O    1.244     6 C    1.099
     8   8 O    2.353 --     7 C    1.244     3 C    0.867
     9   7 N    3.585 --     7 C    1.344    11 C    0.977    10 C    0.967
    10   6 C    3.905 --    19 H    0.973     9 N    0.967    21 H    0.956
                            20 H    0.954
    11   6 C    3.943 --    12 O    1.731    13 N    1.147     9 N    0.977
    12   8 O    2.057 --    11 C    1.731    13 N    0.138
    13   7 N    3.545 --    11 C    1.147     5 C    1.125    14 C    0.969
                            12 O    0.138
    14   6 C    3.883 --    13 N    0.969    24 H    0.964    22 H    0.953
                            23 H    0.949
    15   1 H    0.984 --     1 C    0.966
    16   1 H    0.985 --     1 C    0.971
    17   1 H    0.988 --     1 C    0.975
    18   1 H    0.955 --     3 C    0.895
    19   1 H    0.987 --    10 C    0.973
    20   1 H    0.979 --    10 C    0.954
    21   1 H    0.977 --    10 C    0.956
    22   1 H    0.973 --    14 C    0.953
    23   1 H    0.970 --    14 C    0.949
    24   1 H    0.980 --    14 C    0.964
    25   1 H    0.943 --     4 N    0.919
 ---------------------------------------------------------------------------

molecular dipole:
                 x           y           z       tot (Debye)
 q only:        0.868       0.034      -0.128
   full:        1.046       0.506      -0.305       3.053

           -------------------------------------------------
          | TOTAL ENERGY              -42.182482077901 Eh   |
          | GRADIENT NORM               0.006476300808 Eh/α |
          | HOMO-LUMO GAP               1.621526533051 eV   |
           -------------------------------------------------

 * finished run on 2024/06/05 at 19:58:17.099
