   * xtb version 6.6.1 (8d0f1dd) compiled by 'conda@1efc2f54142f' on 2023-08-01
          program call               : xtb struc.xyz --opt loose --input .xc1 --gfn2

   ID    Z sym.   atoms
    1    6 C      1, 3, 5-7, 10, 11, 14
    2    7 N      2, 4, 9, 13
    3    8 O      8, 12
    4    1 H      15-25
constraining bond 5 12 to    5.7600000 Å, actual value:    3.4583605 Å

          :  Hamiltonian                  GFN2-xTB          :
 * total energy  :    -4.4121159 Eh     change       -0.6650680E-10 Eh
 * total energy  :   -23.1182478 Eh     change       -0.1870613E+02 Eh
 * total energy  :   -33.6414025 Eh     change       -0.1052315E+02 Eh
 * total energy  :   -39.2935661 Eh     change       -0.5652164E+01 Eh
 * total energy  :   -41.2055939 Eh     change       -0.1912028E+01 Eh
 * total energy  :   -41.4352315 Eh     change       -0.2296376E+00 Eh
 * total energy  :   -41.4929512 Eh     change       -0.5771969E-01 Eh
 * total energy  :   -41.5592536 Eh     change       -0.6630241E-01 Eh
 * total energy  :   -41.6030452 Eh     change       -0.4379163E-01 Eh
 * total energy  :   -41.6422182 Eh     change       -0.3917301E-01 Eh
 * total energy  :   -42.1165787 Eh     change       -0.8719403E-04 Eh
 * total energy  :   -42.1166679 Eh     change       -0.8919606E-04 Eh
 * total energy  :   -42.1167296 Eh     change       -0.6163189E-04 Eh
 * total energy  :   -42.1167876 Eh     change       -0.5799752E-04 Eh
 * total energy  :   -42.1168558 Eh     change       -0.6823631E-04 Eh
 * total energy  :   -42.1168767 Eh     change       -0.2087518E-04 Eh
 * total energy  :   -42.1169167 Eh     change       -0.4004041E-04 Eh
 * total energy  :   -42.1169173 Eh     change       -0.5989866E-06 Eh
 * total energy  :   -42.1169549 Eh     change       -0.3764566E-04 Eh
   *** GEOMETRY OPTIMIZATION CONVERGED AFTER 80 ITERATIONS ***

 final structure:
================
25
 xtb: 6.6.1 (8d0f1dd)
C            3.14885981989467        1.22860318689089       -0.13425276748047
N            2.31905078608333        0.05461635940848       -0.06102611729633
C            2.76212158794835       -1.19782266666342        0.06066762542561
N            1.71830280229019       -2.06570531609954        0.11617612725176
C            0.59088711199722       -1.33333462692813        0.02629897828196
C            0.94308152963303        0.02287595445382       -0.09110389350310
C            0.00471215729106        1.17564456838871       -0.18472683366071
O            0.37136823706758        2.32526364193846       -0.24259812780280
N           -1.36706741452936        0.80678130089234       -0.16290479156962
C           -2.48712078865910        1.98562684090070        0.21494640610781
C           -1.69809823062947       -0.49058235463450       -0.05792360107680
O           -3.33097034310268        2.83223263643333       -0.56810490266574
N           -0.79126885827942       -1.51199301940679        0.01733487519587
C           -1.32105935135960       -2.86049829517269        0.12378733343661
H            3.65227999423890        1.39359297654274        0.81955487349874
H            3.90085500069186        1.11152535164053       -0.91385940860330
H            2.51960734195903        2.09037695664479       -0.35474739751269
H            3.79314771588082       -1.48482627828947        0.10660951896138
H           -1.82566513871043        2.68345848498070        0.73137468130453
H           -4.04754690250887        2.32806059552898       -0.97408180775617
H           -3.09563950503809        1.39487321915173        0.90449015425244
H           -1.01975484347915       -3.31296315393622        1.07000490840973
H           -0.96400996253143       -3.47612805375395       -0.70297459077673
H           -2.40606415986953       -2.81192867425893        0.08559167056611
H            1.79042292782155       -3.06951109305414        0.20263870491302

          :  Hamiltonian                  GFN2-xTB          :
         :: total energy             -42.116954948865 Eh    ::
         :: gradient norm              0.002548701619 Eh/a0 ::
         :: HOMO-LUMO gap              2.072417065602 eV    ::
         :: SCC energy               -42.592455690218 Eh    ::
         :: -> dispersion             -0.021652636680 Eh    ::
         :: repulsion energy           0.474984200920 Eh    ::

    * Orbital Energies and Occupations

         #    Occupation            Energy/Eh            Energy/eV
      -------------------------------------------------------------
         1        2.0000           -0.9036851             -24.5905
       ...           ...                  ...                  ...
        25        2.0000           -0.6647980             -18.0901
        26        2.0000           -0.6515647             -17.7300
        27        2.0000           -0.6469571             -17.6046
        28        1.9999           -0.6263976             -17.0451
        29        1.9999           -0.6197902             -16.8653
        30        1.9998           -0.6168334             -16.7849
        31        1.9998           -0.6120326             -16.6543
        32        1.9995           -0.6000541             -16.3283
        33        1.9989           -0.5879293             -15.9984
        34        1.9959           -0.5664693             -15.4144
        35        1.9925           -0.5571159             -15.1599
        36        1.9883           -0.5499260             -14.9642
        37        1.8232           -0.5056181             -13.7586 (HOMO)
        38        0.1551           -0.4294582             -11.6862 (LUMO)
        39        0.0377           -0.4060803             -11.0500
        40        0.0094           -0.3839491             -10.4478
        41        0.0002           -0.3228980              -8.7865
        42        0.0000           -0.2905020              -7.9050
        43        0.0000           -0.2056204              -5.5952
        44                         -0.1764011              -4.8001
        45                         -0.1380173              -3.7556
        46                         -0.0927331              -2.5234
        47                         -0.0696595              -1.8955
        48                         -0.0575703              -1.5666
       ...                                ...                  ...
        67                          0.5097982              13.8723
      -------------------------------------------------------------
                  HL-Gap            0.0761599 Eh            2.0724 eV

     #   Z          covCN         q      C6AA      α(0)
     1   6 C        3.691    -0.093    22.461     6.782
     2   7 N        2.828     0.073    19.963     6.636
     3   6 C        3.072     0.045    26.916     8.507
     4   7 N        2.769    -0.050    22.207     6.999
     5   6 C        3.054     0.101    25.725     8.318
     6   6 C        3.092    -0.012    28.204     8.705
     7   6 C        2.763     0.269    22.460     7.761
     8   8 O        0.857    -0.365    20.995     6.143
     9   7 N        2.676    -0.072    22.643     7.067
    10   6 C        3.548     0.117    19.597     6.475
    11   6 C        1.865    -0.069    33.021     9.282
    12   8 O        1.653    -0.361    20.104     6.053
    13   7 N        2.748     0.013    21.022     6.810
    14   6 C        3.705    -0.077    22.123     6.724
    15   1 H        0.924     0.104     1.748     2.068
    16   1 H        0.925     0.101     1.771     2.081
    17   1 H        0.925     0.137     1.481     1.903
    18   1 H        0.926     0.119     1.624     1.993
    19   1 H        0.924     0.120     1.614     1.987
    20   1 H        0.805     0.319     0.666     1.282
    21   1 H        0.924     0.085     1.924     2.169
    22   1 H        0.924     0.078     2.005     2.214
    23   1 H        0.924     0.077     2.005     2.214
    24   1 H        0.925     0.113     1.674     2.024
    25   1 H        0.860     0.227     0.980     1.551

Wiberg/Mayer (AO) data.
largest (>0.10) Wiberg bond orders for each atom

     #   Z sym  total        # sym  WBO       # sym  WBO       # sym  WBO
 ---------------------------------------------------------------------------
     1   6 C    3.916 --     2 N    0.986    16 H    0.963    17 H    0.958
                            15 H    0.957
     2   7 N    3.659 --     3 C    1.373     6 C    1.173     1 C    0.986
     3   6 C    3.817 --     2 N    1.373     4 N    1.254    18 H    0.954
     4   7 N    3.582 --     3 C    1.254     5 C    1.217    25 H    0.921
     5   6 C    3.928 --     6 C    1.364     4 N    1.217    13 N    1.138
     6   6 C    3.908 --     5 C    1.364     2 N    1.173     7 C    1.051
     7   6 C    3.917 --     8 O    1.710     9 N    1.068     6 C    1.051
     8   8 O    2.034 --     7 C    1.710     9 N    0.128
     9   7 N    3.577 --    11 C    1.392     7 C    1.068    10 C    0.823
                             8 O    0.128
    10   6 C    3.903 --    12 O    1.101    21 H    0.966    19 H    0.960
                             9 N    0.823
    11   6 C    2.871 --     9 N    1.392    13 N    1.287
    12   8 O    2.085 --    10 C    1.101    20 H    0.886
    13   7 N    3.606 --    11 C    1.287     5 C    1.138    14 C    0.985
    14   6 C    3.940 --    13 N    0.985    24 H    0.973    23 H    0.972
                            22 H    0.972
    15   1 H    0.985 --     1 C    0.957
    16   1 H    0.986 --     1 C    0.963
    17   1 H    0.981 --     1 C    0.958
    18   1 H    0.985 --     3 C    0.954
    19   1 H    0.985 --    10 C    0.960
    20   1 H    0.898 --    12 O    0.886
    21   1 H    0.990 --    10 C    0.966
    22   1 H    0.991 --    14 C    0.972
    23   1 H    0.991 --    14 C    0.972
    24   1 H    0.987 --    14 C    0.973
    25   1 H    0.948 --     4 N    0.921
 ---------------------------------------------------------------------------

molecular dipole:
                 x           y           z       tot (Debye)
 q only:        1.562      -2.508       0.338
   full:        2.088      -3.120       0.281       9.569

           -------------------------------------------------
          | TOTAL ENERGY              -42.116954948865 Eh   |
          | GRADIENT NORM               0.002548701619 Eh/α |
          | HOMO-LUMO GAP               2.072417065602 eV   |
           -------------------------------------------------

 * finished run on 2024/06/05 at 20:00:12.346
