   * xtb version 6.6.1 (8d0f1dd) compiled by 'conda@1efc2f54142f' on 2023-08-01
          program call               : xtb xtbopt.xyz --opt crude --input .xc2 --gfn2

   ID    Z sym.   atoms
    1    6 C      1, 3, 5-7, 10, 11, 14
    2    7 N      2, 4, 9, 13
    3    8 O      8, 12
    4    1 H      15-25
########################################################################
[WARNING] Please study the warnings concerning your input carefully
-1- readin_getIntValue: could not parse ''
########################################################################

          :  Hamiltonian                  GFN2-xTB          :
 * total energy  :   -42.1174048 Eh     change       -0.4263256E-13 Eh
 * total energy  :   -42.1421143 Eh     change       -0.2470950E-01 Eh
 * total energy  :   -42.1576334 Eh     change       -0.1551918E-01 Eh
 * total energy  :   -42.1625732 Eh     change       -0.4939731E-02 Eh
 * total energy  :   -42.1639885 Eh     change       -0.1415341E-02 Eh
 * total energy  :   -42.1651629 Eh     change       -0.1174378E-02 Eh
 * total energy  :   -42.1660370 Eh     change       -0.8741039E-03 Eh
 * total energy  :   -42.1665451 Eh     change       -0.5081437E-03 Eh
 * total energy  :   -42.1668926 Eh     change       -0.3474978E-03 Eh
 * total energy  :   -42.1672192 Eh     change       -0.3265614E-03 Eh
 * total energy  :   -42.1674783 Eh     change       -0.2591056E-03 Eh
 * total energy  :   -42.1676621 Eh     change       -0.1837769E-03 Eh
   *** GEOMETRY OPTIMIZATION CONVERGED AFTER 12 ITERATIONS ***

 final structure:
================
25
 xtb: 6.6.1 (8d0f1dd)
C            3.16018022662514        1.24244533045636       -0.13655897854780
N            2.28304146091727        0.10353282322641       -0.07540671755950
C            2.63911921011299       -1.17959508816841       -0.10024874113497
N            1.53816764463014       -1.96418194399250       -0.02349546047731
C            0.44404353380563       -1.14482501152573        0.04708277031006
C            0.91367063164925        0.15802132388227        0.02594020904966
C            0.01599702689011        1.29545849776151        0.10990020178374
O            0.33533904723366        2.45891874593150        0.10031972150541
N           -1.31841167528796        0.84775615700993        0.22695371971372
C           -2.35744360547572        1.90451138590751        0.27306263008933
C           -1.76237606153666       -0.41076679797527        0.22803471871121
O           -2.86195866821902        2.16399023371644       -0.98177980425342
N           -0.88101456152052       -1.42394765321847        0.13394195100602
C           -1.35935690762864       -2.79038610405859        0.12698181666373
H            3.72170381544264        1.34042845875160        0.79395988824228
H            3.86240612825019        1.13175903200867       -0.96213683386897
H            2.55897241572443        2.14021778092538       -0.28024164739589
H            3.64452556720855       -1.54397500801054       -0.17094135470814
H           -1.87451069162060        2.82140478328573        0.62799471309430
H           -3.48406717225576        1.47497560397878       -1.25822598934124
H           -3.11874436795892        1.56342850702579        0.98480388531460
H           -1.01402837477652       -3.32495545507103        1.01316393646665
H           -1.01884587556026       -3.30777900246503       -0.77048132530300
H           -2.44664808153491       -2.76413231611237        0.13216309537595
H            1.54067084898574       -2.97406574167134       -0.03361478683555

          :  Hamiltonian                  GFN2-xTB          :
         :: total energy             -42.167662088751 Eh    ::
         :: gradient norm              0.006952311670 Eh/a0 ::
         :: HOMO-LUMO gap              2.197376997428 eV    ::
         :: SCC energy               -42.671164134178 Eh    ::
         :: -> dispersion             -0.022289357051 Eh    ::
         :: repulsion energy           0.503386469077 Eh    ::

    * Orbital Energies and Occupations

         #    Occupation            Energy/Eh            Energy/eV
      -------------------------------------------------------------
         1        2.0000           -0.9089686             -24.7343
       ...           ...                  ...                  ...
        25        2.0000           -0.6713747             -18.2690
        26        2.0000           -0.6540131             -17.7966
        27        2.0000           -0.6515100             -17.7285
        28        1.9999           -0.6312283             -17.1766
        29        1.9999           -0.6278147             -17.0837
        30        1.9999           -0.6251463             -17.0111
        31        1.9997           -0.6152477             -16.7417
        32        1.9994           -0.6028282             -16.4038
        33        1.9972           -0.5777902             -15.7225
        34        1.9949           -0.5685155             -15.4701
        35        1.9903           -0.5581851             -15.1890
        36        1.9869           -0.5534094             -15.0590
        37        1.8522           -0.5138864             -13.9836 (HOMO)
        38        0.1420           -0.4331343             -11.7862 (LUMO)
        39        0.0306           -0.4078931             -11.0993
        40        0.0072           -0.3848001             -10.4709
        41        0.0000           -0.2857998              -7.7770
        42                         -0.1972699              -5.3680
        43                         -0.1885039              -5.1295
        44                         -0.1342315              -3.6526
        45                         -0.1303770              -3.5477
        46                         -0.0694033              -1.8886
        47                         -0.0437407              -1.1902
        48                         -0.0333127              -0.9065
       ...                                ...                  ...
        67                          0.5413700              14.7314
      -------------------------------------------------------------
                  HL-Gap            0.0807521 Eh            2.1974 eV

     #   Z          covCN         q      C6AA      α(0)
     1   6 C        3.691    -0.091    22.432     6.778
     2   7 N        2.829     0.074    19.954     6.634
     3   6 C        3.051     0.051    26.813     8.492
     4   7 N        2.790    -0.065    22.492     7.044
     5   6 C        3.053     0.105    25.627     8.302
     6   6 C        3.119    -0.008    28.039     8.673
     7   6 C        2.763     0.268    22.477     7.764
     8   8 O        0.857    -0.360    20.901     6.130
     9   7 N        2.748    -0.043    22.080     6.979
    10   6 C        3.632     0.129    18.853     6.251
    11   6 C        1.897    -0.084    33.413     9.336
    12   8 O        1.657    -0.389    20.646     6.134
    13   7 N        2.743     0.028    20.761     6.767
    14   6 C        3.704    -0.078    22.153     6.729
    15   1 H        0.924     0.107     1.723     2.053
    16   1 H        0.925     0.103     1.756     2.072
    17   1 H        0.925     0.135     1.497     1.914
    18   1 H        0.926     0.121     1.604     1.981
    19   1 H        0.924     0.108     1.711     2.045
    20   1 H        0.804     0.317     0.671     1.287
    21   1 H        0.924     0.069     2.098     2.265
    22   1 H        0.924     0.082     1.963     2.191
    23   1 H        0.924     0.079     1.989     2.205
    24   1 H        0.925     0.116     1.644     2.005
    25   1 H        0.860     0.226     0.981     1.552

Wiberg/Mayer (AO) data.
largest (>0.10) Wiberg bond orders for each atom

     #   Z sym  total        # sym  WBO       # sym  WBO       # sym  WBO
 ---------------------------------------------------------------------------
     1   6 C    3.917 --     2 N    0.986    16 H    0.964    17 H    0.961
                            15 H    0.956
     2   7 N    3.661 --     3 C    1.377     6 C    1.161     1 C    0.986
     3   6 C    3.826 --     2 N    1.377     4 N    1.271    18 H    0.954
     4   7 N    3.572 --     3 C    1.271     5 C    1.182    25 H    0.921
     5   6 C    3.935 --     6 C    1.371     4 N    1.182    13 N    1.177
     6   6 C    3.919 --     5 C    1.371     2 N    1.161     7 C    1.073
     7   6 C    3.928 --     8 O    1.709     6 C    1.073     9 N    1.049
     8   8 O    2.036 --     7 C    1.709     9 N    0.129
     9   7 N    3.616 --    11 C    1.378     7 C    1.049    10 C    0.921
                             8 O    0.129
    10   6 C    3.917 --    12 O    1.049    21 H    0.958    19 H    0.953
                             9 N    0.921
    11   6 C    2.862 --     9 N    1.378    13 N    1.281
    12   8 O    2.015 --    10 C    1.049    20 H    0.883
    13   7 N    3.634 --    11 C    1.281     5 C    1.177    14 C    0.983
    14   6 C    3.938 --    13 N    0.983    24 H    0.972    23 H    0.972
                            22 H    0.970
    15   1 H    0.985 --     1 C    0.956
    16   1 H    0.986 --     1 C    0.964
    17   1 H    0.981 --     1 C    0.961
    18   1 H    0.984 --     3 C    0.954
    19   1 H    0.986 --    10 C    0.953
    20   1 H    0.899 --    12 O    0.883
    21   1 H    0.991 --    10 C    0.958
    22   1 H    0.990 --    14 C    0.970
    23   1 H    0.991 --    14 C    0.972
    24   1 H    0.986 --    14 C    0.972
    25   1 H    0.948 --     4 N    0.921
 ---------------------------------------------------------------------------

molecular dipole:
                 x           y           z       tot (Debye)
 q only:        1.696      -2.651       0.145
   full:        2.223      -3.253       0.182      10.023

           -------------------------------------------------
          | TOTAL ENERGY              -42.167662088751 Eh   |
          | GRADIENT NORM               0.006952311670 Eh/α |
          | HOMO-LUMO GAP               2.197376997428 eV   |
           -------------------------------------------------

 * finished run on 2024/06/05 at 20:00:12.852
