   * xtb version 6.6.1 (8d0f1dd) compiled by 'conda@1efc2f54142f' on 2023-08-01
          program call               : xtb struc.xyz --opt loose --input .xc1 --gfn2

   ID    Z sym.   atoms
    1    6 C      1, 3, 5-7, 10, 11, 14
    2    7 N      2, 4, 9, 13
    3    8 O      8, 12
    4    1 H      15-25
constraining bond 19 21 to    3.2800000 Å, actual value:    1.7861504 Å

          :  Hamiltonian                  GFN2-xTB          :
 * total energy  :   -38.2632893 Eh     change       -0.6650680E-10 Eh
 * total energy  :   -40.3313610 Eh     change       -0.2068072E+01 Eh
 * total energy  :   -41.6537593 Eh     change       -0.1322398E+01 Eh
 * total energy  :   -42.0416053 Eh     change       -0.3878460E+00 Eh
 * total energy  :   -42.0688662 Eh     change       -0.2726086E-01 Eh
 * total energy  :   -42.0697388 Eh     change       -0.8725914E-03 Eh
 * total energy  :   -42.0706294 Eh     change       -0.8906852E-03 Eh
 * total energy  :   -42.0728159 Eh     change       -0.2186440E-02 Eh
 * total energy  :   -42.0736050 Eh     change       -0.7891328E-03 Eh
 * total energy  :   -42.0745792 Eh     change       -0.9741768E-03 Eh
 * total energy  :   -42.1874753 Eh     change       -0.2341406E-03 Eh
 * total energy  :   -42.1877734 Eh     change       -0.2980400E-03 Eh
 * total energy  :   -42.1879090 Eh     change       -0.1356717E-03 Eh
 * total energy  :   -42.1880315 Eh     change       -0.1224581E-03 Eh
 * total energy  :   -42.1881317 Eh     change       -0.1001813E-03 Eh
 * total energy  :   -42.1882491 Eh     change       -0.1173914E-03 Eh
 * total energy  :   -42.1882915 Eh     change       -0.4249512E-04 Eh
 * total energy  :   -42.1883260 Eh     change       -0.3443275E-04 Eh
 * total energy  :   -42.1883444 Eh     change       -0.1839403E-04 Eh
   *** GEOMETRY OPTIMIZATION CONVERGED AFTER 41 ITERATIONS ***

 final structure:
================
25
 xtb: 6.6.1 (8d0f1dd)
C            3.10381890037585        1.21952263179412       -0.04995063001589
N            2.17635507412833        0.12121295683564       -0.06714797828012
C            2.50065472972223       -1.18620543505164       -0.05962534187686
N            1.37287164489201       -1.93394525942687       -0.02884510553493
C            0.30606390449806       -1.09298779166219       -0.01389905983281
C            0.80056464950492        0.21648612540014       -0.03740823255336
C           -0.08400980648308        1.28900340251442       -0.03229285177371
O            0.32334073881464        2.57161885082927       -0.01535062321467
N           -1.43278985071706        1.00578414654142       -0.02267812781637
C           -2.35812589832132        1.97817724085749       -0.05683599669931
C           -1.94677938810877       -0.33908490150767        0.05632427505818
O           -3.12973105210877       -0.53297622132921        0.11721338166557
N           -1.02300449079063       -1.36517714572615        0.04585935550350
C           -1.49908172621399       -2.73590107981138        0.09279342174005
H            3.50661272100915        1.36403654854931        0.95490392815587
H            3.92818533526433        1.02195923051715       -0.73366590966648
H            2.58642910218153        2.12649853578572       -0.35302097016971
H            3.49752090792016       -1.57225265910347       -0.07450515051494
H           -0.42733758469428        3.13683934992710        0.22969637867140
H           -2.11456965268101        2.99157162102865       -0.30288608460154
H           -3.37534478830066        1.69834023297475        0.09012089959641
H           -1.14263261795858       -3.22908426434338        0.99732890265423
H           -1.16527994526914       -3.28178382559379       -0.78996810475873
H           -2.58733846561371       -2.71115352437646        0.10691082828366
H            1.34403907304974       -2.94226022402290       -0.02189958611939

          :  Hamiltonian                  GFN2-xTB          :
         :: total energy             -42.188344376270 Eh    ::
         :: gradient norm              0.003105690736 Eh/a0 ::
         :: HOMO-LUMO gap              1.470407975237 eV    ::
         :: SCC energy               -42.710846521922 Eh    ::
         :: -> dispersion             -0.022964070409 Eh    ::
         :: repulsion energy           0.522367527095 Eh    ::

    * Orbital Energies and Occupations

         #    Occupation            Energy/Eh            Energy/eV
      -------------------------------------------------------------
         1        2.0000           -0.8906507             -24.2358
       ...           ...                  ...                  ...
        25        2.0000           -0.6676194             -18.1668
        26        2.0000           -0.6611352             -17.9904
        27        2.0000           -0.6582460             -17.9118
        28        2.0000           -0.6448299             -17.5467
        29        2.0000           -0.6259384             -17.0327
        30        2.0000           -0.6220810             -16.9277
        31        2.0000           -0.6173692             -16.7995
        32        1.9999           -0.6110780             -16.6283
        33        1.9999           -0.6049865             -16.4625
        34        1.9999           -0.6028690             -16.4049
        35        1.9992           -0.5713788             -15.5480
        36        1.9972           -0.5520646             -15.0224
        37        1.6657           -0.4735331             -12.8855 (HOMO)
        38        0.2820           -0.4194966             -11.4151 (LUMO)
        39        0.0449           -0.3883525             -10.5676
        40        0.0114           -0.3663500              -9.9689
        41        0.0001           -0.2815955              -7.6626
        42        0.0000           -0.1977815              -5.3819
        43        0.0000           -0.1824421              -4.9645
        44                         -0.1450580              -3.9472
        45                         -0.1241315              -3.3778
        46                         -0.1030543              -2.8043
        47                         -0.0640004              -1.7415
        48                         -0.0433465              -1.1795
       ...                                ...                  ...
        67                          0.5346666              14.5490
      -------------------------------------------------------------
                  HL-Gap            0.0540365 Eh            1.4704 eV

     #   Z          covCN         q      C6AA      α(0)
     1   6 C        3.690    -0.087    22.359     6.767
     2   7 N        2.822     0.050    20.369     6.703
     3   6 C        3.034     0.030    27.288     8.568
     4   7 N        2.778    -0.057    22.342     7.020
     5   6 C        3.046     0.083    26.104     8.380
     6   6 C        3.084     0.001    27.899     8.659
     7   6 C        2.786     0.150    24.729     8.146
     8   8 O        1.659    -0.365    20.181     6.064
     9   7 N        2.741    -0.011    21.476     6.883
    10   6 C        2.815    -0.086    30.131     8.994
    11   6 C        2.740     0.303    21.850     7.653
    12   8 O        0.859    -0.360    20.895     6.129
    13   7 N        2.736    -0.050    22.211     7.000
    14   6 C        3.700    -0.072    22.046     6.715
    15   1 H        0.924     0.098     1.803     2.100
    16   1 H        0.925     0.097     1.812     2.105
    17   1 H        0.925     0.118     1.629     1.996
    18   1 H        0.927     0.113     1.673     2.022
    19   1 H        0.804     0.342     0.608     1.225
    20   1 H        0.926     0.078     1.998     2.211
    21   1 H        0.927     0.112     1.678     2.025
    22   1 H        0.925     0.083     1.950     2.184
    23   1 H        0.924     0.082     1.959     2.189
    24   1 H        0.925     0.124     1.578     1.964
    25   1 H        0.860     0.223     0.998     1.565

Wiberg/Mayer (AO) data.
largest (>0.10) Wiberg bond orders for each atom

     #   Z sym  total        # sym  WBO       # sym  WBO       # sym  WBO
 ---------------------------------------------------------------------------
     1   6 C    3.930 --     2 N    0.991    16 H    0.969    17 H    0.967
                            15 H    0.960
     2   7 N    3.591 --     3 C    1.299     6 C    1.133     1 C    0.991
     3   6 C    3.720 --     2 N    1.299     4 N    1.260    18 H    0.957
     4   7 N    3.565 --     3 C    1.260     5 C    1.200    25 H    0.922
     5   6 C    3.866 --     6 C    1.266     4 N    1.200    13 N    1.159
     6   6 C    3.939 --     7 C    1.279     5 C    1.266     2 N    1.133
     7   6 C    3.752 --     6 C    1.279     9 N    1.134     8 O    1.098
                            10 C    0.131
     8   8 O    2.102 --     7 C    1.098    19 H    0.836
     9   7 N    3.636 --    10 C    1.305     7 C    1.134    11 C    0.980
    10   6 C    3.539 --     9 N    1.305    21 H    0.963    20 H    0.958
                             7 C    0.131
    11   6 C    3.908 --    12 O    1.699    13 N    1.119     9 N    0.980
    12   8 O    2.033 --    11 C    1.699    13 N    0.147
    13   7 N    3.543 --     5 C    1.159    11 C    1.119    14 C    0.972
                            12 O    0.147
    14   6 C    3.927 --    23 H    0.972    13 N    0.972    22 H    0.971
                            24 H    0.966
    15   1 H    0.983 --     1 C    0.960
    16   1 H    0.987 --     1 C    0.969
    17   1 H    0.985 --     1 C    0.967
    18   1 H    0.986 --     3 C    0.957
    19   1 H    0.882 --     8 O    0.836
    20   1 H    0.993 --    10 C    0.958
    21   1 H    0.987 --    10 C    0.963
    22   1 H    0.990 --    14 C    0.971
    23   1 H    0.991 --    14 C    0.972
    24   1 H    0.984 --    14 C    0.966
    25   1 H    0.950 --     4 N    0.922
 ---------------------------------------------------------------------------

molecular dipole:
                 x           y           z       tot (Debye)
 q only:        2.207      -0.783       0.066
   full:        2.326      -0.925       0.086       6.365

           -------------------------------------------------
          | TOTAL ENERGY              -42.188344376270 Eh   |
          | GRADIENT NORM               0.003105690736 Eh/α |
          | HOMO-LUMO GAP               1.470407975237 eV   |
           -------------------------------------------------

 * finished run on 2024/06/05 at 19:58:04.102
