   * xtb version 6.6.1 (8d0f1dd) compiled by 'conda@1efc2f54142f' on 2023-08-01
          program call               : xtb struc.xyz --opt loose --input .xc1 --gfn2

   ID    Z sym.   atoms
    1    6 C      1, 3, 5-7, 10, 11, 14
    2    7 N      2, 4, 9, 13
    3    8 O      8, 12
    4    1 H      15-25
constraining bond 22 23 to    3.2800000 Å, actual value:    1.7896004 Å

          :  Hamiltonian                  GFN2-xTB          :
 * total energy  :   -26.3831134 Eh     change       -0.6650680E-10 Eh
 * total energy  :   -37.0246468 Eh     change       -0.1064153E+02 Eh
 * total energy  :   -41.1518416 Eh     change       -0.4127195E+01 Eh
 * total energy  :   -42.0400061 Eh     change       -0.8881645E+00 Eh
 * total energy  :   -42.0648665 Eh     change       -0.2486041E-01 Eh
 * total energy  :   -42.0650717 Eh     change       -0.2052143E-03 Eh
 * total energy  :   -42.0662915 Eh     change       -0.1219841E-02 Eh
 * total energy  :   -42.0664630 Eh     change       -0.1714816E-03 Eh
 * total energy  :   -42.0671279 Eh     change       -0.6648798E-03 Eh
 * total energy  :   -42.0676783 Eh     change       -0.5504001E-03 Eh
 * total energy  :   -42.1060632 Eh     change       -0.2695502E-04 Eh
 * total energy  :   -42.1062243 Eh     change       -0.1610926E-03 Eh
 * total energy  :   -42.1062842 Eh     change       -0.5985696E-04 Eh
 * total energy  :   -42.1062973 Eh     change       -0.1314420E-04 Eh
 * total energy  :   -42.1064355 Eh     change       -0.1381898E-03 Eh
 * total energy  :   -42.1064750 Eh     change       -0.3955653E-04 Eh
 * total energy  :   -42.1064942 Eh     change       -0.1914223E-04 Eh
 * total energy  :   -42.1065930 Eh     change       -0.9884804E-04 Eh
 * total energy  :   -42.1066104 Eh     change       -0.1732503E-04 Eh
   *** GEOMETRY OPTIMIZATION CONVERGED AFTER 65 ITERATIONS ***

 final structure:
================
25
 xtb: 6.6.1 (8d0f1dd)
C            3.22528869325145        1.15435533940784       -0.01861306739482
N            2.29409770855871        0.06209264126414        0.08873893308299
C            2.59322046005494       -1.22696605979409        0.19520576411210
N            1.46308789835469       -1.95947663683074        0.27008959844368
C            0.39816953735858       -1.09720803431162        0.20686911352066
C            0.92606709023491        0.18211974002768        0.09098795073709
C            0.08854083868977        1.35895179630444       -0.01804927215884
O            0.47955421759578        2.49967765366370       -0.10485013187667
N           -1.26648182433418        1.01548820408606       -0.01475016083885
C           -2.22956051769145        2.10702107207735       -0.12660611628930
C           -1.83111217587858       -0.22857836359785        0.07466446345735
O           -3.00894449554078       -0.43050914165433        0.04978385835662
N           -0.92801800496255       -1.36208135143996        0.22688317711170
C           -1.47436180756809       -2.59282320607480        0.31125698263743
H            3.87699772572730        1.18326687911263        0.85481391443562
H            3.84046682166180        1.04031641166754       -0.91160096470439
H            2.66522550489234        2.08700496288923       -0.08307456109004
H            3.58595862979694       -1.63287943060032        0.21624187402750
H           -1.67470023669863        3.03973474300829       -0.19007039352290
H           -2.84211192657104        1.96953543476594       -1.01657561308332
H           -2.88145646433708        2.11373403019702        0.74596748841492
H           -0.87815807818198       -3.40566906263459        0.70196930600770
H           -2.13823157013309       -2.44692163189642       -2.16950700022346
H           -2.54755695273922       -2.64535147251885        0.31593979375536
H            1.42445044256209       -2.96659597552195        0.33545668097853

          :  Hamiltonian                  GFN2-xTB          :
         :: total energy             -42.106610359326 Eh    ::
         :: gradient norm              0.002460283572 Eh/a0 ::
         :: HOMO-LUMO gap              0.751812673131 eV    ::
         :: SCC energy               -42.628301182909 Eh    ::
         :: -> dispersion             -0.023316161077 Eh    ::
         :: repulsion energy           0.521532951827 Eh    ::

    * Orbital Energies and Occupations

         #    Occupation            Energy/Eh            Energy/eV
      -------------------------------------------------------------
         1        2.0000           -0.9216949             -25.0806
       ...           ...                  ...                  ...
        25        2.0000           -0.6726196             -18.3029
        26        2.0000           -0.6712189             -18.2648
        27        2.0000           -0.6632126             -18.0469
        28        1.9998           -0.6386651             -17.3790
        29        1.9998           -0.6342884             -17.2599
        30        1.9997           -0.6311314             -17.1740
        31        1.9996           -0.6234452             -16.9648
        32        1.9983           -0.6017444             -16.3743
        33        1.9972           -0.5934501             -16.1486
        34        1.9960           -0.5879354             -15.9985
        35        1.9864           -0.5683468             -15.4655
        36        1.9844           -0.5660932             -15.4042
        37        1.3815           -0.5021348             -13.6638 (HOMO)
        38        0.5613           -0.4745061             -12.9120 (LUMO)
        39        0.0856           -0.4402007             -11.9785
        40        0.0089           -0.4036538             -10.9840
        41        0.0017           -0.3772318             -10.2650
        42        0.0000           -0.2928490              -7.9688
        43                         -0.2156206              -5.8673
        44                         -0.2039385              -5.5494
        45                         -0.1527418              -4.1563
        46                         -0.1376299              -3.7451
        47                         -0.0705931              -1.9209
        48                         -0.0434211              -1.1815
       ...                                ...                  ...
        67                          0.5546914              15.0939
      -------------------------------------------------------------
                  HL-Gap            0.0276286 Eh            0.7518 eV

     #   Z          covCN         q      C6AA      α(0)
     1   6 C        3.691    -0.098    22.558     6.796
     2   7 N        2.832     0.088    19.722     6.596
     3   6 C        3.055     0.055    26.714     8.476
     4   7 N        2.791    -0.054    22.288     7.012
     5   6 C        3.041     0.098    25.799     8.331
     6   6 C        3.117    -0.016    28.238     8.704
     7   6 C        2.763     0.269    22.458     7.761
     8   8 O        0.858    -0.361    20.916     6.132
     9   7 N        2.744    -0.077    22.730     7.081
    10   6 C        3.713    -0.065    21.883     6.684
    11   6 C        2.732     0.313    21.689     7.625
    12   8 O        0.859    -0.330    20.336     6.046
    13   7 N        2.735     0.004    21.200     6.838
    14   6 C        2.795    -0.048    29.175     8.848
    15   1 H        0.925     0.110     1.697     2.037
    16   1 H        0.924     0.110     1.696     2.036
    17   1 H        0.925     0.140     1.459     1.889
    18   1 H        0.926     0.130     1.534     1.937
    19   1 H        0.925     0.117     1.637     2.001
    20   1 H        0.925     0.101     1.774     2.083
    21   1 H        0.925     0.100     1.788     2.091
    22   1 H        0.926     0.091     1.871     2.139
    23   1 H        0.000    -0.047    10.019     5.788
    24   1 H        0.926     0.139     1.468     1.895
    25   1 H        0.860     0.232     0.956     1.532

Wiberg/Mayer (AO) data.
largest (>0.10) Wiberg bond orders for each atom

     #   Z sym  total        # sym  WBO       # sym  WBO       # sym  WBO
 ---------------------------------------------------------------------------
     1   6 C    3.910 --     2 N    0.983    17 H    0.959    15 H    0.958
                            16 H    0.958
     2   7 N    3.681 --     3 C    1.390     6 C    1.168     1 C    0.983
     3   6 C    3.852 --     2 N    1.390     4 N    1.290    18 H    0.951
     4   7 N    3.567 --     3 C    1.290     5 C    1.171    25 H    0.917
     5   6 C    3.901 --     6 C    1.344     4 N    1.171    13 N    1.169
     6   6 C    3.870 --     5 C    1.344     2 N    1.168     7 C    1.069
     7   6 C    3.924 --     8 O    1.681     9 N    1.087     6 C    1.069
     8   8 O    2.000 --     7 C    1.681     9 N    0.140
     9   7 N    3.569 --    11 C    1.164     7 C    1.087    10 C    0.962
                            12 O    0.149     8 O    0.140
    10   6 C    3.908 --    19 H    0.967    21 H    0.965    20 H    0.965
                             9 N    0.962
    11   6 C    3.930 --    12 O    1.735     9 N    1.164    13 N    0.937
    12   8 O    2.069 --    11 C    1.735     9 N    0.149
    13   7 N    3.614 --    14 C    1.271     5 C    1.169    11 C    0.937
    14   6 C    3.431 --    13 N    1.271    22 H    0.967    24 H    0.955
                            23 H    0.141
    15   1 H    0.985 --     1 C    0.958
    16   1 H    0.985 --     1 C    0.958
    17   1 H    0.980 --     1 C    0.959
    18   1 H    0.982 --     3 C    0.951
    19   1 H    0.985 --    10 C    0.967
    20   1 H    0.985 --    10 C    0.965
    21   1 H    0.985 --    10 C    0.965
    22   1 H    0.989 --    14 C    0.967
    23   1 H    0.171 --    14 C    0.141
    24   1 H    0.979 --    14 C    0.955
    25   1 H    0.946 --     4 N    0.917
 ---------------------------------------------------------------------------

molecular dipole:
                 x           y           z       tot (Debye)
 q only:        2.780      -1.700       0.579
   full:        3.049      -2.267       0.649       9.797

           -------------------------------------------------
          | TOTAL ENERGY              -42.106610359326 Eh   |
          | GRADIENT NORM               0.002460283572 Eh/α |
          | HOMO-LUMO GAP               0.751812673131 eV   |
           -------------------------------------------------

 * finished run on 2024/06/05 at 20:00:21.195
