   * xtb version 6.6.1 (8d0f1dd) compiled by 'conda@1efc2f54142f' on 2023-08-01
          program call               : xtb xtbopt.xyz --opt crude --input .xc2 --gfn2

   ID    Z sym.   atoms
    1    6 C      1, 3, 5-7, 10, 11, 14
    2    7 N      2, 4, 9, 13
    3    8 O      8, 12
    4    1 H      15-25

          :  Hamiltonian                  GFN2-xTB          :
 * total energy  :   -42.1066164 Eh     change       -0.2771117E-12 Eh
 * total energy  :   -42.1163505 Eh     change       -0.9734134E-02 Eh
 * total energy  :   -42.1540988 Eh     change       -0.3774823E-01 Eh
 * total energy  :   -42.2318086 Eh     change       -0.7770983E-01 Eh
 * total energy  :   -41.7928857 Eh     change        0.4389229E+00 Eh
 * total energy  :   -42.2389240 Eh     change       -0.4460383E+00 Eh
 * total energy  :   -42.2386279 Eh     change        0.2960937E-03 Eh
 * total energy  :   -42.2435211 Eh     change       -0.4893154E-02 Eh
 * total energy  :   -42.2426865 Eh     change        0.8345992E-03 Eh
 * total energy  :   -42.2454151 Eh     change       -0.2728576E-02 Eh
 * total energy  :   -42.2436172 Eh     change        0.1797909E-02 Eh
 * total energy  :   -42.2462692 Eh     change       -0.2652028E-02 Eh
 * total energy  :   -42.2464933 Eh     change       -0.2240736E-03 Eh
   *** GEOMETRY OPTIMIZATION CONVERGED AFTER 13 ITERATIONS ***

 final structure:
================
25
 xtb: 6.6.1 (8d0f1dd)
C            3.21972796804130        1.14131966179420        0.03914814689502
N            2.27289936232026        0.05755257304334        0.08707936989174
C            2.54867485533764       -1.23699118479379        0.14852891304799
N            1.40009406815951       -1.95218770121894        0.13392097118369
C            0.35782925647711       -1.07434148598855        0.06407339287365
C            0.90812775001810        0.19744929462403        0.03674993141191
C            0.08028438063538        1.39042930669894       -0.03587212715919
O            0.49016123092871        2.52531910437030       -0.09164006708716
N           -1.27095196707732        1.06232560765711       -0.03432110624340
C           -2.22703369010249        2.16127047766947       -0.10255783325146
C           -1.84352322702899       -0.19891732129715       -0.00762004608798
O           -3.02868336664055       -0.36735242768319       -0.02009932821791
N           -0.96424251326190       -1.30700096043870        0.04063193395564
C           -1.54290798728957       -2.62690114529283       -0.06055873595171
H            3.85052484082075        1.13734495126927        0.92816404253758
H            3.85449247242778        1.04551223425332       -0.84233574535454
H            2.67125122895361        2.08162318062078       -0.01229967954756
H            3.53093279394958       -1.66370632857775        0.20071726196097
H           -1.66843229828623        3.09277304053635       -0.14894486100521
H           -2.85278123737522        2.04978340967615       -0.98751216612316
H           -2.86865625383207        2.14850059892261        0.77777766884594
H           -0.92482425202840       -3.36330078861942        0.45454517554179
H           -1.64768567431841       -2.90886547441435       -1.11194246653463
H           -2.52876180632508       -2.61360898337231        0.39599947541876
H            1.34391557960828       -2.95979109776756        0.17953949684109

          :  Hamiltonian                  GFN2-xTB          :
         :: total energy             -42.246493265279 Eh    ::
         :: gradient norm              0.008397482437 Eh/a0 ::
         :: HOMO-LUMO gap              3.277890506616 eV    ::
         :: SCC energy               -42.774712013113 Eh    ::
         :: -> dispersion             -0.022645062655 Eh    ::
         :: repulsion energy           0.528104394837 Eh    ::

    * Orbital Energies and Occupations

         #    Occupation            Energy/Eh            Energy/eV
      -------------------------------------------------------------
         1        2.0000           -0.9178810             -24.9768
       ...           ...                  ...                  ...
        25        2.0000           -0.6680572             -18.1788
        26        2.0000           -0.6653507             -18.1051
        27        2.0000           -0.6572757             -17.8854
        28        1.9998           -0.6354491             -17.2914
        29        1.9998           -0.6326791             -17.2161
        30        1.9997           -0.6277152             -17.0810
        31        1.9996           -0.6225700             -16.9410
        32        1.9994           -0.6188737             -16.8404
        33        1.9978           -0.5971552             -16.2494
        34        1.9926           -0.5780250             -15.7289
        35        1.9806           -0.5625929             -15.3089
        36        1.9765           -0.5595561             -15.2263
        37        1.9729           -0.5572388             -15.1632 (HOMO)
        38        0.0698           -0.4367785             -11.8853 (LUMO)
        39        0.0103           -0.4060244             -11.0485
        40        0.0013           -0.3731853             -10.1549
        41        0.0000           -0.2892411              -7.8706
        42                         -0.2054712              -5.5912
        43                         -0.2015938              -5.4856
        44                         -0.1459961              -3.9728
        45                         -0.1334978              -3.6327
        46                         -0.0846305              -2.3029
        47                         -0.0492138              -1.3392
        48                         -0.0361891              -0.9848
       ...                                ...                  ...
        67                          0.5572832              15.1644
      -------------------------------------------------------------
                  HL-Gap            0.1204603 Eh            3.2779 eV

     #   Z          covCN         q      C6AA      α(0)
     1   6 C        3.691    -0.097    22.541     6.794
     2   7 N        2.834     0.089    19.704     6.593
     3   6 C        3.060     0.052    26.782     8.487
     4   7 N        2.798    -0.059    22.371     7.025
     5   6 C        3.040     0.116    25.414     8.269
     6   6 C        3.128    -0.024    28.402     8.726
     7   6 C        2.764     0.274    22.373     7.746
     8   8 O        0.858    -0.365    20.991     6.143
     9   7 N        2.745    -0.084    22.875     7.103
    10   6 C        3.710    -0.062    21.840     6.679
    11   6 C        2.729     0.317    21.613     7.611
    12   8 O        0.860    -0.351    20.726     6.104
    13   7 N        2.738    -0.057    22.335     7.019
    14   6 C        3.697    -0.067    21.962     6.703
    15   1 H        0.925     0.109     1.705     2.042
    16   1 H        0.924     0.109     1.707     2.043
    17   1 H        0.925     0.140     1.463     1.892
    18   1 H        0.926     0.127     1.554     1.950
    19   1 H        0.925     0.114     1.666     2.018
    20   1 H        0.925     0.099     1.790     2.092
    21   1 H        0.925     0.100     1.788     2.091
    22   1 H        0.924     0.075     2.029     2.228
    23   1 H        0.924     0.092     1.860     2.133
    24   1 H        0.925     0.124     1.585     1.969
    25   1 H        0.860     0.230     0.966     1.540

Wiberg/Mayer (AO) data.
largest (>0.10) Wiberg bond orders for each atom

     #   Z sym  total        # sym  WBO       # sym  WBO       # sym  WBO
 ---------------------------------------------------------------------------
     1   6 C    3.911 --     2 N    0.983    17 H    0.959    15 H    0.959
                            16 H    0.958
     2   7 N    3.697 --     3 C    1.404     6 C    1.168     1 C    0.983
     3   6 C    3.868 --     2 N    1.404     4 N    1.272    18 H    0.952
     4   7 N    3.592 --     3 C    1.272     5 C    1.190    25 H    0.917
     5   6 C    3.952 --     6 C    1.352    13 N    1.220     4 N    1.190
     6   6 C    3.913 --     5 C    1.352     2 N    1.168     7 C    1.059
     7   6 C    3.952 --     8 O    1.688     9 N    1.112     6 C    1.059
     8   8 O    2.038 --     7 C    1.688     9 N    0.151
     9   7 N    3.557 --    11 C    1.119     7 C    1.112    10 C    0.968
                             8 O    0.151    12 O    0.136
    10   6 C    3.910 --     9 N    0.968    19 H    0.968    20 H    0.964
                            21 H    0.963
    11   6 C    3.957 --    12 O    1.718     9 N    1.119    13 N    1.029
    12   8 O    2.064 --    11 C    1.718     9 N    0.136    13 N    0.121
    13   7 N    3.552 --     5 C    1.220    11 C    1.029    14 C    0.976
                            12 O    0.121
    14   6 C    3.926 --    13 N    0.976    22 H    0.975    23 H    0.965
                            24 H    0.964
    15   1 H    0.986 --     1 C    0.959
    16   1 H    0.986 --     1 C    0.958
    17   1 H    0.980 --     1 C    0.959
    18   1 H    0.983 --     3 C    0.952
    19   1 H    0.985 --    10 C    0.968
    20   1 H    0.984 --    10 C    0.964
    21   1 H    0.984 --    10 C    0.963
    22   1 H    0.993 --    14 C    0.975
    23   1 H    0.987 --    14 C    0.965
    24   1 H    0.983 --    14 C    0.964
    25   1 H    0.947 --     4 N    0.917
 ---------------------------------------------------------------------------

molecular dipole:
                 x           y           z       tot (Debye)
 q only:        2.578      -2.023       0.127
   full:        2.869      -2.558       0.146       9.778

           -------------------------------------------------
          | TOTAL ENERGY              -42.246493265279 Eh   |
          | GRADIENT NORM               0.008397482437 Eh/α |
          | HOMO-LUMO GAP               3.277890506616 eV   |
           -------------------------------------------------

 * finished run on 2024/06/05 at 20:00:21.641
