   * xtb version 6.6.1 (8d0f1dd) compiled by 'conda@1efc2f54142f' on 2023-08-01
          program call               : xtb xtbopt.xyz --opt crude --input .xc2 --gfn2

   ID    Z sym.   atoms
    1    6 C      1, 3, 5-7, 10, 11, 14
    2    7 N      2, 4, 9, 13
    3    8 O      8, 12
    4    1 H      15-25
########################################################################
[WARNING] Please study the warnings concerning your input carefully
-1- readin_getIntValue: could not parse ''
########################################################################

          :  Hamiltonian                  GFN2-xTB          :
 * total energy  :   -42.1593082 Eh     change       -0.2145839E-11 Eh
   *** GEOMETRY OPTIMIZATION CONVERGED AFTER 1 ITERATIONS ***

 final structure:
================
25
 xtb: 6.6.1 (8d0f1dd)
C            3.30372332779364        1.10163876425568        0.03831658821601
N            2.31508453499592        0.05801159452193       -0.00215540284008
C            2.54187766255008       -1.25291369376432        0.01404253397786
N            1.37007585496387       -1.92980664616726        0.00246668175232
C            0.35503375126714       -1.01265438738946       -0.02098845292342
C            0.94462746926743        0.25931002946309       -0.02282703780401
C            0.20536414895401        1.46409054200789       -0.01981026901681
O            0.60319183368897        2.60489848090514       -0.07024355428100
N           -1.24091965141030        1.20209961536704        0.07495223003300
C           -2.02835910750931        2.27780409143694        0.16905244932113
C           -1.74606208058819       -0.05496554636157       -0.00428679569992
O           -3.07543246183912       -0.22552768462900       -0.08563136075314
N           -0.97469455802372       -1.18671919988294       -0.04062765337998
C           -1.57454535125817       -2.50677785972917       -0.08186076558681
H            3.82395994933924        1.09485716418734        0.99720771012888
H            4.03364998699328        0.96548990321044       -0.75907706852472
H            2.80122287272086        2.05985387293562       -0.08650880919681
H            3.51043524799587       -1.71035505255398        0.02865025447492
H           -1.55135327567585        3.22918398526501        0.09565454813858
H           -3.47869115840042        0.61372979104663       -0.37152882301395
H           -3.05640583432664        2.21136513397016        0.45477860078117
H           -1.30470998691388       -3.07020780591535        0.81199216523131
H           -1.23915750481404       -3.04007410500821       -0.97179440992244
H           -2.65537620800794       -2.40011471703771       -0.11791130749820
H            1.27789205233722       -2.93397772853395       -0.00069043371378

          :  Hamiltonian                  GFN2-xTB          :
         :: total energy             -42.159308213061 Eh    ::
         :: gradient norm              0.005643294449 Eh/a0 ::
         :: HOMO-LUMO gap              0.967892586374 eV    ::
         :: SCC energy               -42.680886539159 Eh    ::
         :: -> dispersion             -0.022972359543 Eh    ::
         :: repulsion energy           0.521470351239 Eh    ::

    * Orbital Energies and Occupations

         #    Occupation            Energy/Eh            Energy/eV
      -------------------------------------------------------------
         1        2.0000           -0.8938592             -24.3231
       ...           ...                  ...                  ...
        25        2.0000           -0.6685012             -18.1908
        26        2.0000           -0.6630617             -18.0428
        27        2.0000           -0.6494755             -17.6731
        28        2.0000           -0.6372260             -17.3398
        29        2.0000           -0.6293497             -17.1255
        30        2.0000           -0.6222975             -16.9336
        31        2.0000           -0.6185658             -16.8320
        32        2.0000           -0.6178181             -16.8117
        33        2.0000           -0.6008627             -16.3503
        34        2.0000           -0.5881423             -16.0042
        35        2.0000           -0.5541787             -15.0800
        36        2.0000           -0.5508214             -14.9886
        37        1.8074           -0.4569582             -12.4345 (HOMO)
        38        0.1901           -0.4213888             -11.4666 (LUMO)
        39        0.0021           -0.3850843             -10.4787
        40        0.0004           -0.3714654             -10.1081
        41                         -0.2753038              -7.4914
        42                         -0.2000395              -5.4434
        43                         -0.1888873              -5.1399
        44                         -0.1567551              -4.2655
        45                         -0.1238540              -3.3702
        46                         -0.0962111              -2.6180
        47                         -0.0491418              -1.3372
        48                         -0.0367576              -1.0002
       ...                                ...                  ...
        67                          0.5620590              15.2944
      -------------------------------------------------------------
                  HL-Gap            0.0355694 Eh            0.9679 eV

     #   Z          covCN         q      C6AA      α(0)
     1   6 C        3.691    -0.092    22.452     6.781
     2   7 N        2.824     0.068    20.048     6.650
     3   6 C        3.035     0.047    26.919     8.510
     4   7 N        2.778    -0.064    22.485     7.043
     5   6 C        3.059     0.083    26.102     8.378
     6   6 C        3.086    -0.033    28.714     8.784
     7   6 C        2.774     0.246    22.883     7.835
     8   8 O        0.857    -0.371    21.114     6.161
     9   7 N        2.737    -0.016    21.563     6.897
    10   6 C        2.813    -0.108    30.719     9.081
    11   6 C        2.766     0.197    23.808     7.991
    12   8 O        1.659    -0.361    20.099     6.052
    13   7 N        2.737    -0.007    21.386     6.868
    14   6 C        3.698    -0.078    22.156     6.732
    15   1 H        0.924     0.101     1.775     2.084
    16   1 H        0.925     0.100     1.786     2.090
    17   1 H        0.925     0.132     1.519     1.927
    18   1 H        0.926     0.116     1.642     2.004
    19   1 H        0.927     0.104     1.747     2.067
    20   1 H        0.804     0.351     0.587     1.204
    21   1 H        0.927     0.065     2.146     2.291
    22   1 H        0.924     0.088     1.897     2.154
    23   1 H        0.924     0.087     1.906     2.159
    24   1 H        0.925     0.124     1.582     1.967
    25   1 H        0.860     0.221     1.006     1.571

Wiberg/Mayer (AO) data.
largest (>0.10) Wiberg bond orders for each atom

     #   Z sym  total        # sym  WBO       # sym  WBO       # sym  WBO
 ---------------------------------------------------------------------------
     1   6 C    3.922 --     2 N    0.988    16 H    0.964    17 H    0.962
                            15 H    0.960
     2   7 N    3.637 --     3 C    1.376     6 C    1.122     1 C    0.988
     3   6 C    3.811 --     2 N    1.376     4 N    1.266    18 H    0.955
     4   7 N    3.551 --     3 C    1.266     5 C    1.168    25 H    0.923
     5   6 C    3.921 --     6 C    1.265    13 N    1.210     4 N    1.168
     6   6 C    3.906 --     5 C    1.265     7 C    1.176     2 N    1.122
     7   6 C    3.908 --     8 O    1.671     6 C    1.176     9 N    0.917
     8   8 O    2.029 --     7 C    1.671     9 N    0.103
     9   7 N    3.676 --    10 C    1.324    11 C    1.201     7 C    0.917
                             8 O    0.103
    10   6 C    3.710 --     9 N    1.324    19 H    0.964    21 H    0.961
                            11 C    0.197
    11   6 C    3.814 --     9 N    1.201    13 N    1.151    12 O    1.103
                            10 C    0.197
    12   8 O    2.125 --    11 C    1.103    20 H    0.830
    13   7 N    3.593 --     5 C    1.210    11 C    1.151    14 C    0.972
    14   6 C    3.926 --    13 N    0.972    23 H    0.971    22 H    0.970
                            24 H    0.968
    15   1 H    0.985 --     1 C    0.960
    16   1 H    0.986 --     1 C    0.964
    17   1 H    0.982 --     1 C    0.962
    18   1 H    0.985 --     3 C    0.955
    19   1 H    0.988 --    10 C    0.964
    20   1 H    0.875 --    12 O    0.830
    21   1 H    0.995 --    10 C    0.961
    22   1 H    0.989 --    14 C    0.970
    23   1 H    0.990 --    14 C    0.971
    24   1 H    0.984 --    14 C    0.968
    25   1 H    0.951 --     4 N    0.923
 ---------------------------------------------------------------------------

molecular dipole:
                 x           y           z       tot (Debye)
 q only:        1.065      -2.327      -0.128
   full:        1.057      -2.685      -0.124       7.340

           -------------------------------------------------
          | TOTAL ENERGY              -42.159308213061 Eh   |
          | GRADIENT NORM               0.005643294449 Eh/α |
          | HOMO-LUMO GAP               0.967892586374 eV   |
           -------------------------------------------------

 * finished run on 2024/06/05 at 19:58:08.530
