   * xtb version 6.6.1 (8d0f1dd) compiled by 'conda@1efc2f54142f' on 2023-08-01
          program call               : xtb struc.xyz --opt loose --input .xc1 --gfn2

   ID    Z sym.   atoms
    1    6 C      1, 3, 5-7, 10, 11, 14
    2    7 N      2, 4, 9, 13
    3    8 O      8, 12
    4    1 H      15-25
constraining bond 6 11 to    6.0000000 Å, actual value:    2.7841340 Å

          :  Hamiltonian                  GFN2-xTB          :
 * total energy  :   -23.7822528 Eh     change       -0.6650680E-10 Eh
 * total energy  :   -29.4344490 Eh     change       -0.5652196E+01 Eh
 * total energy  :   -33.2020186 Eh     change       -0.3767570E+01 Eh
 * total energy  :   -36.2524864 Eh     change       -0.3050468E+01 Eh
 * total energy  :   -38.7568540 Eh     change       -0.2504368E+01 Eh
 * total energy  :   -40.3474779 Eh     change       -0.1590624E+01 Eh
 * total energy  :   -41.0397201 Eh     change       -0.6922423E+00 Eh
 * total energy  :   -41.4450546 Eh     change       -0.4053345E+00 Eh
 * total energy  :   -41.5756236 Eh     change       -0.1305690E+00 Eh
 * total energy  :   -41.6231362 Eh     change       -0.4751255E-01 Eh
 * total energy  :   -41.9637998 Eh     change       -0.1063683E-03 Eh
 * total energy  :   -41.9639205 Eh     change       -0.1207090E-03 Eh
 * total energy  :   -41.9640465 Eh     change       -0.1260423E-03 Eh
 * total energy  :   -41.9641146 Eh     change       -0.6807959E-04 Eh
 * total energy  :   -41.9642047 Eh     change       -0.9015212E-04 Eh
 * total energy  :   -41.9643051 Eh     change       -0.1003930E-03 Eh
 * total energy  :   -41.9643144 Eh     change       -0.9307996E-05 Eh
 * total energy  :   -41.9643898 Eh     change       -0.7531039E-04 Eh
 * total energy  :   -41.9644305 Eh     change       -0.4077372E-04 Eh
   *** GEOMETRY OPTIMIZATION CONVERGED AFTER 83 ITERATIONS ***

 final structure:
================
25
 xtb: 6.6.1 (8d0f1dd)
C            3.69707191456300        0.78961200629750       -0.12042350774775
N            3.23628038740808       -0.58525300035779       -0.06579387532172
C            3.64112067403414       -1.81238772182310        0.08426798969938
N            2.72675930363808       -2.87795141618173        0.11015095957310
C            1.44861550342866       -2.76488538827868        0.06850337049976
C            2.32058361390390        0.31283889633281       -0.30970989351713
C           -1.57966480097447        1.67663273782589        0.25342148488412
O           -0.79826486557941        0.80683634719741        0.22610559718767
N           -2.41393146139110        2.47954014850232        0.45656136285259
C           -3.23169370355272        3.58131126922038        0.14695848791965
C           -3.63087867431439       -0.41384127831873       -0.52531090680421
O           -4.54385189396040        0.23986758271946       -0.64717485601659
N            0.33372004539159       -2.61289256917661       -0.30728224385970
C           -1.01113088835417       -2.43158945156066        0.02255685610709
H            4.02722194102099        1.22767147704403        0.81783352047062
H            4.28785873594302        1.08198325898873       -0.98150382525076
H            1.28793680392438        0.47864310967256       -0.13531689385181
H            4.67987709777910       -2.04870949424756        0.20828045071292
H           -2.67327208168223        4.50898377095668        0.27912034043789
H           -3.59785413973275        3.51893156423559       -0.87959667167447
H           -4.07725118228976        3.57190211305892        0.83483127241931
H           -1.26083549907022       -2.85074535565967        0.99701176912447
H           -1.61376909731210       -2.89603946796364       -0.75487038028520
H           -1.22820404458681       -1.36099799169910        0.02728618181494
H            3.13398782569283       -3.80122260529581        0.22526502852113

          :  Hamiltonian                  GFN2-xTB          :
         :: total energy             -41.964430526691 Eh    ::
         :: gradient norm              0.003231628399 Eh/a0 ::
         :: HOMO-LUMO gap              2.136530669470 eV    ::
         :: SCC energy               -42.619785375009 Eh    ::
         :: -> dispersion             -0.016460289311 Eh    ::
         :: repulsion energy           0.655349944383 Eh    ::

    * Orbital Energies and Occupations

         #    Occupation            Energy/Eh            Energy/eV
      -------------------------------------------------------------
         1        2.0000           -0.8777711             -23.8854
       ...           ...                  ...                  ...
        25        2.0000           -0.6504943             -17.7008
        26        2.0000           -0.6408133             -17.4374
        27        2.0000           -0.6202331             -16.8774
        28        2.0000           -0.6137772             -16.7017
        29        1.9999           -0.6102622             -16.6061
        30        1.9999           -0.6022701             -16.3886
        31        1.9999           -0.5983506             -16.2819
        32        1.9998           -0.5900153             -16.0551
        33        1.9996           -0.5758007             -15.6683
        34        1.9987           -0.5587220             -15.2036
        35        1.9912           -0.5283001             -14.3758
        36        1.9893           -0.5252127             -14.2918
        37        1.8025           -0.4774969             -12.9934 (HOMO)
        38        0.1205           -0.3989808             -10.8568 (LUMO)
        39        0.0686           -0.3896317             -10.6024
        40        0.0139           -0.3639596              -9.9038
        41        0.0138           -0.3638395              -9.9006
        42        0.0023           -0.3351716              -9.1205
        43        0.0001           -0.2900767              -7.8934
        44        0.0001           -0.2747084              -7.4752
        45        0.0000           -0.2394000              -6.5144
        46                         -0.1700420              -4.6271
        47                         -0.1065067              -2.8982
        48                         -0.0754655              -2.0535
       ...                                ...                  ...
        67                          1.2601403              34.2902
      -------------------------------------------------------------
                  HL-Gap            0.0785161 Eh            2.1365 eV

     #   Z          covCN         q      C6AA      α(0)
     1   6 C        3.736    -0.010    20.845     6.515
     2   7 N        2.733     0.080    19.857     6.618
     3   6 C        2.767    -0.008    28.204     8.698
     4   7 N        2.685    -0.036    21.936     6.956
     5   6 C        1.845     0.131    27.942     8.539
     6   6 C        2.818    -0.053    29.303     8.870
     7   6 C        1.769     0.301    24.433     7.992
     8   8 O        0.856    -0.338    20.481     6.068
     9   7 N        1.820    -0.149    25.011     7.410
    10   6 C        3.685    -0.028    21.280     6.604
    11   6 C        0.856     0.025    34.345     9.779
    12   8 O        0.856    -0.050    15.792     5.328
    13   7 N        1.821    -0.010    22.137     6.971
    14   6 C        3.688    -0.072    22.081     6.726
    15   1 H        0.925     0.071     2.072     2.251
    16   1 H        0.925     0.081     1.968     2.194
    17   1 H        0.927     0.121     1.608     1.983
    18   1 H        0.926     0.092     1.857     2.131
    19   1 H        0.924     0.082     1.956     2.187
    20   1 H        0.924     0.076     2.017     2.221
    21   1 H        0.925     0.091     1.867     2.137
    22   1 H        0.925     0.100     1.786     2.090
    23   1 H        0.925     0.119     1.624     1.993
    24   1 H        0.924     0.148     1.402     1.852
    25   1 H        0.860     0.235     0.942     1.520

Wiberg/Mayer (AO) data.
largest (>0.10) Wiberg bond orders for each atom

     #   Z sym  total        # sym  WBO       # sym  WBO       # sym  WBO
 ---------------------------------------------------------------------------
     1   6 C    3.875 --     6 C    0.986    16 H    0.966    15 H    0.965
                             2 N    0.902
     2   7 N    3.675 --     3 C    1.373     6 C    1.323     1 C    0.902
     3   6 C    3.738 --     2 N    1.373     4 N    1.037    18 H    0.953
                             6 C    0.276
     4   7 N    3.561 --     5 C    1.388     3 C    1.037    25 H    0.893
                            13 N    0.153
     5   6 C    3.796 --    13 N    2.170     4 N    1.388
     6   6 C    3.655 --     2 N    1.323     1 C    0.986    17 H    0.942
                             3 C    0.276
     7   6 C    3.950 --     9 N    2.081     8 O    1.783
     8   8 O    2.232 --     7 C    1.783     9 N    0.375
     9   7 N    3.476 --     7 C    2.081    10 C    1.015     8 O    0.375
    10   6 C    3.944 --     9 N    1.015    21 H    0.965    20 H    0.962
                            19 H    0.961
    11   6 C    2.602 --    12 O    2.592
    12   8 O    2.594 --    11 C    2.592
    13   7 N    3.458 --     5 C    2.170    14 C    1.032     4 N    0.153
    14   6 C    3.922 --    13 N    1.032    23 H    0.951    22 H    0.949
                            24 H    0.910
    15   1 H    0.985 --     1 C    0.965
    16   1 H    0.986 --     1 C    0.966
    17   1 H    0.984 --     6 C    0.942
    18   1 H    0.990 --     3 C    0.953
    19   1 H    0.991 --    10 C    0.961
    20   1 H    0.992 --    10 C    0.962
    21   1 H    0.990 --    10 C    0.965
    22   1 H    0.983 --    14 C    0.949
    23   1 H    0.982 --    14 C    0.951
    24   1 H    0.971 --    14 C    0.910
    25   1 H    0.937 --     4 N    0.893
 ---------------------------------------------------------------------------

molecular dipole:
                 x           y           z       tot (Debye)
 q only:        2.277      -2.065       0.086
   full:        2.160      -2.043       0.232       7.581

           -------------------------------------------------
          | TOTAL ENERGY              -41.964430526691 Eh   |
          | GRADIENT NORM               0.003231628399 Eh/α |
          | HOMO-LUMO GAP               2.136530669470 eV   |
           -------------------------------------------------

 * finished run on 2024/06/05 at 19:57:57.165
