   * xtb version 6.6.1 (8d0f1dd) compiled by 'conda@1efc2f54142f' on 2023-08-01
          program call               : xtb xtbopt.xyz --opt crude --input .xc2 --gfn2

   ID    Z sym.   atoms
    1    6 C      1, 3, 5-7, 10, 11, 14
    2    7 N      2, 4, 9, 13
    3    8 O      8, 12
    4    1 H      15-25
########################################################################
[WARNING] Please study the warnings concerning your input carefully
-1- readin_getIntValue: could not parse ''
########################################################################

          :  Hamiltonian                  GFN2-xTB          :
 * total energy  :   -42.1439945 Eh     change       -0.2060574E-12 Eh
   *** GEOMETRY OPTIMIZATION CONVERGED AFTER 1 ITERATIONS ***

 final structure:
================
25
 xtb: 6.6.1 (8d0f1dd)
C            2.94964559585753        1.25808111939652        0.47478774157443
N            2.21822532459906        0.07572277657635        0.10767526574029
C            2.77222527187019       -1.04244687773432       -0.30501875904544
N            1.83845702701052       -1.95295954976131       -0.56464874882204
C            0.55631053286502       -1.44724547906472       -0.30867246323828
C            0.81612790293631       -0.07843976232881        0.13183944274645
C            0.05819299564986        1.03662476804642        0.48187549067285
O            0.38642053408062        2.14821547650453        0.79760797129181
N           -1.51184274658076        0.84316800461089        0.42012259108568
C           -2.09748316245005        1.44091782708325       -0.77847081931281
C           -2.10307475567059        0.64397711641481        1.49721134382988
O           -2.51684701585234        0.35318817440720        2.52755295125979
N           -0.39982940939549       -2.25878764458778       -0.51100585274827
C           -1.79816933281129       -2.14479736475834       -0.31441444379052
H            2.73878957490584        1.53100527934627        1.50877584318886
H            4.01421394006718        1.06712099266394        0.35955685756770
H            2.66106657083214        2.09837955008548       -0.15717591416285
H            3.82965036465064       -1.19532807584544       -0.41604649810983
H           -1.78531466591163        2.48440138766832       -0.84850828383884
H           -1.73155425216729        0.89728759026041       -1.64886650688900
H           -3.18352554650333        1.38928450778941       -0.73532904927503
H           -2.04820384415742       -1.97422994757494        0.73803244975327
H           -2.23247841007942       -3.09898718931194       -0.61782651476640
H           -2.24878309866271       -1.35650098765841       -0.92284511771847
H            1.97821211901823       -2.89941315062191       -0.88503735908840

          :  Hamiltonian                  GFN2-xTB          :
         :: total energy             -42.143994515611 Eh    ::
         :: gradient norm              0.004892065153 Eh/a0 ::
         :: HOMO-LUMO gap              1.963344269831 eV    ::
         :: SCC energy               -42.709769630545 Eh    ::
         :: -> dispersion             -0.022406905370 Eh    ::
         :: repulsion energy           0.565515571060 Eh    ::

    * Orbital Energies and Occupations

         #    Occupation            Energy/Eh            Energy/eV
      -------------------------------------------------------------
         1        2.0000           -0.9361143             -25.4730
       ...           ...                  ...                  ...
        25        2.0000           -0.6728407             -18.3089
        26        2.0000           -0.6709722             -18.2581
        27        2.0000           -0.6556973             -17.8424
        28        2.0000           -0.6457132             -17.5707
        29        1.9999           -0.6430284             -17.4977
        30        1.9999           -0.6317375             -17.1905
        31        1.9997           -0.6159593             -16.7611
        32        1.9994           -0.6044330             -16.4475
        33        1.9993           -0.6015913             -16.3701
        34        1.9988           -0.5929975             -16.1363
        35        1.9979           -0.5839939             -15.8913
        36        1.8652           -0.5173767             -14.0785
        37        1.8441           -0.5148863             -14.0108 (HOMO)
        38        0.2208           -0.4427347             -12.0474 (LUMO)
        39        0.0670           -0.4225310             -11.4977
        40        0.0050           -0.3808051             -10.3622
        41        0.0031           -0.3735970             -10.1661
        42        0.0000           -0.2996945              -8.1551
        43        0.0000           -0.2525780              -6.8730
        44                         -0.1707427              -4.6461
        45                         -0.1344907              -3.6597
        46                         -0.1041339              -2.8336
        47                         -0.0717828              -1.9533
        48                         -0.0454457              -1.2366
       ...                                ...                  ...
        67                          0.9967652              27.1234
      -------------------------------------------------------------
                  HL-Gap            0.0721516 Eh            1.9633 eV

     #   Z          covCN         q      C6AA      α(0)
     1   6 C        3.694    -0.083    22.280     6.753
     2   7 N        2.820     0.061    20.182     6.672
     3   6 C        2.960     0.077    26.289     8.410
     4   7 N        2.805    -0.074    22.679     7.073
     5   6 C        2.922     0.140    24.946     8.191
     6   6 C        3.034    -0.048    29.146     8.855
     7   6 C        2.747     0.254    22.721     7.805
     8   8 O        0.857    -0.338    20.473     6.066
     9   7 N        2.708    -0.049    22.194     6.997
    10   6 C        3.697    -0.058    21.796     6.678
    11   6 C        1.793     0.325    23.949     7.909
    12   8 O        0.856    -0.119    16.796     5.495
    13   7 N        1.839    -0.222    26.676     7.654
    14   6 C        3.689    -0.035    21.401     6.621
    15   1 H        0.925     0.112     1.682     2.028
    16   1 H        0.925     0.094     1.840     2.121
    17   1 H        0.924     0.113     1.668     2.020
    18   1 H        0.926     0.115     1.656     2.013
    19   1 H        0.924     0.112     1.677     2.025
    20   1 H        0.925     0.099     1.797     2.096
    21   1 H        0.925     0.098     1.804     2.101
    22   1 H        0.924     0.051     2.304     2.374
    23   1 H        0.924     0.093     1.853     2.129
    24   1 H        0.924     0.053     2.287     2.365
    25   1 H        0.860     0.231     0.963     1.537

Wiberg/Mayer (AO) data.
largest (>0.10) Wiberg bond orders for each atom

     #   Z sym  total        # sym  WBO       # sym  WBO       # sym  WBO
 ---------------------------------------------------------------------------
     1   6 C    3.929 --     2 N    0.992    16 H    0.973    15 H    0.958
                            17 H    0.957
     2   7 N    3.660 --     3 C    1.419     6 C    1.071     1 C    0.992
                             4 N    0.112
     3   6 C    3.891 --     2 N    1.419     4 N    1.331    18 H    0.949
     4   7 N    3.562 --     3 C    1.331     5 C    1.073    25 H    0.919
                             2 N    0.112
     5   6 C    3.939 --    13 N    1.626     6 C    1.108     4 N    1.073
     6   6 C    3.816 --     7 C    1.295     5 C    1.108     2 N    1.071
                             8 O    0.119
     7   6 C    3.858 --     8 O    1.729     6 C    1.295     9 N    0.685
     8   8 O    2.108 --     7 C    1.729     6 C    0.119
     9   7 N    3.544 --    11 C    1.588    10 C    0.931     7 C    0.685
                            12 O    0.239
    10   6 C    3.896 --    21 H    0.976    20 H    0.970    19 H    0.963
                             9 N    0.931
    11   6 C    3.760 --    12 O    2.065     9 N    1.588
    12   8 O    2.396 --    11 C    2.065     9 N    0.239
    13   7 N    2.942 --     5 C    1.626    14 C    1.047
    14   6 C    3.951 --    13 N    1.047    23 H    0.964    22 H    0.952
                            24 H    0.951
    15   1 H    0.984 --     1 C    0.958
    16   1 H    0.990 --     1 C    0.973
    17   1 H    0.984 --     1 C    0.957
    18   1 H    0.985 --     3 C    0.949
    19   1 H    0.987 --    10 C    0.963
    20   1 H    0.990 --    10 C    0.970
    21   1 H    0.989 --    10 C    0.976
    22   1 H    0.980 --    14 C    0.952
    23   1 H    0.977 --    14 C    0.964
    24   1 H    0.979 --    14 C    0.951
    25   1 H    0.946 --     4 N    0.919
 ---------------------------------------------------------------------------

molecular dipole:
                 x           y           z       tot (Debye)
 q only:        1.171      -0.625      -0.645
   full:        1.173      -0.580      -0.606       3.667

           -------------------------------------------------
          | TOTAL ENERGY              -42.143994515611 Eh   |
          | GRADIENT NORM               0.004892065153 Eh/α |
          | HOMO-LUMO GAP               1.963344269831 eV   |
           -------------------------------------------------

 * finished run on 2024/06/05 at 19:59:19.697
