   * xtb version 6.6.1 (8d0f1dd) compiled by 'conda@1efc2f54142f' on 2023-08-01
          program call               : xtb xtbopt.xyz --opt crude --input .xc2 --gfn2

   ID    Z sym.   atoms
    1    6 C      1, 3, 5-7, 10, 11, 14
    2    7 N      2, 4, 9, 13
    3    8 O      8, 12
    4    1 H      15-25

          :  Hamiltonian                  GFN2-xTB          :
 * total energy  :   -42.1058919 Eh     change       -0.9094947E-12 Eh
   *** GEOMETRY OPTIMIZATION CONVERGED AFTER 1 ITERATIONS ***

 final structure:
================
25
 xtb: 6.6.1 (8d0f1dd)
C            3.36598504624082        1.04692180304133        0.05644638520189
N            2.37457352110358        0.00568797252640        0.02691070663966
C            2.59835609977598       -1.30437805685787       -0.02046830049676
N            1.42004135173561       -1.97121893971339       -0.02529223687889
C            0.41499370090437       -1.05273977650002        0.01958015840310
C            1.00999517826838        0.20266250422741        0.05615142787643
C            0.25126706372398        1.41371192397463        0.08590380676000
O            0.66544976036048        2.55041542620706        0.10657376022643
N           -1.16663873798627        1.14410735633359        0.05713731226458
C           -1.99022104939367        2.20118430599065        0.04013249717279
C           -1.77515215391556       -0.14489469758892        0.03521284805251
O           -2.96856534808582       -0.27010184190877        0.02814037442159
N           -0.91944052833380       -1.24441065732744        0.01850862764062
C           -1.49180999404384       -2.57944339214700        0.00335172253975
H            3.81899402365578        1.11051108610406        1.04746879540461
H            4.14571083299718        0.84467899244797       -0.67533609511485
H            2.88423735183583        1.99775002988183       -0.16532727313051
H            3.56382733633526       -1.76740068736088       -0.05257716556348
H           -1.53987412085823        3.17819412208088        0.07431419163716
H           -4.80276386361944        2.10109658676545       -0.54880505224892
H           -3.06537901191551        2.05191612126337       -0.07662267593768
H           -1.18184121462807       -3.13360036598596        0.88929375626882
H           -1.19212053721333       -3.11103635303260       -0.89984308750453
H           -2.57546089416963       -2.47639047913390        0.01060283113598
H            1.31626770132563       -2.97498444168789       -0.06028569687017

          :  Hamiltonian                  GFN2-xTB          :
         :: total energy             -42.105891873636 Eh    ::
         :: gradient norm              0.004211733827 Eh/a0 ::
         :: HOMO-LUMO gap              0.126042804479 eV    ::
         :: SCC energy               -42.624264406297 Eh    ::
         :: -> dispersion             -0.022881672201 Eh    ::
         :: repulsion energy           0.518290263381 Eh    ::

    * Orbital Energies and Occupations

         #    Occupation            Energy/Eh            Energy/eV
      -------------------------------------------------------------
         1        2.0000           -0.9109917             -24.7893
       ...           ...                  ...                  ...
        25        2.0000           -0.6712478             -18.2656
        26        2.0000           -0.6690871             -18.2068
        27        2.0000           -0.6626540             -18.0317
        28        1.9999           -0.6335128             -17.2388
        29        1.9999           -0.6298931             -17.1403
        30        1.9999           -0.6279396             -17.0871
        31        1.9998           -0.6187766             -16.8378
        32        1.9997           -0.6146811             -16.7263
        33        1.9997           -0.6128934             -16.6777
        34        1.9982           -0.5853288             -15.9276
        35        1.9944           -0.5668426             -15.4246
        36        1.9904           -0.5584094             -15.1951
        37        1.0117           -0.4742782             -12.9058 (HOMO)
        38        0.8662           -0.4696462             -12.7797 (LUMO)
        39        0.1191           -0.4302084             -11.7066
        40        0.0180           -0.3994679             -10.8701
        41        0.0031           -0.3715808             -10.1112
        42        0.0000           -0.2875956              -7.8259
        43        0.0000           -0.2090042              -5.6873
        44                         -0.1966783              -5.3519
        45                         -0.1514174              -4.1203
        46                         -0.1460251              -3.9735
        47                         -0.0789061              -2.1471
        48                         -0.0537709              -1.4632
       ...                                ...                  ...
        67                          0.5495212              14.9532
      -------------------------------------------------------------
                  HL-Gap            0.0046320 Eh            0.1260 eV

     #   Z          covCN         q      C6AA      α(0)
     1   6 C        3.691    -0.093    22.471     6.783
     2   7 N        2.830     0.077    19.901     6.626
     3   6 C        3.049     0.047    26.902     8.507
     4   7 N        2.791    -0.058    22.360     7.023
     5   6 C        3.041     0.106    25.625     8.303
     6   6 C        3.108    -0.023    28.438     8.737
     7   6 C        2.773     0.254    22.735     7.809
     8   8 O        0.857    -0.362    20.930     6.134
     9   7 N        2.740    -0.032    21.866     6.945
    10   6 C        2.812    -0.021    28.517     8.749
    11   6 C        2.736     0.309    21.756     7.637
    12   8 O        0.859    -0.351    20.731     6.105
    13   7 N        2.737    -0.050    22.207     6.999
    14   6 C        3.698    -0.073    22.076     6.720
    15   1 H        0.924     0.109     1.706     2.042
    16   1 H        0.925     0.104     1.753     2.071
    17   1 H        0.925     0.133     1.510     1.922
    18   1 H        0.926     0.123     1.586     1.969
    19   1 H        0.926     0.133     1.512     1.923
    20   1 H        0.000     0.012     7.135     4.884
    21   1 H        0.924     0.134     1.505     1.918
    22   1 H        0.925     0.084     1.939     2.177
    23   1 H        0.925     0.084     1.942     2.179
    24   1 H        0.925     0.127     1.557     1.952
    25   1 H        0.860     0.229     0.970     1.543

Wiberg/Mayer (AO) data.
largest (>0.10) Wiberg bond orders for each atom

     #   Z sym  total        # sym  WBO       # sym  WBO       # sym  WBO
 ---------------------------------------------------------------------------
     1   6 C    3.918 --     2 N    0.987    16 H    0.966    17 H    0.962
                            15 H    0.955
     2   7 N    3.647 --     3 C    1.379     6 C    1.145     1 C    0.987
     3   6 C    3.820 --     2 N    1.379     4 N    1.265    18 H    0.953
     4   7 N    3.579 --     3 C    1.265     5 C    1.194    25 H    0.919
     5   6 C    3.899 --     6 C    1.326     4 N    1.194    13 N    1.191
     6   6 C    3.908 --     5 C    1.326     2 N    1.145     7 C    1.119
     7   6 C    3.865 --     8 O    1.677     6 C    1.119     9 N    0.978
     8   8 O    1.959 --     7 C    1.677     9 N    0.108
     9   7 N    3.612 --    10 C    1.349    11 C    1.015     7 C    0.978
                             8 O    0.108
    10   6 C    3.301 --     9 N    1.349    19 H    0.956    21 H    0.908
    11   6 C    3.903 --    12 O    1.707    13 N    1.086     9 N    1.015
    12   8 O    2.019 --    11 C    1.707    13 N    0.134
    13   7 N    3.565 --     5 C    1.191    11 C    1.086    14 C    0.970
                            12 O    0.134
    14   6 C    3.924 --    22 H    0.972    23 H    0.972    13 N    0.970
                            24 H    0.965
    15   1 H    0.983 --     1 C    0.955
    16   1 H    0.986 --     1 C    0.966
    17   1 H    0.982 --     1 C    0.962
    18   1 H    0.984 --     3 C    0.953
    19   1 H    0.979 --    10 C    0.956
    20   1 H    0.060
    21   1 H    0.981 --    10 C    0.908
    22   1 H    0.991 --    14 C    0.972
    23   1 H    0.991 --    14 C    0.972
    24   1 H    0.983 --    14 C    0.965
    25   1 H    0.947 --     4 N    0.919
 ---------------------------------------------------------------------------

molecular dipole:
                 x           y           z       tot (Debye)
 q only:        2.372      -1.973      -0.048
   full:        2.590      -2.431      -0.060       9.030

           -------------------------------------------------
          | TOTAL ENERGY              -42.105891873636 Eh   |
          | GRADIENT NORM               0.004211733827 Eh/α |
          | HOMO-LUMO GAP               0.126042804479 eV   |
           -------------------------------------------------

 * finished run on 2024/06/05 at 19:59:16.017
