   * xtb version 6.6.1 (8d0f1dd) compiled by 'conda@1efc2f54142f' on 2023-08-01
          program call               : xtb xtbopt.xyz --opt crude --input .xc2 --gfn2

   ID    Z sym.   atoms
    1    6 C      1, 3, 5-7, 10, 11, 14
    2    7 N      2, 4, 9, 13
    3    8 O      8, 12
    4    1 H      15-25
########################################################################
[WARNING] Please study the warnings concerning your input carefully
-1- readin_getIntValue: could not parse ''
########################################################################

          :  Hamiltonian                  GFN2-xTB          :
 * total energy  :   -39.8640464 Eh     change       -0.3744560E-11 Eh
 * total energy  :   -42.1393739 Eh     change       -0.2275327E+01 Eh
 * total energy  :   -42.1804599 Eh     change       -0.4108601E-01 Eh
 * total energy  :   -42.1811454 Eh     change       -0.6855362E-03 Eh
 * total energy  :   -42.1819867 Eh     change       -0.8412653E-03 Eh
 * total energy  :   -42.1825770 Eh     change       -0.5903772E-03 Eh
 * total energy  :   -42.1835050 Eh     change       -0.9279690E-03 Eh
 * total energy  :   -42.1842790 Eh     change       -0.7739606E-03 Eh
 * total energy  :   -42.1847036 Eh     change       -0.4245859E-03 Eh
 * total energy  :   -42.1849274 Eh     change       -0.2238349E-03 Eh
   *** GEOMETRY OPTIMIZATION CONVERGED AFTER 10 ITERATIONS ***

 final structure:
================
25
 xtb: 6.6.1 (8d0f1dd)
C            3.30329265633901        0.89730878062944        0.01282270469780
N            2.33851316543721       -0.03443179162117        0.01164449681222
C            2.55361626494317       -1.37716981384068       -0.02291766113655
N            1.35439987636796       -2.03407190487352       -0.02576225420219
C            0.36596426914203       -1.12699640264715        0.00583242606575
C            0.94932850310348        0.15776865785839        0.02054396968986
C            0.12821391416848        1.26752548703800        0.02849523679340
O            3.06753804412460        2.18967137042458        0.23131986530656
N           -1.21998557080805        1.05492809348907       -0.02219543447005
C           -2.13827351416883        2.17358336956004       -0.10125340859175
C           -1.83067146557440       -0.19569220549943       -0.00881362720610
O           -3.02373220490418       -0.31881403158981       -0.02813985588582
N           -0.97720399769860       -1.30883126249431        0.02978088122593
C           -1.55528433745149       -2.63270653322532        0.12371260621294
H            4.32434014906256        0.56144277870970        0.09688404081341
H            2.57597715667689        2.66958960120234       -0.44567825184961
H            0.46227621391685        2.28628279739415        0.09977580037193
H            3.51034319296498       -1.84761227341182       -0.01667112395649
H           -1.59399888623882        3.10955077228433       -0.02631416792346
H           -2.67978714252340        2.13603122564889       -1.04748505779054
H           -2.87300948659345        2.10584789431426        0.70089678363959
H           -1.25583239497794       -3.10984425627308        1.05780761809846
H           -1.24970486024426       -3.24684034361507       -0.72315718264562
H           -2.63836045685910       -2.52072542108959        0.11083029269818
H            1.26247242589581       -3.03755604677100       -0.03078707886934

          :  Hamiltonian                  GFN2-xTB          :
         :: total energy             -42.184927396166 Eh    ::
         :: gradient norm              0.009456909703 Eh/a0 ::
         :: HOMO-LUMO gap              1.128730493201 eV    ::
         :: SCC energy               -42.707910623755 Eh    ::
         :: -> dispersion             -0.022569533716 Eh    ::
         :: repulsion energy           0.522878087679 Eh    ::

    * Orbital Energies and Occupations

         #    Occupation            Energy/Eh            Energy/eV
      -------------------------------------------------------------
         1        2.0000           -0.8890072             -24.1911
       ...           ...                  ...                  ...
        25        2.0000           -0.6653874             -18.1061
        26        2.0000           -0.6618969             -18.0111
        27        2.0000           -0.6527168             -17.7613
        28        2.0000           -0.6444582             -17.5366
        29        2.0000           -0.6410668             -17.4443
        30        1.9999           -0.6207100             -16.8904
        31        1.9999           -0.6186589             -16.8346
        32        1.9999           -0.6146717             -16.7261
        33        1.9997           -0.5996484             -16.3173
        34        1.9994           -0.5900023             -16.0548
        35        1.9978           -0.5685192             -15.4702
        36        1.9943           -0.5531074             -15.0508
        37        1.5698           -0.4809685             -13.0878 (HOMO)
        38        0.4199           -0.4394884             -11.9591 (LUMO)
        39        0.0163           -0.3844009             -10.4601
        40        0.0031           -0.3582869              -9.7495
        41        0.0000           -0.2912576              -7.9255
        42        0.0000           -0.2006622              -5.4603
        43                         -0.1735941              -4.7237
        44                         -0.1330356              -3.6201
        45                         -0.1172343              -3.1901
        46                         -0.1011714              -2.7530
        47                         -0.0687917              -1.8719
        48                         -0.0283619              -0.7718
       ...                                ...                  ...
        67                          0.5385610              14.6550
      -------------------------------------------------------------
                  HL-Gap            0.0414801 Eh            1.1287 eV

     #   Z          covCN         q      C6AA      α(0)
     1   6 C        2.714     0.103    25.699     8.298
     2   7 N        2.802     0.055    20.272     6.687
     3   6 C        3.022    -0.005    28.128     8.700
     4   7 N        2.767    -0.057    22.342     7.020
     5   6 C        3.026     0.101    25.732     8.321
     6   6 C        3.068     0.014    27.620     8.618
     7   6 C        2.850    -0.006    28.171     8.699
     8   8 O        1.659    -0.347    19.854     6.015
     9   7 N        2.745    -0.025    21.727     6.923
    10   6 C        3.709    -0.069    21.963     6.698
    11   6 C        2.729     0.312    21.693     7.625
    12   8 O        0.859    -0.370    21.093     6.158
    13   7 N        2.737    -0.056    22.320     7.017
    14   6 C        3.698    -0.071    22.030     6.713
    15   1 H        0.926     0.090     1.882     2.145
    16   1 H        0.805     0.330     0.637     1.254
    17   1 H        0.926     0.095     1.830     2.115
    18   1 H        0.927     0.103     1.757     2.073
    19   1 H        0.925     0.087     1.906     2.159
    20   1 H        0.924     0.102     1.770     2.081
    21   1 H        0.925     0.107     1.718     2.050
    22   1 H        0.924     0.082     1.962     2.190
    23   1 H        0.925     0.080     1.975     2.198
    24   1 H        0.925     0.123     1.587     1.970
    25   1 H        0.860     0.220     1.010     1.574

Wiberg/Mayer (AO) data.
largest (>0.10) Wiberg bond orders for each atom

     #   Z sym  total        # sym  WBO       # sym  WBO       # sym  WBO
 ---------------------------------------------------------------------------
     1   6 C    3.541 --     2 N    1.257     8 O    1.120    15 H    0.947
                             3 C    0.117
     2   7 N    3.689 --     1 C    1.257     3 C    1.208     6 C    1.063
     3   6 C    3.645 --     2 N    1.208     4 N    1.195    18 H    0.960
                             1 C    0.117
     4   7 N    3.553 --     5 C    1.251     3 C    1.195    25 H    0.923
     5   6 C    3.844 --     4 N    1.251     6 C    1.223    13 N    1.176
     6   6 C    3.909 --     7 C    1.387     5 C    1.223     2 N    1.063
     7   6 C    3.694 --     6 C    1.387     9 N    1.209    17 H    0.953
     8   8 O    2.077 --     1 C    1.120    16 H    0.847
     9   7 N    3.525 --     7 C    1.209    11 C    1.093    10 C    0.982
                            12 O    0.126
    10   6 C    3.928 --     9 N    0.982    19 H    0.977    21 H    0.963
                            20 H    0.962
    11   6 C    3.947 --    12 O    1.702     9 N    1.093    13 N    1.059
    12   8 O    2.053 --    11 C    1.702    13 N    0.132     9 N    0.126
    13   7 N    3.487 --     5 C    1.176    11 C    1.059    14 C    0.979
                            12 O    0.132
    14   6 C    3.929 --    13 N    0.979    23 H    0.970    22 H    0.969
                            24 H    0.965
    15   1 H    0.991 --     1 C    0.947
    16   1 H    0.875 --     8 O    0.847
    17   1 H    0.989 --     7 C    0.953
    18   1 H    0.988 --     3 C    0.960
    19   1 H    0.992 --    10 C    0.977
    20   1 H    0.981 --    10 C    0.962
    21   1 H    0.982 --    10 C    0.963
    22   1 H    0.988 --    14 C    0.969
    23   1 H    0.988 --    14 C    0.970
    24   1 H    0.984 --    14 C    0.965
    25   1 H    0.950 --     4 N    0.923
 ---------------------------------------------------------------------------

molecular dipole:
                 x           y           z       tot (Debye)
 q only:        1.751      -0.655      -0.378
   full:        1.989      -0.846      -0.503       5.641

           -------------------------------------------------
          | TOTAL ENERGY              -42.184927396166 Eh   |
          | GRADIENT NORM               0.009456909703 Eh/α |
          | HOMO-LUMO GAP               1.128730493201 eV   |
           -------------------------------------------------

 * finished run on 2024/06/05 at 19:58:35.191
