   * xtb version 6.6.1 (8d0f1dd) compiled by 'conda@1efc2f54142f' on 2023-08-01
          program call               : xtb xtbopt.xyz --opt crude --input .xc2 --gfn2

   ID    Z sym.   atoms
    1    6 C      1, 3, 5-7, 10, 11, 14
    2    7 N      2, 4, 9, 13
    3    8 O      8, 12
    4    1 H      15-25

          :  Hamiltonian                  GFN2-xTB          :
 * total energy  :   -42.1029172 Eh     change       -0.9222845E-11 Eh
   *** GEOMETRY OPTIMIZATION CONVERGED AFTER 1 ITERATIONS ***

 final structure:
================
25
 xtb: 6.6.1 (8d0f1dd)
C            3.29847048665888        1.29176456908200        0.04792799748337
N            2.38304602460181        0.18152936524720        0.03697032989619
C            2.70025623283001       -1.10854045603173        0.05023282845725
N            1.58003462083226       -1.86086254691053        0.04291249355207
C            0.50183932790739       -1.01028342188801        0.02299722053299
C            1.01297222361691        0.28272435733982        0.01941074889386
C            0.16218586351259        1.45146924519591       -0.00626454161384
O            0.53704150987081        2.60230730551743       -0.00940751790632
N           -1.18969437071667        1.09098125498431       -0.02974301169774
C           -2.16589754803059        2.17548959048327       -0.07161655302471
C           -1.73838156573924       -0.16154857256799       -0.03128959955698
O           -2.91587941427592       -0.37714070496090       -0.06690104907255
N           -0.82105394178662       -1.29467688308850        0.01194410640268
C           -1.35216022996126       -2.52701256280577        0.03353477289895
H            3.88883207606194        1.28591453904387        0.96453104846495
H            3.97433707483975        1.23385249961492       -0.80504735924292
H            2.72538873990556        2.21708883343107       -0.00416462228936
H            3.69821598032770       -1.50099855529794        0.06333219013226
H           -1.62205620883635        3.11671700635002       -0.06359675462929
H           -2.76831195890102        2.09453595869005       -0.97533911282491
H           -2.82547905736347        2.11190588335505        0.79241136122375
H           -0.72316415907745       -3.39508146414894        0.04325159868873
H           -2.42290695860781       -2.60369970367602        0.02365529804091
H           -4.31573262654378       -4.60808627151845       -0.10514227765269
H            1.55852939297492       -2.87011072384008        0.04657202274323

          :  Hamiltonian                  GFN2-xTB          :
         :: total energy             -42.102917165568 Eh    ::
         :: gradient norm              0.002339254972 Eh/a0 ::
         :: HOMO-LUMO gap              0.030604087056 eV    ::
         :: SCC energy               -42.625657767505 Eh    ::
         :: -> dispersion             -0.022549242150 Eh    ::
         :: repulsion energy           0.522670289491 Eh    ::

    * Orbital Energies and Occupations

         #    Occupation            Energy/Eh            Energy/eV
      -------------------------------------------------------------
         1        2.0000           -0.9159367             -24.9239
       ...           ...                  ...                  ...
        25        2.0000           -0.6679656             -18.1763
        26        2.0000           -0.6673983             -18.1608
        27        2.0000           -0.6588457             -17.9281
        28        1.9999           -0.6346986             -17.2710
        29        1.9998           -0.6313328             -17.1794
        30        1.9998           -0.6274852             -17.0747
        31        1.9997           -0.6188872             -16.8408
        32        1.9987           -0.5982711             -16.2798
        33        1.9976           -0.5882712             -16.0077
        34        1.9969           -0.5840183             -15.8919
        35        1.9884           -0.5629445             -15.3185
        36        1.9878           -0.5621294             -15.2963
        37        0.9760           -0.4807846             -13.0828 (HOMO)
        38        0.9405           -0.4796599             -13.0522 (LUMO)
        39        0.1024           -0.4353204             -11.8457
        40        0.0105           -0.3985475             -10.8450
        41        0.0020           -0.3725004             -10.1363
        42        0.0000           -0.2875148              -7.8237
        43                         -0.2122218              -5.7748
        44                         -0.2000470              -5.4436
        45                         -0.1500207              -4.0823
        46                         -0.1335664              -3.6345
        47                         -0.0667334              -1.8159
        48                         -0.0391871              -1.0663
       ...                                ...                  ...
        67                          0.5555184              15.1164
      -------------------------------------------------------------
                  HL-Gap            0.0011247 Eh            0.0306 eV

     #   Z          covCN         q      C6AA      α(0)
     1   6 C        3.691    -0.097    22.538     6.793
     2   7 N        2.831     0.084    19.778     6.605
     3   6 C        3.051     0.053    26.754     8.483
     4   7 N        2.789    -0.057    22.347     7.021
     5   6 C        3.038     0.092    25.914     8.350
     6   6 C        3.113    -0.017    28.265     8.709
     7   6 C        2.763     0.266    22.505     7.769
     8   8 O        0.858    -0.367    21.040     6.150
     9   7 N        2.744    -0.079    22.767     7.087
    10   6 C        3.713    -0.064    21.862     6.681
    11   6 C        2.734     0.310    21.729     7.632
    12   8 O        0.859    -0.340    20.517     6.073
    13   7 N        2.735     0.009    21.107     6.823
    14   6 C        2.797    -0.060    29.478     8.894
    15   1 H        0.924     0.109     1.709     2.045
    16   1 H        0.925     0.108     1.717     2.049
    17   1 H        0.925     0.139     1.465     1.893
    18   1 H        0.926     0.127     1.557     1.952
    19   1 H        0.925     0.116     1.646     2.006
    20   1 H        0.925     0.098     1.803     2.100
    21   1 H        0.925     0.098     1.800     2.098
    22   1 H        0.926     0.086     1.918     2.166
    23   1 H        0.926     0.131     1.529     1.934
    24   1 H        0.000     0.024     6.646     4.714
    25   1 H        0.860     0.229     0.970     1.543

Wiberg/Mayer (AO) data.
largest (>0.10) Wiberg bond orders for each atom

     #   Z sym  total        # sym  WBO       # sym  WBO       # sym  WBO
 ---------------------------------------------------------------------------
     1   6 C    3.912 --     2 N    0.984    16 H    0.960    17 H    0.959
                            15 H    0.958
     2   7 N    3.670 --     3 C    1.384     6 C    1.165     1 C    0.984
     3   6 C    3.839 --     2 N    1.384     4 N    1.287    18 H    0.952
     4   7 N    3.552 --     3 C    1.287     5 C    1.165    25 H    0.918
     5   6 C    3.885 --     6 C    1.337    13 N    1.166     4 N    1.165
     6   6 C    3.857 --     5 C    1.337     2 N    1.165     7 C    1.076
     7   6 C    3.916 --     8 O    1.672     9 N    1.081     6 C    1.076
     8   8 O    1.985 --     7 C    1.672     9 N    0.138
     9   7 N    3.569 --    11 C    1.170     7 C    1.081    10 C    0.963
                            12 O    0.151     8 O    0.138
    10   6 C    3.912 --    19 H    0.968    21 H    0.966    20 H    0.966
                             9 N    0.963
    11   6 C    3.924 --    12 O    1.724     9 N    1.170    13 N    0.934
    12   8 O    2.052 --    11 C    1.724     9 N    0.151
    13   7 N    3.623 --    14 C    1.298     5 C    1.166    11 C    0.934
    14   6 C    3.337 --    13 N    1.298    22 H    0.970    23 H    0.958
    15   1 H    0.985 --     1 C    0.958
    16   1 H    0.985 --     1 C    0.960
    17   1 H    0.980 --     1 C    0.959
    18   1 H    0.983 --     3 C    0.952
    19   1 H    0.985 --    10 C    0.968
    20   1 H    0.987 --    10 C    0.966
    21   1 H    0.987 --    10 C    0.966
    22   1 H    0.992 --    14 C    0.970
    23   1 H    0.982 --    14 C    0.958
    24   1 H    0.002
    25   1 H    0.947 --     4 N    0.918
 ---------------------------------------------------------------------------

molecular dipole:
                 x           y           z       tot (Debye)
 q only:        2.653      -1.837       0.067
   full:        2.942      -2.415       0.076       9.676

           -------------------------------------------------
          | TOTAL ENERGY              -42.102917165568 Eh   |
          | GRADIENT NORM               0.002339254972 Eh/α |
          | HOMO-LUMO GAP               0.030604087056 eV   |
           -------------------------------------------------

 * finished run on 2024/06/05 at 20:00:20.226
