   * xtb version 6.6.1 (8d0f1dd) compiled by 'conda@1efc2f54142f' on 2023-08-01
          program call               : xtb struc.xyz --opt loose --input .xc1 --gfn2

   ID    Z sym.   atoms
    1    6 C      1, 3, 5-7, 10, 11, 14
    2    7 N      2, 4, 9, 13
    3    8 O      8, 12
    4    1 H      15-25
constraining bond 3 6 to    5.0000000 Å, actual value:    2.1783507 Å

          :  Hamiltonian                  GFN2-xTB          :
 * total energy  :    14.6156603 Eh     change       -0.6650680E-10 Eh
 * total energy  :    -9.3595631 Eh     change       -0.2397522E+02 Eh
 * total energy  :   -23.7461255 Eh     change       -0.1438656E+02 Eh
 * total energy  :   -32.8039343 Eh     change       -0.9057809E+01 Eh
 * total energy  :   -38.9376792 Eh     change       -0.6133745E+01 Eh
 * total energy  :   -41.0229965 Eh     change       -0.2085317E+01 Eh
 * total energy  :   -41.3174797 Eh     change       -0.2944831E+00 Eh
 * total energy  :   -41.4565153 Eh     change       -0.1390357E+00 Eh
 * total energy  :   -41.5275428 Eh     change       -0.7102744E-01 Eh
 * total energy  :   -41.5659177 Eh     change       -0.3837488E-01 Eh
 * total energy  :   -41.9746620 Eh     change       -0.7583449E-03 Eh
 * total energy  :   -41.9751468 Eh     change       -0.4847275E-03 Eh
 * total energy  :   -41.9754270 Eh     change       -0.2802249E-03 Eh
 * total energy  :   -41.9757790 Eh     change       -0.3519694E-03 Eh
 * total energy  :   -41.9758681 Eh     change       -0.8912343E-04 Eh
 * total energy  :   -41.9759558 Eh     change       -0.8774118E-04 Eh
 * total energy  :   -41.9760013 Eh     change       -0.4543495E-04 Eh
 * total energy  :   -41.9760447 Eh     change       -0.4344067E-04 Eh
 * total energy  :   -41.9760646 Eh     change       -0.1988911E-04 Eh
   *** GEOMETRY OPTIMIZATION CONVERGED AFTER 64 ITERATIONS ***

 final structure:
================
25
 xtb: 6.6.1 (8d0f1dd)
C            3.23128838607336        0.94042583833466        0.01183111486081
N            1.82414072094170        0.68698588567434       -0.00053307941400
C            3.09641635303748       -2.67834245040542        0.01674021678574
N            1.31965359170425       -0.58438421756187        0.00664018966202
C           -0.01140607835816       -0.46480100900179        0.00175120661943
C           -0.39971714651425        0.89505767399794       -0.00664313485256
C            0.82562295591562        1.67745120287336       -0.00724085073209
O            1.04389366204645        2.86539844578424       -0.01307566693038
N           -1.74675639310114        0.94949657787234       -0.00929462938759
C           -2.59544079500676        2.10425627500381       -0.01576145173685
C           -2.23375131447374       -0.37178528970229       -0.00409599107134
O           -3.38112815507601       -0.70520267734383       -0.00454121891946
N           -1.11665130213274       -1.23517467631778        0.00250930470794
C           -1.22992421289287       -2.67005393541277        0.00861187490621
H            3.69061218897600        0.53345530881423        0.91529149421742
H            3.71216244480199        0.49933110383260       -0.86394995699395
H            3.36730917299778        2.02124395313046       -0.00704260398719
H            4.02848927679663       -3.25883071580395        0.00950023191272
H           -1.98004142564932        3.00134460726412       -0.01194972067296
H           -3.23552877970294        2.09045084472192       -0.90120639917148
H           -3.24769094174982        2.09051205708382        0.86088422838960
H           -0.75246927856606       -3.08644886868163        0.89627033904451
H           -0.76488834198174       -3.09310828596835       -0.88258976606129
H           -2.29094561499007       -2.91742175478096        0.01652630841737
H            2.00718254100318       -1.47161735180688        0.01253957830774

          :  Hamiltonian                  GFN2-xTB          :
         :: total energy             -41.976064588982 Eh    ::
         :: gradient norm              0.002438139584 Eh/a0 ::
         :: HOMO-LUMO gap              0.486788189926 eV    ::
         :: SCC energy               -42.448249518042 Eh    ::
         :: -> dispersion             -0.021381821968 Eh    ::
         :: repulsion energy           0.472111214463 Eh    ::

    * Orbital Energies and Occupations

         #    Occupation            Energy/Eh            Energy/eV
      -------------------------------------------------------------
         1        2.0000           -0.9090097             -24.7354
       ...           ...                  ...                  ...
        25        1.9999           -0.6757753             -18.3888
        26        1.9998           -0.6687952             -18.1988
        27        1.9995           -0.6550440             -17.8247
        28        1.9985           -0.6373688             -17.3437
        29        1.9979           -0.6323738             -17.2078
        30        1.9976           -0.6303851             -17.1537
        31        1.9959           -0.6220224             -16.9261
        32        1.9840           -0.6003017             -16.3350
        33        1.9826           -0.5989451             -16.2981
        34        1.9672           -0.5887537             -16.0208
        35        1.9197           -0.5741813             -15.6243
        36        1.7385           -0.5539218             -15.0730
        37        1.1816           -0.5297415             -14.4150 (HOMO)
        38        0.6362           -0.5118524             -13.9282 (LUMO)
        39        0.6008           -0.5105401             -13.8925
        40        0.0007           -0.3984514             -10.8424
        41        0.0001           -0.3604467              -9.8083
        42        0.0000           -0.3240737              -8.8185
        43                         -0.2483723              -6.7586
        44                         -0.2041152              -5.5543
        45                         -0.1800364              -4.8990
        46                         -0.1388105              -3.7772
        47                         -0.1048497              -2.8531
        48                         -0.0528797              -1.4389
       ...                                ...                  ...
        67                          0.5680210              15.4566
      -------------------------------------------------------------
                  HL-Gap            0.0178891 Eh            0.4868 eV

     #   Z          covCN         q      C6AA      α(0)
     1   6 C        3.687    -0.083    22.294     6.759
     2   7 N        2.956     0.028    20.744     6.765
     3   6 C        0.988    -0.180    41.964    10.884
     4   7 N        2.789    -0.065    22.498     7.045
     5   6 C        3.128     0.104    25.506     8.269
     6   6 C        3.119    -0.000    27.863     8.645
     7   6 C        2.822     0.254    22.744     7.814
     8   8 O        0.857    -0.318    20.108     6.012
     9   7 N        2.795     0.004    21.193     6.837
    10   6 C        3.689    -0.070    22.033     6.718
    11   6 C        2.906     0.308    21.777     7.652
    12   8 O        0.857    -0.313    20.013     5.998
    13   7 N        2.790    -0.037    21.953     6.959
    14   6 C        3.688    -0.072    22.081     6.726
    15   1 H        0.924     0.104     1.746     2.066
    16   1 H        0.924     0.104     1.748     2.068
    17   1 H        0.925     0.132     1.521     1.928
    18   1 H        0.923     0.155     1.361     1.825
    19   1 H        0.925     0.115     1.652     2.010
    20   1 H        0.924     0.119     1.619     1.990
    21   1 H        0.924     0.119     1.619     1.990
    22   1 H        0.924     0.099     1.795     2.095
    23   1 H        0.924     0.099     1.794     2.094
    24   1 H        0.925     0.122     1.596     1.975
    25   1 H        0.904     0.270     0.805     1.404

Wiberg/Mayer (AO) data.
largest (>0.10) Wiberg bond orders for each atom

     #   Z sym  total        # sym  WBO       # sym  WBO       # sym  WBO
 ---------------------------------------------------------------------------
     1   6 C    3.907 --     2 N    1.003    17 H    0.959    16 H    0.951
                            15 H    0.951
     2   7 N    3.409 --     4 N    1.088     7 C    1.080     1 C    1.003
                             8 O    0.120
     3   6 C    1.242 --    18 H    0.935    25 H    0.218
     4   7 N    3.331 --     5 C    1.288     2 N    1.088    25 H    0.675
     5   6 C    3.888 --     4 N    1.288    13 N    1.215     6 C    1.209
     6   6 C    3.732 --     9 N    1.237     5 C    1.209     7 C    1.069
     7   6 C    3.912 --     8 O    1.663     2 N    1.080     6 C    1.069
     8   8 O    1.883 --     7 C    1.663     2 N    0.120
     9   7 N    3.481 --     6 C    1.237    11 C    1.055    10 C    0.998
    10   6 C    3.899 --     9 N    0.998    19 H    0.970    21 H    0.943
                            20 H    0.942
    11   6 C    3.921 --    12 O    1.718     9 N    1.055    13 N    1.052
    12   8 O    1.975 --    11 C    1.718    13 N    0.113
    13   7 N    3.515 --     5 C    1.215    11 C    1.052    14 C    0.985
                            12 O    0.113
    14   6 C    3.911 --    13 N    0.985    24 H    0.966    22 H    0.960
                            23 H    0.959
    15   1 H    0.968 --     1 C    0.951
    16   1 H    0.969 --     1 C    0.951
    17   1 H    0.980 --     1 C    0.959
    18   1 H    0.957 --     3 C    0.935
    19   1 H    0.984 --    10 C    0.970
    20   1 H    0.963 --    10 C    0.942
    21   1 H    0.963 --    10 C    0.943
    22   1 H    0.978 --    14 C    0.960
    23   1 H    0.978 --    14 C    0.959
    24   1 H    0.983 --    14 C    0.966
    25   1 H    0.925 --     4 N    0.675     3 C    0.218
 ---------------------------------------------------------------------------

molecular dipole:
                 x           y           z       tot (Debye)
 q only:        1.202      -0.986       0.010
   full:        1.640      -1.377       0.010       5.443

           -------------------------------------------------
          | TOTAL ENERGY              -41.976064588982 Eh   |
          | GRADIENT NORM               0.002438139584 Eh/α |
          | HOMO-LUMO GAP               0.486788189926 eV   |
           -------------------------------------------------

 * finished run on 2024/06/05 at 20:00:09.285
