   * xtb version 6.6.1 (8d0f1dd) compiled by 'conda@1efc2f54142f' on 2023-08-01
          program call               : xtb struc.xyz --opt loose --input .xc1 --gfn2

   ID    Z sym.   atoms
    1    6 C      1, 3, 5-7, 10, 11, 14
    2    7 N      2, 4, 9, 13
    3    8 O      8, 12
    4    1 H      15-25
constraining bond 20 21 to    3.2800000 Å, actual value:    1.7685310 Å

          :  Hamiltonian                  GFN2-xTB          :
 * total energy  :   -25.9313916 Eh     change       -0.6650680E-10 Eh
 * total energy  :   -36.7824033 Eh     change       -0.1085101E+02 Eh
 * total energy  :   -41.0686811 Eh     change       -0.4286278E+01 Eh
 * total energy  :   -42.0289517 Eh     change       -0.9602706E+00 Eh
 * total energy  :   -42.0590297 Eh     change       -0.3007804E-01 Eh
 * total energy  :   -42.0592673 Eh     change       -0.2375695E-03 Eh
 * total energy  :   -42.0605570 Eh     change       -0.1289690E-02 Eh
 * total energy  :   -42.0607406 Eh     change       -0.1836403E-03 Eh
 * total energy  :   -42.0612150 Eh     change       -0.4743333E-03 Eh
 * total energy  :   -42.0617957 Eh     change       -0.5807125E-03 Eh
 * total energy  :   -42.1872469 Eh     change       -0.4312796E-03 Eh
 * total energy  :   -42.1873044 Eh     change       -0.5752778E-04 Eh
 * total energy  :   -42.1875370 Eh     change       -0.2325985E-03 Eh
 * total energy  :   -42.1876571 Eh     change       -0.1201427E-03 Eh
 * total energy  :   -42.1879146 Eh     change       -0.2575047E-03 Eh
 * total energy  :   -42.1880334 Eh     change       -0.1187330E-03 Eh
 * total energy  :   -42.1881260 Eh     change       -0.9268228E-04 Eh
 * total energy  :   -42.1881381 Eh     change       -0.1206702E-04 Eh
 * total energy  :   -42.1881852 Eh     change       -0.4712055E-04 Eh
   *** GEOMETRY OPTIMIZATION CONVERGED AFTER 103 ITERATIONS ***

 final structure:
================
25
 xtb: 6.6.1 (8d0f1dd)
C            3.09493250028661        1.20640568631522       -0.24288035814756
N            2.17079675798645        0.10736314996268       -0.18897931263886
C            2.49217859960645       -1.19887294101346       -0.13690001339980
N            1.36599198917109       -1.93919070063423       -0.00822618520591
C            0.30274878031734       -1.09408156862209        0.02978419504281
C            0.79932293660958        0.20987838187954       -0.08398731993912
C           -0.08093867913568        1.28536064433183       -0.08357424539082
O            0.30297712528353        2.55781423506077       -0.29928594452299
N           -1.41601313242296        1.01438937509637        0.13044892726463
C           -2.31332716783644        2.00552666780735        0.25361273818220
C           -1.94165080900705       -0.32374951012416        0.18132842909319
O           -3.12306097280078       -0.51043193612438        0.27897954027188
N           -1.02582751544052       -1.35856103475155        0.11928906566948
C           -1.51091837958505       -2.72496257124324        0.18754500540460
H            3.38155117212097        1.51137393576025        0.76599791161575
H            3.98776934661689        0.91290307635491       -0.79052087740336
H            2.62118024743117        2.05241086101530       -0.73534026921699
H            3.48384680320830       -1.59365488401925       -0.19727811646161
H           -2.01064622151469        3.01416382668819        0.45091975943523
H           -0.47674652523502        3.07704824499497       -0.56039370060915
H           -3.34394094921510        1.73942215071822        0.30770703128209
H           -1.16443877658983       -3.20800374077194        1.10164282752402
H           -1.17503083947607       -3.28560389816259       -0.68455503059477
H           -2.59900148793823       -2.69257698064781        0.19460275109184
H            1.33867671159771       -2.94613192830367        0.04123480955175

          :  Hamiltonian                  GFN2-xTB          :
         :: total energy             -42.188185236193 Eh    ::
         :: gradient norm              0.003208792892 Eh/a0 ::
         :: HOMO-LUMO gap              1.464665335674 eV    ::
         :: SCC energy               -42.710647340313 Eh    ::
         :: -> dispersion             -0.022972416322 Eh    ::
         :: repulsion energy           0.522337999362 Eh    ::

    * Orbital Energies and Occupations

         #    Occupation            Energy/Eh            Energy/eV
      -------------------------------------------------------------
         1        2.0000           -0.8909268             -24.2434
       ...           ...                  ...                  ...
        25        2.0000           -0.6673764             -18.1602
        26        2.0000           -0.6601660             -17.9640
        27        2.0000           -0.6582915             -17.9130
        28        2.0000           -0.6442726             -17.5316
        29        2.0000           -0.6259936             -17.0342
        30        2.0000           -0.6226135             -16.9422
        31        2.0000           -0.6176028             -16.8058
        32        1.9999           -0.6113159             -16.6348
        33        1.9999           -0.6048141             -16.4578
        34        1.9999           -0.6022139             -16.3871
        35        1.9992           -0.5713923             -15.5484
        36        1.9971           -0.5520204             -15.0212
        37        1.6639           -0.4736110             -12.8876 (HOMO)
        38        0.2837           -0.4197855             -11.4229 (LUMO)
        39        0.0451           -0.3885995             -10.5743
        40        0.0114           -0.3665647              -9.9747
        41        0.0001           -0.2829834              -7.7004
        42        0.0000           -0.1964868              -5.3467
        43        0.0000           -0.1821820              -4.9574
        44                         -0.1429194              -3.8890
        45                         -0.1233438              -3.3564
        46                         -0.0981553              -2.6709
        47                         -0.0650108              -1.7690
        48                         -0.0414960              -1.1292
       ...                                ...                  ...
        67                          0.5357812              14.5793
      -------------------------------------------------------------
                  HL-Gap            0.0538255 Eh            1.4647 eV

     #   Z          covCN         q      C6AA      α(0)
     1   6 C        3.691    -0.086    22.331     6.763
     2   7 N        2.822     0.050    20.361     6.702
     3   6 C        3.034     0.031    27.279     8.567
     4   7 N        2.779    -0.058    22.351     7.022
     5   6 C        3.044     0.084    26.096     8.379
     6   6 C        3.087     0.001    27.904     8.659
     7   6 C        2.789     0.149    24.743     8.148
     8   8 O        1.658    -0.365    20.176     6.064
     9   7 N        2.741    -0.012    21.483     6.884
    10   6 C        2.815    -0.087    30.155     8.997
    11   6 C        2.738     0.303    21.851     7.654
    12   8 O        0.859    -0.360    20.889     6.128
    13   7 N        2.736    -0.051    22.231     7.003
    14   6 C        3.700    -0.072    22.042     6.714
    15   1 H        0.924     0.100     1.783     2.088
    16   1 H        0.925     0.097     1.815     2.107
    17   1 H        0.925     0.116     1.649     2.008
    18   1 H        0.927     0.113     1.674     2.023
    19   1 H        0.926     0.081     1.970     2.195
    20   1 H        0.804     0.342     0.608     1.224
    21   1 H        0.927     0.111     1.689     2.032
    22   1 H        0.924     0.083     1.948     2.183
    23   1 H        0.925     0.081     1.964     2.192
    24   1 H        0.925     0.124     1.580     1.966
    25   1 H        0.860     0.223     0.998     1.565

Wiberg/Mayer (AO) data.
largest (>0.10) Wiberg bond orders for each atom

     #   Z sym  total        # sym  WBO       # sym  WBO       # sym  WBO
 ---------------------------------------------------------------------------
     1   6 C    3.930 --     2 N    0.992    16 H    0.972    17 H    0.967
                            15 H    0.958
     2   7 N    3.591 --     3 C    1.301     6 C    1.132     1 C    0.992
     3   6 C    3.722 --     2 N    1.301     4 N    1.259    18 H    0.957
     4   7 N    3.564 --     3 C    1.259     5 C    1.199    25 H    0.922
     5   6 C    3.867 --     6 C    1.267     4 N    1.199    13 N    1.160
     6   6 C    3.939 --     7 C    1.280     5 C    1.267     2 N    1.132
     7   6 C    3.750 --     6 C    1.280     9 N    1.131     8 O    1.097
                            10 C    0.131
     8   8 O    2.098 --     7 C    1.097    20 H    0.839
     9   7 N    3.635 --    10 C    1.304     7 C    1.131    11 C    0.984
    10   6 C    3.537 --     9 N    1.304    21 H    0.964    19 H    0.960
                             7 C    0.131
    11   6 C    3.908 --    12 O    1.700    13 N    1.115     9 N    0.984
    12   8 O    2.033 --    11 C    1.700    13 N    0.146
    13   7 N    3.541 --     5 C    1.160    11 C    1.115    14 C    0.972
                            12 O    0.146
    14   6 C    3.927 --    23 H    0.972    13 N    0.972    22 H    0.971
                            24 H    0.966
    15   1 H    0.982 --     1 C    0.958
    16   1 H    0.988 --     1 C    0.972
    17   1 H    0.985 --     1 C    0.967
    18   1 H    0.986 --     3 C    0.957
    19   1 H    0.992 --    10 C    0.960
    20   1 H    0.881 --     8 O    0.839
    21   1 H    0.987 --    10 C    0.964
    22   1 H    0.990 --    14 C    0.971
    23   1 H    0.991 --    14 C    0.972
    24   1 H    0.984 --    14 C    0.966
    25   1 H    0.950 --     4 N    0.922
 ---------------------------------------------------------------------------

molecular dipole:
                 x           y           z       tot (Debye)
 q only:        2.201      -0.809      -0.266
   full:        2.320      -0.967      -0.267       6.424

           -------------------------------------------------
          | TOTAL ENERGY              -42.188185236193 Eh   |
          | GRADIENT NORM               0.003208792892 Eh/α |
          | HOMO-LUMO GAP               1.464665335674 eV   |
           -------------------------------------------------

 * finished run on 2024/06/05 at 20:00:22.038
