   * xtb version 6.6.1 (8d0f1dd) compiled by 'conda@1efc2f54142f' on 2023-08-01
          program call               : xtb xtbopt.xyz --opt crude --input .xc2 --gfn2

   ID    Z sym.   atoms
    1    6 C      1, 3, 5-7, 10, 11, 14
    2    7 N      2, 4, 9, 13
    3    8 O      8, 12
    4    1 H      15-25

          :  Hamiltonian                  GFN2-xTB          :
 * total energy  :   -42.1450701 Eh     change        0.6394885E-13 Eh
 * total energy  :   -42.1437358 Eh     change        0.1334314E-02 Eh
 * total energy  :   -42.1451512 Eh     change       -0.1415419E-02 Eh
 * total energy  :   -42.1451253 Eh     change        0.2594169E-04 Eh
 * total energy  :   -42.1452505 Eh     change       -0.1251729E-03 Eh
   *** GEOMETRY OPTIMIZATION CONVERGED AFTER 5 ITERATIONS ***

 final structure:
================
25
 xtb: 6.6.1 (8d0f1dd)
C            3.75770195974695        0.88557986796816        0.04829047326176
N            2.78797408225634       -0.17227452468563        0.00952417303265
C            3.02206311419562       -1.46743147401619       -0.07723765142069
N            1.88134376866143       -2.16457701710637       -0.06377469087086
C            0.77129973580397       -1.29225090803656        0.03645651019684
C            1.39987267980613        0.03361380963145        0.09275132717326
C            0.76919275892277        1.19343497681321        0.21022517796414
O            0.12504336855388        2.15148169573363        0.29743089651368
N           -3.22832356023089        1.52679011679654       -0.25550989795030
C           -3.36304540196897        2.92063230193788       -0.14754171692049
C           -3.49017571999182        0.41521397368129        0.06369505854374
O           -3.60757028037142       -0.72415530880134        0.23844656589130
N           -0.45796985906794       -1.53530039893545        0.06681668649387
C           -1.08188486302003       -2.81422833289841        0.01810573956193
H            3.83056634237292        1.30078288064356        1.05597869407767
H            4.73187019333032        0.50212286203154       -0.24818206638564
H            3.46386961379861        1.68358072720954       -0.63440907776622
H            4.00236018809222       -1.90115158801551       -0.15426769026264
H           -2.36567344639341        3.35704817392176       -0.06357509308359
H           -3.84118404658874        3.30481711138847       -1.05102631984081
H           -3.95803275275673        3.20275336874091        0.72369285186584
H           -0.62590564150487       -3.53602830613630        0.70216622635912
H           -1.04770550121269       -3.21770123147477       -0.99737267965048
H           -2.12590789723643       -2.66606898999873        0.29079630672107
H            1.81065267890400       -3.16844524479399       -0.13030818559592

          :  Hamiltonian                  GFN2-xTB          :
         :: total energy             -42.145250478837 Eh    ::
         :: gradient norm              0.002379882262 Eh/a0 ::
         :: HOMO-LUMO gap              2.258858457230 eV    ::
         :: SCC energy               -42.766733941247 Eh    ::
         :: -> dispersion             -0.018398284390 Eh    ::
         :: repulsion energy           0.621437832652 Eh    ::

    * Orbital Energies and Occupations

         #    Occupation            Energy/Eh            Energy/eV
      -------------------------------------------------------------
         1        2.0000           -0.9088606             -24.7314
       ...           ...                  ...                  ...
        25        2.0000           -0.6492652             -17.6674
        26        2.0000           -0.6425398             -17.4844
        27        2.0000           -0.6409006             -17.4398
        28        1.9999           -0.6396758             -17.4065
        29        1.9997           -0.6143982             -16.7186
        30        1.9997           -0.6127250             -16.6731
        31        1.9997           -0.6118575             -16.6495
        32        1.9994           -0.6014555             -16.3664
        33        1.9991           -0.5942577             -16.1706
        34        1.9372           -0.5272277             -14.3466
        35        1.9298           -0.5254024             -14.2969
        36        1.9144           -0.5221269             -14.2078
        37        1.8906           -0.5180502             -14.0969 (HOMO)
        38        0.1674           -0.4350387             -11.8380 (LUMO)
        39        0.1600           -0.4342552             -11.8167
        40        0.0031           -0.3703937             -10.0789
        41        0.0000           -0.2895447              -7.8789
        42        0.0000           -0.2880294              -7.8377
        43        0.0000           -0.2702142              -7.3529
        44                         -0.1797002              -4.8899
        45                         -0.1460143              -3.9733
        46                         -0.0864549              -2.3526
        47                         -0.0646077              -1.7581
        48                         -0.0498652              -1.3569
       ...                                ...                  ...
        67                          1.2469146              33.9303
      -------------------------------------------------------------
                  HL-Gap            0.0830115 Eh            2.2589 eV

     #   Z          covCN         q      C6AA      α(0)
     1   6 C        3.691    -0.084    22.290     6.756
     2   7 N        2.800     0.059    20.212     6.677
     3   6 C        2.958     0.079    26.245     8.403
     4   7 N        2.770    -0.091    23.023     7.126
     5   6 C        2.924     0.154    24.657     8.143
     6   6 C        3.040    -0.021    28.483     8.754
     7   6 C        1.844     0.250    25.376     8.138
     8   8 O        0.856    -0.129    16.946     5.519
     9   7 N        1.820    -0.142    24.857     7.387
    10   6 C        3.685    -0.033    21.365     6.618
    11   6 C        1.769     0.311    24.239     7.960
    12   8 O        0.856    -0.256    19.003     5.845
    13   7 N        1.824    -0.206    26.309     7.600
    14   6 C        3.698    -0.042    21.490     6.630
    15   1 H        0.924     0.102     1.767     2.079
    16   1 H        0.925     0.102     1.762     2.076
    17   1 H        0.924     0.100     1.785     2.089
    18   1 H        0.926     0.114     1.666     2.018
    19   1 H        0.924     0.094     1.838     2.120
    20   1 H        0.924     0.095     1.833     2.117
    21   1 H        0.924     0.084     1.942     2.179
    22   1 H        0.924     0.056     2.241     2.341
    23   1 H        0.924     0.075     2.032     2.229
    24   1 H        0.925     0.109     1.702     2.040
    25   1 H        0.860     0.219     1.014     1.577

Wiberg/Mayer (AO) data.
largest (>0.10) Wiberg bond orders for each atom

     #   Z sym  total        # sym  WBO       # sym  WBO       # sym  WBO
 ---------------------------------------------------------------------------
     1   6 C    3.934 --     2 N    0.993    16 H    0.973    17 H    0.967
                            15 H    0.960
     2   7 N    3.618 --     3 C    1.400     6 C    1.045     1 C    0.993
                             4 N    0.112
     3   6 C    3.838 --     2 N    1.400     4 N    1.318    18 H    0.949
     4   7 N    3.535 --     3 C    1.318     5 C    1.030    25 H    0.923
                             2 N    0.112    13 N    0.100
     5   6 C    3.926 --    13 N    1.714     6 C    1.034     4 N    1.030
     6   6 C    3.872 --     7 C    1.484     2 N    1.045     5 C    1.034
                             8 O    0.152
     7   6 C    3.694 --     8 O    2.068     6 C    1.484
     8   8 O    2.343 --     7 C    2.068     6 C    0.152
     9   7 N    3.360 --    11 C    1.985    10 C    1.026    12 O    0.349
    10   6 C    3.921 --     9 N    1.026    21 H    0.954    19 H    0.953
                            20 H    0.951
    11   6 C    3.937 --     9 N    1.985    12 O    1.882
    12   8 O    2.272 --    11 C    1.882     9 N    0.349
    13   7 N    3.023 --     5 C    1.714    14 C    1.031     4 N    0.100
    14   6 C    3.938 --    13 N    1.031    24 H    0.957    22 H    0.957
                            23 H    0.947
    15   1 H    0.986 --     1 C    0.960
    16   1 H    0.989 --     1 C    0.973
    17   1 H    0.988 --     1 C    0.967
    18   1 H    0.984 --     3 C    0.949
    19   1 H    0.976 --    10 C    0.953
    20   1 H    0.974 --    10 C    0.951
    21   1 H    0.978 --    10 C    0.954
    22   1 H    0.980 --    14 C    0.957
    23   1 H    0.978 --    14 C    0.947
    24   1 H    0.973 --    14 C    0.957
    25   1 H    0.950 --     4 N    0.923
 ---------------------------------------------------------------------------

molecular dipole:
                 x           y           z       tot (Debye)
 q only:        2.905      -0.260      -0.144
   full:        3.252      -0.638      -0.117       8.428

           -------------------------------------------------
          | TOTAL ENERGY              -42.145250478837 Eh   |
          | GRADIENT NORM               0.002379882262 Eh/α |
          | HOMO-LUMO GAP               2.258858457230 eV   |
           -------------------------------------------------

 * finished run on 2024/06/05 at 19:58:01.159
