   * xtb version 6.6.1 (8d0f1dd) compiled by 'conda@1efc2f54142f' on 2023-08-01
          program call               : xtb struc.xyz --opt loose --input .xc1 --gfn2

   ID    Z sym.   atoms
    1    6 C      1, 3, 5-7, 10, 11, 14
    2    7 N      2, 4, 9, 13
    3    8 O      8, 12
    4    1 H      15-25
constraining bond 6 18 to    3.7133300 Å, actual value:    3.2169490 Å

          :  Hamiltonian                  GFN2-xTB          :
 * total energy  :   -42.6999949 Eh     change       -0.2401990E-09 Eh
 * total energy  :   -44.5981046 Eh     change       -0.1898110E+01 Eh
 * total energy  :   -47.2190699 Eh     change       -0.2620965E+01 Eh
 * total energy  :   -50.3460207 Eh     change       -0.3126951E+01 Eh
 * total energy  :   -54.0463535 Eh     change       -0.3700333E+01 Eh
 * total energy  :   -57.1217641 Eh     change       -0.3075411E+01 Eh
 * total energy  :   -58.2378380 Eh     change       -0.1116074E+01 Eh
 * total energy  :   -58.9839041 Eh     change       -0.7460662E+00 Eh
 * total energy  :   -58.0149939 Eh     change        0.9689102E+00 Eh
 * total energy  :   -56.0792090 Eh     change        0.1935785E+01 Eh
 * total energy  :   -59.7260750 Eh     change       -0.5526039E-02 Eh
 * total energy  :   -59.7263076 Eh     change       -0.2326506E-03 Eh
 * total energy  :   -59.7268435 Eh     change       -0.5358522E-03 Eh
 * total energy  :   -59.7271200 Eh     change       -0.2764886E-03 Eh
 * total energy  :   -59.7273658 Eh     change       -0.2457699E-03 Eh
 * total energy  :   -59.7276481 Eh     change       -0.2823576E-03 Eh
 * total energy  :   -59.7277597 Eh     change       -0.1116084E-03 Eh
 * total energy  :   -59.7277770 Eh     change       -0.1727841E-04 Eh
 * total energy  :   -59.7277894 Eh     change       -0.1236293E-04 Eh
   *** GEOMETRY OPTIMIZATION CONVERGED AFTER 53 ITERATIONS ***

 final structure:
================
25
 xtb: 6.6.1 (8d0f1dd)
C            4.77494412428894        1.38327460332025        0.02761174551487
N            3.95098973747686        0.26662135221911        0.00005352514709
C            2.08513684533924       -1.09303396167955       -0.00066795092713
N            0.83457790674936       -1.51898361965939       -0.00158601013624
C           -0.34617365502484       -0.83981667442405       -0.00617595440087
C            2.62779559221338        0.22399692556004        0.04500768792060
C           -0.58056402251377        0.59716233782220       -0.01424228964814
O            0.21470401207633        1.51803729943265       -0.01515465568777
N           -1.96296255484599        0.72005772400919       -0.01972446157699
C           -2.66973329852262        1.97301524347920       -0.02849320340272
C           -2.58234286497869       -0.51174909487678       -0.01513393579174
O           -3.75751575394612       -0.75099930700400       -0.01551206434138
N           -1.55283370609444       -1.46662892214064       -0.00836502093793
C           -1.81721871601315       -2.87978854141222        0.00012309620685
H            5.43267432127433        1.31348074618827        0.90199923568754
H            5.42484151560834        1.36107340838756       -0.85467087656464
H            4.23328100090885        2.33898416019351        0.05657988617823
H            2.37859538394686        0.56615949979145        0.07219774155463
H           -1.93342029531413        2.77606477412397       -0.02575670783143
H           -3.29832421534267        2.04354393519525       -0.91852071631910
H           -3.31100214752392        2.04858853706978        0.85204890792286
H           -1.40338418048211       -3.35152649142072        0.89413128253457
H           -1.41539096332040       -3.36029981933381       -0.89483329392237
H           -2.90116232989684       -3.00299979312427        0.00758675834123
H            0.73491977803715       -2.53599578011633       -0.00733110761979

          :  Hamiltonian                  GFN2-xTB          :
         :: total energy             -59.727789368309 Eh    ::
         :: gradient norm              0.002979699352 Eh/a0 ::
         :: HOMO-LUMO gap              0.259695380609 eV    ::
         :: SCC energy               -42.667104594859 Eh    ::
         :: -> dispersion             -0.020111040692 Eh    ::
         :: repulsion energy           2.256337573288 Eh    ::

    * Orbital Energies and Occupations

         #    Occupation            Energy/Eh            Energy/eV
      -------------------------------------------------------------
         1        2.0000           -0.8925716             -24.2881
       ...           ...                  ...                  ...
        25        1.9984           -0.6722270             -18.2922
        26        1.9980           -0.6674459             -18.1621
        27        1.9951           -0.6459382             -17.5769
        28        1.9929           -0.6370350             -17.3346
        29        1.9911           -0.6316353             -17.1877
        30        1.9853           -0.6196222             -16.8608
        31        1.9824           -0.6152435             -16.7416
        32        1.9571           -0.5938219             -16.1587
        33        1.9544           -0.5923280             -16.1181
        34        1.9117           -0.5760933             -15.6763
        35        1.8894           -0.5704708             -15.5233
        36        1.7029           -0.5445323             -14.8175
        37        1.2438           -0.5148806             -14.0106 (HOMO)
        38        1.0479           -0.5053370             -13.7509 (LUMO)
        39        0.3454           -0.4658533             -12.6765
        40        0.0072           -0.3693981             -10.0518
        41        0.0027           -0.3457118              -9.4073
        42        0.0009           -0.3209038              -8.7322
        43        0.0000           -0.1868408              -5.0842
        44        0.0000           -0.1794171              -4.8822
        45        0.0000           -0.1163193              -3.1652
        46                         -0.0704170              -1.9161
        47                         -0.0513113              -1.3963
        48                         -0.0317745              -0.8646
       ...                                ...                  ...
        67                         10.7365690             292.1569
      -------------------------------------------------------------
                  HL-Gap            0.0095436 Eh            0.2597 eV

     #   Z          covCN         q      C6AA      α(0)
     1   6 C        3.690    -0.052    21.694     6.666
     2   7 N        1.875    -0.087    23.690     7.215
     3   6 C        1.946    -0.025    31.749     9.099
     4   7 N        2.684    -0.015    21.541     6.893
     5   6 C        2.940     0.064    26.574     8.455
     6   6 C        2.831     0.009    27.813     8.642
     7   6 C        2.841     0.253    22.765     7.819
     8   8 O        0.857    -0.359    20.887     6.127
     9   7 N        2.806    -0.071    22.620     7.064
    10   6 C        3.690    -0.056    21.784     6.680
    11   6 C        2.828     0.314    21.680     7.630
    12   8 O        0.857    -0.324    20.215     6.028
    13   7 N        2.793    -0.048    22.162     6.992
    14   6 C        3.689    -0.071    22.051     6.721
    15   1 H        0.924     0.130     1.538     1.939
    16   1 H        0.924     0.130     1.538     1.940
    17   1 H        0.923     0.105     1.740     2.063
    18   1 H        0.988     0.207     1.060     1.609
    19   1 H        0.925     0.117     1.637     2.001
    20   1 H        0.924     0.111     1.687     2.031
    21   1 H        0.924     0.111     1.687     2.031
    22   1 H        0.924     0.095     1.834     2.118
    23   1 H        0.924     0.095     1.831     2.116
    24   1 H        0.924     0.128     1.550     1.947
    25   1 H        0.860     0.241     0.921     1.503

Wiberg/Mayer (AO) data.
largest (>0.10) Wiberg bond orders for each atom

     #   Z sym  total        # sym  WBO       # sym  WBO       # sym  WBO
 ---------------------------------------------------------------------------
     1   6 C    3.881 --     2 N    1.112    17 H    0.915    16 H    0.906
                            15 H    0.904
     2   7 N    2.732 --     6 C    1.519     1 C    1.112
     3   6 C    2.751 --     4 N    1.340     6 C    1.247
     4   7 N    3.533 --     3 C    1.340     5 C    1.178    25 H    0.888
     5   6 C    3.643 --    13 N    1.206     4 N    1.178     7 C    1.067
     6   6 C    3.759 --     2 N    1.519     3 C    1.247    18 H    0.882
     7   6 C    3.876 --     8 O    1.618     9 N    1.098     5 C    1.067
     8   8 O    1.853 --     7 C    1.618     9 N    0.116
     9   7 N    3.480 --    11 C    1.106     7 C    1.098    10 C    0.988
                             8 O    0.116    12 O    0.110
    10   6 C    3.876 --     9 N    0.988    19 H    0.960    21 H    0.945
                            20 H    0.945
    11   6 C    3.907 --    12 O    1.684     9 N    1.106    13 N    1.039
    12   8 O    1.947 --    11 C    1.684     9 N    0.110
    13   7 N    3.455 --     5 C    1.206    11 C    1.039    14 C    0.990
    14   6 C    3.908 --    13 N    0.990    24 H    0.959    22 H    0.956
                            23 H    0.956
    15   1 H    0.937 --     1 C    0.904
    16   1 H    0.937 --     1 C    0.906
    17   1 H    0.920 --     1 C    0.915
    18   1 H    0.913 --     6 C    0.882
    19   1 H    0.974 --    10 C    0.960
    20   1 H    0.962 --    10 C    0.945
    21   1 H    0.962 --    10 C    0.945
    22   1 H    0.975 --    14 C    0.956
    23   1 H    0.974 --    14 C    0.956
    24   1 H    0.978 --    14 C    0.959
    25   1 H    0.922 --     4 N    0.888
 ---------------------------------------------------------------------------

molecular dipole:
                 x           y           z       tot (Debye)
 q only:        1.782      -0.832       0.037
   full:        1.595      -0.816       0.046       4.555

           -------------------------------------------------
          | TOTAL ENERGY              -59.727789368309 Eh   |
          | GRADIENT NORM               0.002979699352 Eh/α |
          | HOMO-LUMO GAP               0.259695380609 eV   |
           -------------------------------------------------

 * finished run on 2024/06/05 at 19:58:59.531
