   * xtb version 6.6.1 (8d0f1dd) compiled by 'conda@1efc2f54142f' on 2023-08-01
          program call               : xtb xtbopt.xyz --opt crude --input .xc2 --gfn2

   ID    Z sym.   atoms
    1    6 C      1, 3, 5-7, 10, 11, 14
    2    7 N      2, 4, 9, 13
    3    8 O      8, 12
    4    1 H      15-25
########################################################################
[WARNING] Please study the warnings concerning your input carefully
-1- readin_getIntValue: could not parse ''
########################################################################

          :  Hamiltonian                  GFN2-xTB          :
 * total energy  :   -40.4108117 Eh     change       -0.3694822E-12 Eh
 * total energy  :   -42.1239419 Eh     change       -0.1713130E+01 Eh
 * total energy  :   -42.1382152 Eh     change       -0.1427327E-01 Eh
 * total energy  :   -42.1410876 Eh     change       -0.2872466E-02 Eh
 * total energy  :   -42.1448830 Eh     change       -0.3795317E-02 Eh
 * total energy  :   -42.1454761 Eh     change       -0.5931311E-03 Eh
 * total energy  :   -42.1461712 Eh     change       -0.6950955E-03 Eh
 * total energy  :   -42.1465134 Eh     change       -0.3422067E-03 Eh
 * total energy  :   -42.1470619 Eh     change       -0.5485391E-03 Eh
 * total energy  :   -42.1472588 Eh     change       -0.1969101E-03 Eh
   *** GEOMETRY OPTIMIZATION CONVERGED AFTER 10 ITERATIONS ***

 final structure:
================
25
 xtb: 6.6.1 (8d0f1dd)
C            4.75353282313389        1.37650826194711        0.00856900658547
N            3.98850047120283        0.21464471007480       -0.00133563943837
C            2.09902849149822       -1.17542312782158        0.02523839678644
N            0.83572378811214       -1.55786011070262        0.02836082967472
C           -0.32794750599059       -0.84944752065985        0.01371576606883
C            2.72173096048840        0.05227984145751        0.03695335465805
C           -0.55654303340732        0.58368878231171        0.01298396687350
O            0.23613680504605        1.51441938975463        0.03691384844074
N           -1.93664907064592        0.71776013455885       -0.01630661720762
C           -2.63000723236943        1.97841987671369       -0.02759020364773
C           -2.56395381861397       -0.51050685937046       -0.02934589042985
O           -3.74009934051447       -0.74487140176528       -0.05185381477716
N           -1.53944895198825       -1.46860418319220       -0.01028414140028
C           -1.80839453990607       -2.88061740165869       -0.01264697755673
H            5.42628481283694        1.33884108912517        0.87209672439031
H            5.38897499795818        1.37829423761250       -0.88330795750184
H            4.16114457794504        2.29907756085972        0.04207414569548
H            2.05944443326930        0.94791632401094        0.08904005838955
H           -1.88476687201886        2.77289390888517       -0.01624277613005
H           -3.25016207668054        2.05809095456343       -0.92256260030986
H           -3.27777208001639        2.05939038695269        0.84756133496172
H           -1.41213962129944       -3.35797470103695        0.88655560048901
H           -1.39278754595284       -3.35902150515351       -0.90265148033280
H           -2.89254010957679       -2.99910605987994       -0.02462607245112
H            0.70314115158978       -2.57055404598639        0.02986275606993

          :  Hamiltonian                  GFN2-xTB          :
         :: total energy             -42.147258835008 Eh    ::
         :: gradient norm              0.006034992611 Eh/a0 ::
         :: HOMO-LUMO gap              0.325445930197 eV    ::
         :: SCC energy               -42.667572354427 Eh    ::
         :: -> dispersion             -0.020133311253 Eh    ::
         :: repulsion energy           0.520347282565 Eh    ::

    * Orbital Energies and Occupations

         #    Occupation            Energy/Eh            Energy/eV
      -------------------------------------------------------------
         1        2.0000           -0.8918938             -24.2697
       ...           ...                  ...                  ...
        25        1.9983           -0.6690452             -18.2056
        26        1.9981           -0.6666097             -18.1394
        27        1.9954           -0.6457668             -17.5722
        28        1.9933           -0.6368509             -17.3296
        29        1.9913           -0.6305945             -17.1593
        30        1.9860           -0.6192949             -16.8519
        31        1.9830           -0.6146714             -16.7261
        32        1.9579           -0.5927968             -16.1308
        33        1.9579           -0.5927598             -16.1298
        34        1.9231           -0.5780555             -15.7297
        35        1.8966           -0.5706936             -15.5294
        36        1.6842           -0.5413492             -14.7309
        37        1.2683           -0.5146585             -14.0046 (HOMO)
        38        1.0233           -0.5026985             -13.6791 (LUMO)
        39        0.3421           -0.4641070             -12.6290
        40        0.0047           -0.3579032              -9.7390
        41        0.0024           -0.3419620              -9.3053
        42        0.0007           -0.3111293              -8.4663
        43        0.0000           -0.1850851              -5.0364
        44        0.0000           -0.1793692              -4.8809
        45        0.0000           -0.1134514              -3.0872
        46                         -0.0705210              -1.9190
        47                         -0.0511834              -1.3928
        48                         -0.0282226              -0.7680
       ...                                ...                  ...
        67                          0.5492635              14.9462
      -------------------------------------------------------------
                  HL-Gap            0.0119599 Eh            0.3254 eV

     #   Z          covCN         q      C6AA      α(0)
     1   6 C        3.693    -0.054    21.733     6.670
     2   7 N        1.833    -0.065    23.233     7.143
     3   6 C        1.913    -0.013    31.439     9.055
     4   7 N        2.685    -0.017    21.577     6.899
     5   6 C        2.938     0.061    26.624     8.462
     6   6 C        2.825     0.057    26.708     8.468
     7   6 C        2.845     0.249    22.826     7.830
     8   8 O        0.857    -0.369    21.068     6.154
     9   7 N        2.807    -0.070    22.597     7.060
    10   6 C        3.690    -0.056    21.781     6.679
    11   6 C        2.827     0.313    21.692     7.632
    12   8 O        0.857    -0.325    20.243     6.032
    13   7 N        2.796    -0.050    22.197     6.997
    14   6 C        3.689    -0.071    22.050     6.721
    15   1 H        0.924     0.128     1.548     1.946
    16   1 H        0.924     0.128     1.549     1.947
    17   1 H        0.924     0.099     1.792     2.094
    18   1 H        0.921     0.159     1.332     1.805
    19   1 H        0.925     0.116     1.644     2.005
    20   1 H        0.924     0.110     1.694     2.035
    21   1 H        0.924     0.110     1.694     2.035
    22   1 H        0.924     0.094     1.842     2.122
    23   1 H        0.924     0.094     1.840     2.121
    24   1 H        0.924     0.128     1.549     1.946
    25   1 H        0.860     0.240     0.922     1.504

Wiberg/Mayer (AO) data.
largest (>0.10) Wiberg bond orders for each atom

     #   Z sym  total        # sym  WBO       # sym  WBO       # sym  WBO
 ---------------------------------------------------------------------------
     1   6 C    3.885 --     2 N    1.100    17 H    0.922    16 H    0.910
                            15 H    0.909
     2   7 N    2.799 --     6 C    1.602     1 C    1.100
     3   6 C    2.805 --     4 N    1.332     6 C    1.319
     4   7 N    3.525 --     3 C    1.332     5 C    1.176    25 H    0.889
     5   6 C    3.651 --    13 N    1.199     4 N    1.176     7 C    1.084
     6   6 C    3.814 --     2 N    1.602     3 C    1.319    18 H    0.778
     7   6 C    3.866 --     8 O    1.578     9 N    1.108     5 C    1.084
     8   8 O    1.861 --     7 C    1.578     9 N    0.112
     9   7 N    3.486 --     7 C    1.108    11 C    1.103    10 C    0.988
                             8 O    0.112    12 O    0.109
    10   6 C    3.878 --     9 N    0.988    19 H    0.960    20 H    0.946
                            21 H    0.946
    11   6 C    3.906 --    12 O    1.682     9 N    1.103    13 N    1.043
    12   8 O    1.943 --    11 C    1.682     9 N    0.109
    13   7 N    3.454 --     5 C    1.199    11 C    1.043    14 C    0.991
    14   6 C    3.910 --    13 N    0.991    24 H    0.959    22 H    0.957
                            23 H    0.956
    15   1 H    0.940 --     1 C    0.909
    16   1 H    0.940 --     1 C    0.910
    17   1 H    0.927 --     1 C    0.922
    18   1 H    0.831 --     6 C    0.778
    19   1 H    0.975 --    10 C    0.960
    20   1 H    0.963 --    10 C    0.946
    21   1 H    0.963 --    10 C    0.946
    22   1 H    0.975 --    14 C    0.957
    23   1 H    0.975 --    14 C    0.956
    24   1 H    0.978 --    14 C    0.959
    25   1 H    0.925 --     4 N    0.889
 ---------------------------------------------------------------------------

molecular dipole:
                 x           y           z       tot (Debye)
 q only:        1.846      -0.836       0.023
   full:        1.628      -0.807       0.032       4.619

           -------------------------------------------------
          | TOTAL ENERGY              -42.147258835008 Eh   |
          | GRADIENT NORM               0.006034992611 Eh/α |
          | HOMO-LUMO GAP               0.325445930197 eV   |
           -------------------------------------------------

 * finished run on 2024/06/05 at 19:58:59.978
