   * xtb version 6.6.1 (8d0f1dd) compiled by 'conda@1efc2f54142f' on 2023-08-01
          program call               : xtb struc.xyz --opt loose --input .xc1 --gfn2

   ID    Z sym.   atoms
    1    6 C      1, 3, 5-7, 10, 11, 14
    2    7 N      2, 4, 9, 13
    3    8 O      8, 12
    4    1 H      15-25
constraining bond 6 15 to    3.7133300 Å, actual value:    3.1327550 Å

          :  Hamiltonian                  GFN2-xTB          :
 * total energy  :   -42.8497032 Eh     change       -0.6650680E-10 Eh
 * total energy  :   -45.1668588 Eh     change       -0.2317156E+01 Eh
 * total energy  :   -49.1582328 Eh     change       -0.3991374E+01 Eh
 * total energy  :   -55.0332090 Eh     change       -0.5874976E+01 Eh
 * total energy  :   -56.6940510 Eh     change       -0.1660842E+01 Eh
 * total energy  :   -58.1383190 Eh     change       -0.1444268E+01 Eh
 * total energy  :   -58.7802384 Eh     change       -0.6419193E+00 Eh
 * total energy  :   -58.6844524 Eh     change        0.9578594E-01 Eh
 * total energy  :   -59.2712229 Eh     change       -0.5867705E+00 Eh
 * total energy  :   -59.3670958 Eh     change       -0.9587284E-01 Eh
 * total energy  :   -59.7513183 Eh     change       -0.1922129E-03 Eh
 * total energy  :   -59.7514690 Eh     change       -0.1506944E-03 Eh
 * total energy  :   -59.7515691 Eh     change       -0.1001282E-03 Eh
 * total energy  :   -59.7516440 Eh     change       -0.7482849E-04 Eh
 * total energy  :   -59.7517053 Eh     change       -0.6133512E-04 Eh
 * total energy  :   -59.7517452 Eh     change       -0.3993628E-04 Eh
 * total energy  :   -59.7517779 Eh     change       -0.3271031E-04 Eh
 * total energy  :   -59.7518004 Eh     change       -0.2245326E-04 Eh
 * total energy  :   -59.7518111 Eh     change       -0.1075751E-04 Eh
   *** GEOMETRY OPTIMIZATION CONVERGED AFTER 43 ITERATIONS ***

 final structure:
================
25
 xtb: 6.6.1 (8d0f1dd)
C            3.27856932840571        1.14078928182767        0.13438415646770
N            2.42248404698976        0.15287527453119        0.05824108826327
C            2.55504856903902       -1.05133801855731       -0.53548582926883
N            1.39095730417704       -1.75571426460012       -0.43597243838828
C            0.47125098179013       -1.06579091433828        0.25303895750207
C            1.07698775588246        0.24212882825222        0.71479256719747
C            0.17801193018626        1.32857662916947       -0.09792585458439
O            0.69215127038582        2.24150287964395       -0.67208737358469
N           -1.14139168130497        1.06723352182939        0.05302804646564
C           -2.09357144404510        2.11957969541695       -0.30517941452403
C           -1.72196215176258       -0.16376668013857        0.40044116032179
O           -2.88952874778326       -0.28041051985395        0.63376277587179
N           -0.85908738292186       -1.26966154157234        0.34513343770466
C           -1.43848224678019       -2.60078385496288        0.28209969928387
H            1.08045354717955        0.34909085112545        1.12543922816024
H            4.24280122525391        1.04352829740019       -0.32593651795850
H            3.00298427743976        2.04805596134316        0.63575848644879
H            3.43346856195444       -1.40077965276517       -1.03271578114137
H           -1.56013872172346        3.06425578258875       -0.36149649765804
H           -2.55599813875282        1.90106741909521       -1.26695987471233
H           -2.86712573785483        2.16144103471488        0.45962581722469
H           -0.93255758381977       -3.26087372125902        0.98518662029233
H           -1.37102242324702       -3.00739774804886       -0.72907279337500
H           -2.48870936323233       -2.51540755565350        0.55848627344585
H            1.25483833864422       -2.66996244358820       -0.84541432155302

          :  Hamiltonian                  GFN2-xTB          :
         :: total energy             -59.751811149451 Eh    ::
         :: gradient norm              0.003186982170 Eh/a0 ::
         :: HOMO-LUMO gap              1.611585931632 eV    ::
         :: SCC energy               -42.698526402914 Eh    ::
         :: -> dispersion             -0.023136823898 Eh    ::
         :: repulsion energy           2.261204305828 Eh    ::

    * Orbital Energies and Occupations

         #    Occupation            Energy/Eh            Energy/eV
      -------------------------------------------------------------
         1        2.0000           -0.9145208             -24.8854
       ...           ...                  ...                  ...
        25        2.0000           -0.6788038             -18.4712
        26        2.0000           -0.6732469             -18.3200
        27        2.0000           -0.6668265             -18.1453
        28        2.0000           -0.6634134             -18.0524
        29        1.9999           -0.6407285             -17.4351
        30        1.9998           -0.6331160             -17.2280
        31        1.9998           -0.6284013             -17.0997
        32        1.9994           -0.6109836             -16.6257
        33        1.9992           -0.6078262             -16.5398
        34        1.9973           -0.5881533             -16.0045
        35        1.9958           -0.5813036             -15.8181
        36        1.9927           -0.5724735             -15.5778
        37        1.7297           -0.5130113             -13.9597 (HOMO)
        38        0.2638           -0.4537866             -12.3482 (LUMO)
        39        0.0181           -0.4092510             -11.1363
        40        0.0042           -0.3861556             -10.5078
        41        0.0004           -0.3469258              -9.4403
        42        0.0000           -0.2403966              -6.5415
        43                         -0.2013579              -5.4792
        44                         -0.1973387              -5.3699
        45                         -0.1614554              -4.3934
        46                         -0.1330676              -3.6210
        47                         -0.0930513              -2.5321
        48                         -0.0634528              -1.7266
       ...                                ...                  ...
        67                         10.4496481             284.3494
      -------------------------------------------------------------
                  HL-Gap            0.0592247 Eh            1.6116 eV

     #   Z          covCN         q      C6AA      α(0)
     1   6 C        2.787    -0.067    29.655     8.920
     2   7 N        2.780     0.090    19.687     6.590
     3   6 C        2.913     0.001    28.006     8.678
     4   7 N        2.730    -0.050    22.203     6.998
     5   6 C        2.975     0.084    26.119     8.383
     6   6 C        3.837    -0.064    21.706     6.628
     7   6 C        2.756     0.268    22.482     7.764
     8   8 O        0.857    -0.319    20.123     6.014
     9   7 N        2.734    -0.087    22.939     7.113
    10   6 C        3.708    -0.062    21.832     6.679
    11   6 C        2.723     0.315    21.650     7.617
    12   8 O        0.859    -0.337    20.458     6.064
    13   7 N        2.734    -0.064    22.471     7.040
    14   6 C        3.697    -0.072    22.057     6.718
    15   1 H        0.940     0.190     1.150     1.676
    16   1 H        0.926     0.108     1.710     2.045
    17   1 H        0.926     0.117     1.634     1.999
    18   1 H        0.927     0.115     1.650     2.009
    19   1 H        0.925     0.104     1.749     2.068
    20   1 H        0.925     0.094     1.844     2.124
    21   1 H        0.925     0.111     1.691     2.034
    22   1 H        0.925     0.088     1.900     2.156
    23   1 H        0.924     0.082     1.964     2.191
    24   1 H        0.925     0.126     1.565     1.956
    25   1 H        0.860     0.229     0.970     1.543

Wiberg/Mayer (AO) data.
largest (>0.10) Wiberg bond orders for each atom

     #   Z sym  total        # sym  WBO       # sym  WBO       # sym  WBO
 ---------------------------------------------------------------------------
     1   6 C    3.672 --     2 N    1.435    17 H    0.965    16 H    0.962
                             3 C    0.162
     2   7 N    3.712 --     1 C    1.435     3 C    1.240     6 C    0.957
     3   6 C    3.709 --     2 N    1.240     4 N    1.194    18 H    0.954
                             1 C    0.162     5 C    0.103
     4   7 N    3.559 --     5 C    1.280     3 C    1.194    25 H    0.916
     5   6 C    3.765 --     4 N    1.280    13 N    1.206     6 C    1.012
                             3 C    0.103
     6   6 C    3.920 --     5 C    1.012     2 N    0.957    15 H    0.923
                             7 C    0.797
     7   6 C    3.907 --     8 O    1.778     9 N    1.209     6 C    0.797
     8   8 O    2.135 --     7 C    1.778     9 N    0.159
     9   7 N    3.551 --     7 C    1.209    11 C    1.052    10 C    0.951
                             8 O    0.159    12 O    0.109
    10   6 C    3.912 --    19 H    0.974    20 H    0.970    21 H    0.966
                             9 N    0.951
    11   6 C    3.916 --    12 O    1.725     9 N    1.052    13 N    1.049
    12   8 O    2.043 --    11 C    1.725    13 N    0.116     9 N    0.109
    13   7 N    3.509 --     5 C    1.206    11 C    1.049    14 C    0.966
                            12 O    0.116
    14   6 C    3.920 --    22 H    0.974    23 H    0.969    13 N    0.966
                            24 H    0.964
    15   1 H    0.960 --     6 C    0.923
    16   1 H    0.987 --     1 C    0.962
    17   1 H    0.986 --     1 C    0.965
    18   1 H    0.986 --     3 C    0.954
    19   1 H    0.988 --    10 C    0.974
    20   1 H    0.989 --    10 C    0.970
    21   1 H    0.986 --    10 C    0.966
    22   1 H    0.989 --    14 C    0.974
    23   1 H    0.989 --    14 C    0.969
    24   1 H    0.983 --    14 C    0.964
    25   1 H    0.948 --     4 N    0.916
 ---------------------------------------------------------------------------

molecular dipole:
                 x           y           z       tot (Debye)
 q only:        1.931      -1.548      -0.004
   full:        2.193      -1.865      -0.091       7.320

           -------------------------------------------------
          | TOTAL ENERGY              -59.751811149451 Eh   |
          | GRADIENT NORM               0.003186982170 Eh/α |
          | HOMO-LUMO GAP               1.611585931632 eV   |
           -------------------------------------------------

 * finished run on 2024/06/05 at 20:00:18.719
