   * xtb version 6.6.1 (8d0f1dd) compiled by 'conda@1efc2f54142f' on 2023-08-01
          program call               : xtb struc.xyz --opt loose --input .xc1 --gfn2

   ID    Z sym.   atoms
    1    6 C      1, 3, 5-7, 10, 11, 14
    2    7 N      2, 4, 9, 13
    3    8 O      8, 12
    4    1 H      15-25
constraining bond 7 10 to    5.0000000 Å, actual value:    2.4325910 Å

          :  Hamiltonian                  GFN2-xTB          :
 * total energy  :   -18.7088710 Eh     change       -0.6650680E-10 Eh
 * total energy  :   -28.6214046 Eh     change       -0.9912534E+01 Eh
 * total energy  :   -35.3709757 Eh     change       -0.6749571E+01 Eh
 * total energy  :   -39.4239381 Eh     change       -0.4052962E+01 Eh
 * total energy  :   -41.2270809 Eh     change       -0.1803143E+01 Eh
 * total energy  :   -41.5720690 Eh     change       -0.3449881E+00 Eh
 * total energy  :   -41.6159576 Eh     change       -0.4388857E-01 Eh
 * total energy  :   -41.6585227 Eh     change       -0.4256508E-01 Eh
 * total energy  :   -41.6725215 Eh     change       -0.1399886E-01 Eh
 * total energy  :   -41.6859330 Eh     change       -0.1341150E-01 Eh
 * total energy  :   -42.1344486 Eh     change       -0.5207349E-02 Eh
 * total energy  :   -42.1349592 Eh     change       -0.5105635E-03 Eh
 * total energy  :   -42.1355685 Eh     change       -0.6093073E-03 Eh
 * total energy  :   -42.1359681 Eh     change       -0.3995585E-03 Eh
 * total energy  :   -42.1362342 Eh     change       -0.2661868E-03 Eh
 * total energy  :   -42.1363464 Eh     change       -0.1121281E-03 Eh
 * total energy  :   -42.1364892 Eh     change       -0.1427740E-03 Eh
 * total energy  :   -42.1365535 Eh     change       -0.6437208E-04 Eh
 * total energy  :   -42.1365810 Eh     change       -0.2747117E-04 Eh
   *** GEOMETRY OPTIMIZATION CONVERGED AFTER 83 ITERATIONS ***

 final structure:
================
25
 xtb: 6.6.1 (8d0f1dd)
C            3.77466885806844        0.70928106942166        0.07529052034617
N            2.59557841093335       -0.10891220041603        0.00805970733655
C            2.54853155635815       -1.44593113312640       -0.04242887344233
N            1.24767742280284       -1.84880743871792       -0.06436477055441
C            0.44981425406632       -0.74422614016527       -0.02607774605946
C            1.30065308530156        0.36250555157748        0.02102998057895
C            0.80877693517947        1.69976873229579        0.05035877183900
O            1.35392397833853        2.76662674653495        0.08111485495761
N           -0.68243426985074        1.63232129701674        0.03326858296918
C           -4.11650229414349        0.90033638906607       -0.00810649856347
C           -1.55948043509767        0.53976568373105        0.00381082480264
O           -2.84791963677486        0.40906448040758       -0.01310251225499
N           -0.90318245884134       -0.71587110177904       -0.02648254345726
C           -1.62921896879953       -1.97104989701286       -0.05671473023558
H            4.26179795984618        0.59600373327990        1.04530080811425
H            4.47831295249442        0.42410451434970       -0.70617836014133
H            3.48644362504441        1.75097535382096       -0.05397197370398
H            3.39395802735962       -2.10019071031784       -0.06531844649972
H           -1.10502164784238        2.55330596066396        0.05547456405495
H           -4.86463712108028        0.13863153053588       -0.00690839514410
H           -4.31433838697621        1.95281690902586        0.02732266356499
H           -1.37074425747744       -2.57509890192386        0.81503097516724
H           -1.39649407792699       -2.52047543620061       -0.97075689476299
H           -2.69663148149120       -1.77706774759171       -0.03546968864898
H            0.94689948462880       -2.80963870290005       -0.10900920235404

          :  Hamiltonian                  GFN2-xTB          :
         :: total energy             -42.136580994863 Eh    ::
         :: gradient norm              0.001875003150 Eh/a0 ::
         :: HOMO-LUMO gap              1.255019304387 eV    ::
         :: SCC energy               -42.637470192542 Eh    ::
         :: -> dispersion             -0.022031820746 Eh    ::
         :: repulsion energy           0.500499019118 Eh    ::

    * Orbital Energies and Occupations

         #    Occupation            Energy/Eh            Energy/eV
      -------------------------------------------------------------
         1        2.0000           -0.9008787             -24.5142
       ...           ...                  ...                  ...
        25        2.0000           -0.6663308             -18.1318
        26        2.0000           -0.6601044             -17.9624
        27        2.0000           -0.6579372             -17.9034
        28        2.0000           -0.6410447             -17.4437
        29        2.0000           -0.6310952             -17.1730
        30        2.0000           -0.6184411             -16.8286
        31        2.0000           -0.6158635             -16.7585
        32        1.9999           -0.5972260             -16.2513
        33        1.9999           -0.5948390             -16.1864
        34        1.9998           -0.5821853             -15.8421
        35        1.9985           -0.5536240             -15.0649
        36        1.9977           -0.5472772             -14.8922
        37        1.5745           -0.4605379             -12.5319 (HOMO)
        38        0.3348           -0.4144168             -11.2769 (LUMO)
        39        0.0762           -0.3886873             -10.5767
        40        0.0188           -0.3660472              -9.9607
        41        0.0001           -0.2781402              -7.5686
        42        0.0000           -0.2404487              -6.5429
        43        0.0000           -0.1899141              -5.1678
        44                         -0.1672306              -4.5506
        45                         -0.1354767              -3.6865
        46                         -0.1275664              -3.4713
        47                         -0.0532172              -1.4481
        48                         -0.0344695              -0.9380
       ...                                ...                  ...
        67                          0.5920299              16.1100
      -------------------------------------------------------------
                  HL-Gap            0.0461211 Eh            1.2550 eV

     #   Z          covCN         q      C6AA      α(0)
     1   6 C        3.691    -0.088    22.380     6.770
     2   7 N        2.820     0.062    20.156     6.668
     3   6 C        3.022     0.030    27.302     8.571
     4   7 N        2.789    -0.069    22.578     7.057
     5   6 C        3.018     0.103    25.697     8.315
     6   6 C        3.099    -0.023    28.453     8.742
     7   6 C        2.747     0.269    22.451     7.758
     8   8 O        0.857    -0.349    20.692     6.099
     9   7 N        2.691    -0.214    25.654     7.522
    10   6 C        2.707    -0.021    28.513     8.740
    11   6 C        2.698     0.228    23.213     7.886
    12   8 O        1.711    -0.127    16.226     5.439
    13   7 N        2.737    -0.041    22.034     6.972
    14   6 C        3.698    -0.077    22.137     6.729
    15   1 H        0.924     0.100     1.785     2.090
    16   1 H        0.925     0.098     1.804     2.101
    17   1 H        0.925     0.125     1.575     1.963
    18   1 H        0.927     0.111     1.685     2.030
    19   1 H        0.860     0.224     0.993     1.561
    20   1 H        0.927     0.094     1.838     2.120
    21   1 H        0.926     0.072     2.064     2.247
    22   1 H        0.924     0.083     1.952     2.185
    23   1 H        0.924     0.083     1.950     2.184
    24   1 H        0.925     0.109     1.703     2.041
    25   1 H        0.860     0.218     1.019     1.581

Wiberg/Mayer (AO) data.
largest (>0.10) Wiberg bond orders for each atom

     #   Z sym  total        # sym  WBO       # sym  WBO       # sym  WBO
 ---------------------------------------------------------------------------
     1   6 C    3.927 --     2 N    0.991    16 H    0.966    17 H    0.966
                            15 H    0.959
     2   7 N    3.585 --     3 C    1.330     6 C    1.142     1 C    0.991
     3   6 C    3.716 --     2 N    1.330     4 N    1.229    18 H    0.957
     4   7 N    3.536 --     3 C    1.229     5 C    1.196    25 H    0.923
     5   6 C    3.884 --     6 C    1.309     4 N    1.196    13 N    1.190
     6   6 C    3.855 --     5 C    1.309     2 N    1.142     7 C    1.118
     7   6 C    3.858 --     8 O    1.720     6 C    1.118     9 N    0.956
     8   8 O    2.036 --     7 C    1.720     9 N    0.149
     9   7 N    3.351 --    11 C    1.138     7 C    0.956    19 H    0.923
                             8 O    0.149
    10   6 C    3.344 --    12 O    1.095    21 H    0.974    20 H    0.966
                            11 C    0.240
    11   6 C    3.769 --    12 O    1.248     9 N    1.138    13 N    1.055
                            10 C    0.240
    12   8 O    2.544 --    11 C    1.248    10 C    1.095
    13   7 N    3.495 --     5 C    1.190    11 C    1.055    14 C    0.982
    14   6 C    3.937 --    13 N    0.982    22 H    0.971    23 H    0.971
                            24 H    0.970
    15   1 H    0.983 --     1 C    0.959
    16   1 H    0.985 --     1 C    0.966
    17   1 H    0.984 --     1 C    0.966
    18   1 H    0.987 --     3 C    0.957
    19   1 H    0.950 --     9 N    0.923
    20   1 H    0.990 --    10 C    0.966
    21   1 H    0.994 --    10 C    0.974
    22   1 H    0.989 --    14 C    0.971
    23   1 H    0.989 --    14 C    0.971
    24   1 H    0.988 --    14 C    0.970
    25   1 H    0.952 --     4 N    0.923
 ---------------------------------------------------------------------------

molecular dipole:
                 x           y           z       tot (Debye)
 q only:        0.618      -2.103      -0.048
   full:        0.466      -2.334      -0.047       6.049

           -------------------------------------------------
          | TOTAL ENERGY              -42.136580994863 Eh   |
          | GRADIENT NORM               0.001875003150 Eh/α |
          | HOMO-LUMO GAP               1.255019304387 eV   |
           -------------------------------------------------

 * finished run on 2024/06/05 at 19:59:16.455
