   * xtb version 6.6.1 (8d0f1dd) compiled by 'conda@1efc2f54142f' on 2023-08-01
          program call               : xtb xtbopt.xyz --opt crude --input .xc2 --gfn2

   ID    Z sym.   atoms
    1    6 C      1, 3, 5-7, 10, 11, 14
    2    7 N      2, 4, 9, 13
    3    8 O      8, 12
    4    1 H      15-25
########################################################################
[WARNING] Please study the warnings concerning your input carefully
-1- readin_getIntValue: could not parse ''
########################################################################

          :  Hamiltonian                  GFN2-xTB          :
 * total energy  :   -42.1369325 Eh     change       -0.1037392E-11 Eh
 * total energy  :   -42.1449307 Eh     change       -0.7998252E-02 Eh
 * total energy  :   -42.1513135 Eh     change       -0.6382826E-02 Eh
 * total energy  :   -42.1548850 Eh     change       -0.3571466E-02 Eh
 * total energy  :   -42.1576984 Eh     change       -0.2813353E-02 Eh
 * total energy  :   -42.1598000 Eh     change       -0.2101587E-02 Eh
 * total energy  :   -42.1610809 Eh     change       -0.1280998E-02 Eh
 * total energy  :   -42.1616798 Eh     change       -0.5988255E-03 Eh
 * total energy  :   -42.1618287 Eh     change       -0.1489026E-03 Eh
   *** GEOMETRY OPTIMIZATION CONVERGED AFTER 9 ITERATIONS ***

 final structure:
================
25
 xtb: 6.6.1 (8d0f1dd)
C            3.61917565267523        0.85568818293933        0.07279056985369
N            2.51362956463996       -0.06192648028466        0.01546136928843
C            2.58847347232749       -1.39977651191548       -0.02971278906364
N            1.32807781203884       -1.92066541304896       -0.05457052150329
C            0.44180885624282       -0.88728703621308       -0.02321736452297
C            1.18507761713334        0.28980090542990        0.02214478039394
C            0.56383778071904        1.59308682346431        0.04734370212429
O            1.09220930511306        2.67922667247059        0.06878119450248
N           -0.83524951005062        1.45645318980402        0.03412462523892
C           -3.71280280446635        1.28340250149806        0.02967497054492
C           -1.57252515955210        0.29502730654192       -0.00395829917486
O           -2.86339725223899        0.26057391243036       -0.02065188381834
N           -0.91403877258228       -0.93316607145736       -0.03432750299688
C           -1.62720998701777       -2.19286736610136       -0.07420210929738
H            4.13016305800421        0.77471085653621        1.03351773503643
H            4.33117617216195        0.63973881834940       -0.72344610639250
H            3.23665871451888        1.86946394154477       -0.04051321595996
H            3.49063794417369       -1.97258984320790       -0.04616264910367
H           -1.35503216816447        2.32605209729902        0.04498156093992
H           -4.74475079527987        0.99537224102456        0.01134327971857
H           -3.40219855642343        2.30910087558931        0.04696836813889
H           -1.36466617359450       -2.80070795247815        0.79320561025165
H           -1.38543617557650       -2.73436699632613       -0.99041991383776
H           -2.69605491291299       -2.00161281004646       -0.05445498432058
H            1.11286783223127       -2.90449330226632       -0.09352880813130

          :  Hamiltonian                  GFN2-xTB          :
         :: total energy             -42.161828677905 Eh    ::
         :: gradient norm              0.005196000929 Eh/a0 ::
         :: HOMO-LUMO gap              1.294295098236 eV    ::
         :: SCC energy               -42.673400298995 Eh    ::
         :: -> dispersion             -0.022333342960 Eh    ::
         :: repulsion energy           0.511522853068 Eh    ::

    * Orbital Energies and Occupations

         #    Occupation            Energy/Eh            Energy/eV
      -------------------------------------------------------------
         1        2.0000           -0.9140525             -24.8726
       ...           ...                  ...                  ...
        25        2.0000           -0.6669964             -18.1499
        26        2.0000           -0.6615510             -18.0017
        27        2.0000           -0.6602144             -17.9653
        28        2.0000           -0.6403157             -17.4239
        29        2.0000           -0.6346291             -17.2691
        30        2.0000           -0.6214506             -16.9105
        31        2.0000           -0.6139732             -16.7071
        32        1.9999           -0.6030152             -16.4089
        33        1.9999           -0.5955905             -16.2068
        34        1.9999           -0.5943321             -16.1726
        35        1.9982           -0.5498199             -14.9614
        36        1.9980           -0.5483534             -14.9215
        37        1.5808           -0.4597273             -12.5098 (HOMO)
        38        0.3151           -0.4121628             -11.2155 (LUMO)
        39        0.0824           -0.3888700             -10.5817
        40        0.0258           -0.3700299             -10.0690
        41        0.0001           -0.2761933              -7.5156
        42        0.0000           -0.2079383              -5.6583
        43        0.0000           -0.1796031              -4.8872
        44                         -0.1356050              -3.6900
        45                         -0.1306814              -3.5560
        46                         -0.0950442              -2.5863
        47                         -0.0457409              -1.2447
        48                         -0.0319709              -0.8700
       ...                                ...                  ...
        67                          0.5580942              15.1865
      -------------------------------------------------------------
                  HL-Gap            0.0475645 Eh            1.2943 eV

     #   Z          covCN         q      C6AA      α(0)
     1   6 C        3.691    -0.090    22.412     6.775
     2   7 N        2.823     0.065    20.106     6.660
     3   6 C        3.030     0.028    27.350     8.578
     4   7 N        2.785    -0.069    22.575     7.057
     5   6 C        3.040     0.099    25.781     8.328
     6   6 C        3.103    -0.027    28.532     8.753
     7   6 C        2.753     0.267    22.493     7.766
     8   8 O        0.858    -0.380    21.286     6.186
     9   7 N        2.699    -0.183    24.956     7.420
    10   6 C        2.735    -0.034    28.830     8.791
    11   6 C        2.748     0.214    23.471     7.933
    12   8 O        1.711    -0.106    15.921     5.387
    13   7 N        2.735    -0.037    21.954     6.959
    14   6 C        3.695    -0.075    22.119     6.728
    15   1 H        0.924     0.100     1.788     2.091
    16   1 H        0.925     0.098     1.807     2.102
    17   1 H        0.925     0.129     1.541     1.941
    18   1 H        0.927     0.111     1.684     2.030
    19   1 H        0.860     0.236     0.939     1.518
    20   1 H        0.926     0.096     1.818     2.109
    21   1 H        0.926     0.058     2.227     2.333
    22   1 H        0.924     0.086     1.919     2.166
    23   1 H        0.924     0.086     1.918     2.166
    24   1 H        0.925     0.110     1.695     2.036
    25   1 H        0.860     0.218     1.020     1.582

Wiberg/Mayer (AO) data.
largest (>0.10) Wiberg bond orders for each atom

     #   Z sym  total        # sym  WBO       # sym  WBO       # sym  WBO
 ---------------------------------------------------------------------------
     1   6 C    3.924 --     2 N    0.990    16 H    0.966    17 H    0.964
                            15 H    0.960
     2   7 N    3.590 --     3 C    1.326     6 C    1.155     1 C    0.990
     3   6 C    3.709 --     2 N    1.326     4 N    1.224    18 H    0.958
     4   7 N    3.529 --     3 C    1.224     5 C    1.198    25 H    0.924
     5   6 C    3.885 --     6 C    1.327     4 N    1.198    13 N    1.168
     6   6 C    3.862 --     5 C    1.327     2 N    1.155     7 C    1.080
     7   6 C    3.873 --     8 O    1.674     6 C    1.080     9 N    1.056
     8   8 O    1.984 --     7 C    1.674     9 N    0.141
     9   7 N    3.410 --    11 C    1.141     7 C    1.056    19 H    0.904
                             8 O    0.141
    10   6 C    3.388 --    12 O    1.128    21 H    0.970    20 H    0.968
                            11 C    0.223
    11   6 C    3.767 --    12 O    1.226     9 N    1.141    13 N    1.087
                            10 C    0.223
    12   8 O    2.530 --    11 C    1.226    10 C    1.128
    13   7 N    3.490 --     5 C    1.168    11 C    1.087    14 C    0.979
    14   6 C    3.934 --    13 N    0.979    24 H    0.971    22 H    0.971
                            23 H    0.970
    15   1 H    0.983 --     1 C    0.960
    16   1 H    0.985 --     1 C    0.966
    17   1 H    0.983 --     1 C    0.964
    18   1 H    0.987 --     3 C    0.958
    19   1 H    0.944 --     9 N    0.904
    20   1 H    0.990 --    10 C    0.968
    21   1 H    0.997 --    10 C    0.970
    22   1 H    0.989 --    14 C    0.971
    23   1 H    0.989 --    14 C    0.970
    24   1 H    0.987 --    14 C    0.971
    25   1 H    0.952 --     4 N    0.924
 ---------------------------------------------------------------------------

molecular dipole:
                 x           y           z       tot (Debye)
 q only:        0.654      -2.154      -0.047
   full:        0.556      -2.472      -0.068       6.443

           -------------------------------------------------
          | TOTAL ENERGY              -42.161828677905 Eh   |
          | GRADIENT NORM               0.005196000929 Eh/α |
          | HOMO-LUMO GAP               1.294295098236 eV   |
           -------------------------------------------------

 * finished run on 2024/06/05 at 19:59:16.849
