   * xtb version 6.6.1 (8d0f1dd) compiled by 'conda@1efc2f54142f' on 2023-08-01
          program call               : xtb struc.xyz --opt loose --input .xc1 --gfn2

   ID    Z sym.   atoms
    1    6 C      1, 3, 5-7, 10, 11, 14
    2    7 N      2, 4, 9, 13
    3    8 O      8, 12
    4    1 H      15-25
constraining bond 5 22 to    5.1400000 Å, actual value:    2.7765911 Å

          :  Hamiltonian                  GFN2-xTB          :
 * total energy  :   -32.2744090 Eh     change       -0.6650680E-10 Eh
 * total energy  :   -36.2604829 Eh     change       -0.3986074E+01 Eh
 * total energy  :   -39.1279627 Eh     change       -0.2867480E+01 Eh
 * total energy  :   -40.8460928 Eh     change       -0.1718130E+01 Eh
 * total energy  :   -41.6116904 Eh     change       -0.7655976E+00 Eh
 * total energy  :   -41.7942926 Eh     change       -0.1826022E+00 Eh
 * total energy  :   -41.8180865 Eh     change       -0.2379393E-01 Eh
 * total energy  :   -41.8604352 Eh     change       -0.4234865E-01 Eh
 * total energy  :   -41.9131144 Eh     change       -0.5267919E-01 Eh
 * total energy  :   -41.9504929 Eh     change       -0.3737854E-01 Eh
 * total energy  :   -42.0995870 Eh     change       -0.3247134E-02 Eh
 * total energy  :   -42.1015545 Eh     change       -0.1967475E-02 Eh
 * total energy  :   -42.1021545 Eh     change       -0.6000107E-03 Eh
 * total energy  :   -42.1026234 Eh     change       -0.4688825E-03 Eh
 * total energy  :   -42.1027713 Eh     change       -0.1479834E-03 Eh
 * total energy  :   -42.1029163 Eh     change       -0.1449124E-03 Eh
 * total energy  :   -42.1029821 Eh     change       -0.6580453E-04 Eh
 * total energy  :   -42.1030039 Eh     change       -0.2180716E-04 Eh
 * total energy  :   -42.1030256 Eh     change       -0.2172470E-04 Eh
   *** GEOMETRY OPTIMIZATION CONVERGED AFTER 30 ITERATIONS ***

 final structure:
================
25
 xtb: 6.6.1 (8d0f1dd)
C            3.25315562790894        1.24022002861429        0.01824118258221
N            2.31881558381598        0.14827971662404       -0.04636853749279
C            2.61041837794604       -1.14640626136513       -0.09872658022388
N            1.47558883215977       -1.87550315675544       -0.13640278533247
C            0.41441815724941       -1.00432981386414       -0.10280808956821
C            0.95068785722791        0.27672654363503       -0.04642193737041
C            0.12216908790502        1.46236446322049       -0.02365454379240
O            0.51856559408536        2.60539948056036       -0.01210414507601
N           -1.23692384123827        1.12697772108598       -0.02204004536180
C           -2.19292777744550        2.23010905187394        0.02298258753332
C           -1.81075584725800       -0.11367836274493       -0.05592384145853
O           -2.99161525550629       -0.30535504948491       -0.03983257734155
N           -0.91432048586132       -1.26518251904833       -0.12123849204097
C           -1.47233733822632       -2.48250552007174       -0.19835251048641
H            3.74029090796615        1.26242677444260        0.99457686890125
H            4.01564198427895        1.13271942183558       -0.75215529516115
H            2.71144232424139        2.17490734995391       -0.12509132316234
H            3.59996209199427       -1.56097752333078       -0.11140225044473
H           -1.63217044847312        3.16135597231707        0.02880790709446
H           -2.84695741902100        2.18774543948363       -0.84677958087096
H           -2.80429319907361        2.15148347865508        0.92104529253064
H           -2.69210063484805       -4.80820497802801        1.41311227876937
H           -0.86820645401910       -3.36388353093809       -0.24518067782085
H           -2.54309955609455       -2.53266281723502       -0.21235509191069
H            1.43498334438575       -2.88378736783565       -0.17075619459518

          :  Hamiltonian                  GFN2-xTB          :
         :: total energy             -42.103025599536 Eh    ::
         :: gradient norm              0.002301920430 Eh/a0 ::
         :: HOMO-LUMO gap              0.214373628191 eV    ::
         :: SCC energy               -42.626416546560 Eh    ::
         :: -> dispersion             -0.022646939174 Eh    ::
         :: repulsion energy           0.523306388501 Eh    ::

    * Orbital Energies and Occupations

         #    Occupation            Energy/Eh            Energy/eV
      -------------------------------------------------------------
         1        2.0000           -0.9188481             -25.0031
       ...           ...                  ...                  ...
        25        2.0000           -0.6703727             -18.2418
        26        2.0000           -0.6702247             -18.2377
        27        2.0000           -0.6612461             -17.9934
        28        1.9999           -0.6374185             -17.3450
        29        1.9998           -0.6334287             -17.2365
        30        1.9998           -0.6295676             -17.1314
        31        1.9996           -0.6210999             -16.9010
        32        1.9986           -0.6001814             -16.3318
        33        1.9976           -0.5913783             -16.0922
        34        1.9967           -0.5867653             -15.9667
        35        1.9879           -0.5658407             -15.3973
        36        1.9867           -0.5643785             -15.3575
        37        1.0862           -0.4878413             -13.2748 (HOMO)
        38        0.8390           -0.4799633             -13.0605 (LUMO)
        39        0.0965           -0.4378935             -11.9157
        40        0.0099           -0.4010743             -10.9138
        41        0.0019           -0.3752344             -10.2106
        42        0.0000           -0.2904830              -7.9044
        43                         -0.2154258              -5.8620
        44                         -0.2024060              -5.5077
        45                         -0.1526792              -4.1546
        46                         -0.1366208              -3.7176
        47                         -0.0700970              -1.9074
        48                         -0.0420670              -1.1447
       ...                                ...                  ...
        67                          0.5544817              15.0882
      -------------------------------------------------------------
                  HL-Gap            0.0078781 Eh            0.2144 eV

     #   Z          covCN         q      C6AA      α(0)
     1   6 C        3.691    -0.096    22.537     6.793
     2   7 N        2.831     0.086    19.752     6.601
     3   6 C        3.051     0.054    26.734     8.480
     4   7 N        2.790    -0.056    22.330     7.018
     5   6 C        3.038     0.093    25.901     8.347
     6   6 C        3.114    -0.016    28.250     8.707
     7   6 C        2.763     0.267    22.493     7.767
     8   8 O        0.858    -0.364    20.978     6.141
     9   7 N        2.744    -0.078    22.756     7.085
    10   6 C        3.713    -0.064    21.872     6.682
    11   6 C        2.734     0.311    21.721     7.630
    12   8 O        0.859    -0.336    20.436     6.061
    13   7 N        2.735     0.009    21.099     6.822
    14   6 C        2.797    -0.057    29.390     8.881
    15   1 H        0.924     0.111     1.689     2.032
    16   1 H        0.925     0.107     1.721     2.052
    17   1 H        0.925     0.139     1.465     1.893
    18   1 H        0.926     0.128     1.548     1.945
    19   1 H        0.925     0.117     1.642     2.004
    20   1 H        0.925     0.099     1.792     2.093
    21   1 H        0.925     0.099     1.794     2.095
    22   1 H        0.000    -0.008     7.963     5.160
    23   1 H        0.927     0.090     1.881     2.144
    24   1 H        0.926     0.135     1.497     1.913
    25   1 H        0.860     0.230     0.965     1.539

Wiberg/Mayer (AO) data.
largest (>0.10) Wiberg bond orders for each atom

     #   Z sym  total        # sym  WBO       # sym  WBO       # sym  WBO
 ---------------------------------------------------------------------------
     1   6 C    3.912 --     2 N    0.984    16 H    0.963    17 H    0.959
                            15 H    0.954
     2   7 N    3.674 --     3 C    1.386     6 C    1.165     1 C    0.984
     3   6 C    3.844 --     2 N    1.386     4 N    1.289    18 H    0.951
     4   7 N    3.555 --     3 C    1.289     5 C    1.166    25 H    0.918
     5   6 C    3.886 --     6 C    1.339     4 N    1.166    13 N    1.164
     6   6 C    3.858 --     5 C    1.339     2 N    1.165     7 C    1.074
     7   6 C    3.917 --     8 O    1.676     9 N    1.081     6 C    1.074
     8   8 O    1.989 --     7 C    1.676     9 N    0.138
     9   7 N    3.569 --    11 C    1.170     7 C    1.081    10 C    0.962
                            12 O    0.151     8 O    0.138
    10   6 C    3.910 --    19 H    0.968    20 H    0.966    21 H    0.965
                             9 N    0.962
    11   6 C    3.925 --    12 O    1.730     9 N    1.170    13 N    0.930
    12   8 O    2.058 --    11 C    1.730     9 N    0.151
    13   7 N    3.623 --    14 C    1.304     5 C    1.164    11 C    0.930
    14   6 C    3.350 --    13 N    1.304    23 H    0.969    24 H    0.957
    15   1 H    0.984 --     1 C    0.954
    16   1 H    0.986 --     1 C    0.963
    17   1 H    0.980 --     1 C    0.959
    18   1 H    0.982 --     3 C    0.951
    19   1 H    0.985 --    10 C    0.968
    20   1 H    0.986 --    10 C    0.966
    21   1 H    0.986 --    10 C    0.965
    22   1 H    0.015
    23   1 H    0.991 --    14 C    0.969
    24   1 H    0.981 --    14 C    0.957
    25   1 H    0.946 --     4 N    0.918
 ---------------------------------------------------------------------------

molecular dipole:
                 x           y           z       tot (Debye)
 q only:        2.702      -1.630      -0.189
   full:        2.977      -2.217      -0.197       9.448

           -------------------------------------------------
          | TOTAL ENERGY              -42.103025599536 Eh   |
          | GRADIENT NORM               0.002301920430 Eh/α |
          | HOMO-LUMO GAP               0.214373628191 eV   |
           -------------------------------------------------

 * finished run on 2024/06/05 at 20:00:10.107
