   * xtb version 6.6.1 (8d0f1dd) compiled by 'conda@1efc2f54142f' on 2023-08-01
          program call               : xtb struc.xyz --opt loose --input .xc1 --gfn2

   ID    Z sym.   atoms
    1    6 C      1, 3, 5-7, 10, 11, 14
    2    7 N      2, 4, 9, 13
    3    8 O      8, 12
    4    1 H      15-25
constraining bond 11 22 to    3.7133300 Å, actual value:    3.1884051 Å

          :  Hamiltonian                  GFN2-xTB          :
 * total energy  :   -42.7520468 Eh     change       -0.2401990E-09 Eh
 * total energy  :   -44.9253792 Eh     change       -0.2173332E+01 Eh
 * total energy  :   -48.7572083 Eh     change       -0.3831829E+01 Eh
 * total energy  :   -54.4300541 Eh     change       -0.5672846E+01 Eh
 * total energy  :   -58.2506499 Eh     change       -0.3820596E+01 Eh
 * total energy  :   -57.9857943 Eh     change        0.2648556E+00 Eh
 * total energy  :   -58.9781358 Eh     change       -0.9923415E+00 Eh
 * total energy  :   -58.1561165 Eh     change        0.8220192E+00 Eh
 * total energy  :   -59.3374124 Eh     change       -0.1181296E+01 Eh
 * total energy  :   -59.4135512 Eh     change       -0.7613874E-01 Eh
 * total energy  :   -59.7618501 Eh     change       -0.1743178E-03 Eh
 * total energy  :   -59.7619340 Eh     change       -0.8391306E-04 Eh
 * total energy  :   -59.7619803 Eh     change       -0.4629156E-04 Eh
 * total energy  :   -59.7620151 Eh     change       -0.3486394E-04 Eh
 * total energy  :   -59.7620443 Eh     change       -0.2920137E-04 Eh
 * total energy  :   -59.7620657 Eh     change       -0.2138401E-04 Eh
 * total energy  :   -59.7620868 Eh     change       -0.2106471E-04 Eh
 * total energy  :   -59.7621034 Eh     change       -0.1657186E-04 Eh
 * total energy  :   -59.7621163 Eh     change       -0.1290213E-04 Eh
   *** GEOMETRY OPTIMIZATION CONVERGED AFTER 62 ITERATIONS ***

 final structure:
================
25
 xtb: 6.6.1 (8d0f1dd)
C            3.03676898281350        1.09224066385180        0.26450225899487
N            2.18214538467214       -0.03678557185067        0.02047896819298
C            2.59992284301385       -1.28128155297268       -0.19512908148505
N            1.54267646252674       -2.09069152851292       -0.35964519969358
C            0.38228212854500       -1.34438961997684       -0.22589135087885
C            0.80207531082340       -0.02578759935377        0.03279048146161
C            0.00947110761663        1.20827031190738        0.01287211861103
O            0.48885657518639        2.27588821035683       -0.32942537422853
N           -1.32824241908772        1.06690240845361        0.32658947334807
C           -2.26153754255536        2.09049126906525       -0.07617957744846
C           -1.79590317662514       -0.02962285790649        1.16606201880516
O           -3.02658599451753       -0.07874788236263        1.27189452570762
N           -0.87881420258452       -1.77090871220971       -0.28056443152141
C           -1.35586164110893       -2.86228044988756       -0.74939865769929
H            3.07735906511459        1.31209894404031        1.33372606446291
H            4.04063903231156        0.87705348767282       -0.09350864428852
H            2.63611650566560        1.96959060108960       -0.24573493793803
H            3.62614281384604       -1.59105146101375       -0.23343645550584
H           -1.72323351514247        2.88889497162070       -0.58258538580931
H           -3.00943477133160        1.65304045576031       -0.74123655888427
H           -2.78279707942563        2.48384199317124        0.79833536154041
H           -1.49178262947397       -0.26227331114711        1.34900929321026
H           -0.78198251747901       -3.61927910502955       -1.27836070682849
H           -2.41553683686098       -3.02148018615503       -0.62960757111770
H            1.58768762815962       -3.08549493701170       -0.52438501310635

          :  Hamiltonian                  GFN2-xTB          :
         :: total energy             -59.762116259703 Eh    ::
         :: gradient norm              0.003564144388 Eh/a0 ::
         :: HOMO-LUMO gap              2.369263635834 eV    ::
         :: SCC energy               -42.714599949783 Eh    ::
         :: -> dispersion             -0.022517934073 Eh    ::
         :: repulsion energy           2.266934641321 Eh    ::

    * Orbital Energies and Occupations

         #    Occupation            Energy/Eh            Energy/eV
      -------------------------------------------------------------
         1        2.0000           -0.9038454             -24.5949
       ...           ...                  ...                  ...
        25        1.9986           -0.6659368             -18.1211
        26        1.9982           -0.6605080             -17.9733
        27        1.9978           -0.6558729             -17.8472
        28        1.9969           -0.6468295             -17.6011
        29        1.9949           -0.6355589             -17.2944
        30        1.9941           -0.6320053             -17.1977
        31        1.9874           -0.6137957             -16.7022
        32        1.9813           -0.6043675             -16.4457
        33        1.9548           -0.5830547             -15.8657
        34        1.9304           -0.5724952             -15.5784
        35        1.8972           -0.5628188             -15.3151
        36        1.8758           -0.5580585             -15.1855
        37        1.8121           -0.5474067             -14.8957 (HOMO)
        38        0.3957           -0.4603379             -12.5264 (LUMO)
        39        0.1332           -0.4308811             -11.7249
        40        0.0459           -0.4045035             -11.0071
        41        0.0083           -0.3633006              -9.8859
        42        0.0011           -0.3148283              -8.5669
        43        0.0000           -0.1902637              -5.1773
        44        0.0000           -0.1720678              -4.6822
        45        0.0000           -0.1371161              -3.7311
        46                         -0.0725197              -1.9734
        47                         -0.0525918              -1.4311
        48                         -0.0383683              -1.0441
       ...                                ...                  ...
        67                         10.6103295             288.7218
      -------------------------------------------------------------
                  HL-Gap            0.0870688 Eh            2.3693 eV

     #   Z          covCN         q      C6AA      α(0)
     1   6 C        3.692    -0.092    22.456     6.781
     2   7 N        2.830     0.079    19.869     6.620
     3   6 C        3.011     0.057    26.693     8.475
     4   7 N        2.788    -0.067    22.529     7.050
     5   6 C        2.998     0.118    25.399     8.267
     6   6 C        3.074    -0.015    28.312     8.724
     7   6 C        2.761     0.265    22.533     7.774
     8   8 O        0.858    -0.353    20.767     6.110
     9   7 N        2.740    -0.076    22.723     7.080
    10   6 C        3.695    -0.060    21.835     6.685
    11   6 C        2.706     0.185    24.029     8.024
    12   8 O        0.865    -0.301    19.803     5.967
    13   7 N        1.828    -0.154    25.125     7.427
    14   6 C        2.787     0.020    27.545     8.597
    15   1 H        0.924     0.110     1.694     2.035
    16   1 H        0.925     0.103     1.762     2.076
    17   1 H        0.924     0.142     1.448     1.882
    18   1 H        0.926     0.120     1.609     1.984
    19   1 H        0.925     0.115     1.658     2.014
    20   1 H        0.924     0.113     1.675     2.024
    21   1 H        0.924     0.112     1.679     2.026
    22   1 H        0.945     0.168     1.277     1.767
    23   1 H        0.925     0.072     2.060     2.244
    24   1 H        0.926     0.117     1.636     2.000
    25   1 H        0.860     0.224     0.991     1.559

Wiberg/Mayer (AO) data.
largest (>0.10) Wiberg bond orders for each atom

     #   Z sym  total        # sym  WBO       # sym  WBO       # sym  WBO
 ---------------------------------------------------------------------------
     1   6 C    3.903 --     2 N    0.991    16 H    0.970    15 H    0.949
                            17 H    0.943
     2   7 N    3.652 --     3 C    1.359     6 C    1.167     1 C    0.991
     3   6 C    3.814 --     2 N    1.359     4 N    1.304    18 H    0.951
     4   7 N    3.537 --     3 C    1.304     5 C    1.129    25 H    0.922
     5   6 C    3.842 --     6 C    1.311    13 N    1.241     4 N    1.129
     6   6 C    3.793 --     5 C    1.311     2 N    1.167     7 C    1.043
     7   6 C    3.884 --     8 O    1.638     9 N    1.128     6 C    1.043
     8   8 O    1.908 --     7 C    1.638     9 N    0.114
     9   7 N    3.443 --     7 C    1.128    11 C    1.042    10 C    0.995
                            12 O    0.129     8 O    0.114
    10   6 C    3.873 --     9 N    0.995    19 H    0.956    21 H    0.943
                            20 H    0.937
    11   6 C    3.846 --    12 O    1.756     9 N    1.042    22 H    0.949
    12   8 O    1.961 --    11 C    1.756     9 N    0.129
    13   7 N    3.080 --    14 C    1.667     5 C    1.241
    14   6 C    3.654 --    13 N    1.667    24 H    0.949    23 H    0.938
    15   1 H    0.978 --     1 C    0.949
    16   1 H    0.985 --     1 C    0.970
    17   1 H    0.972 --     1 C    0.943
    18   1 H    0.984 --     3 C    0.951
    19   1 H    0.974 --    10 C    0.956
    20   1 H    0.957 --    10 C    0.937
    21   1 H    0.960 --    10 C    0.943
    22   1 H    0.961 --    11 C    0.949
    23   1 H    0.962 --    14 C    0.938
    24   1 H    0.969 --    14 C    0.949
    25   1 H    0.949 --     4 N    0.922
 ---------------------------------------------------------------------------

molecular dipole:
                 x           y           z       tot (Debye)
 q only:        2.286      -1.676      -0.229
   full:        2.688      -2.291      -0.356       9.022

           -------------------------------------------------
          | TOTAL ENERGY              -59.762116259703 Eh   |
          | GRADIENT NORM               0.003564144388 Eh/α |
          | HOMO-LUMO GAP               2.369263635834 eV   |
           -------------------------------------------------

 * finished run on 2024/06/05 at 19:58:58.258
