   * xtb version 6.6.1 (8d0f1dd) compiled by 'conda@1efc2f54142f' on 2023-08-01
          program call               : xtb xtbopt.xyz --opt crude --input .xc2 --gfn2

   ID    Z sym.   atoms
    1    6 C      1, 3, 5-7, 10, 11, 14
    2    7 N      2, 4, 9, 13
    3    8 O      8, 12
    4    1 H      15-25
########################################################################
[WARNING] Please study the warnings concerning your input carefully
-1- readin_getIntValue: could not parse ''
########################################################################

          :  Hamiltonian                  GFN2-xTB          :
 * total energy  :   -40.4474914 Eh     change       -0.5471179E-12 Eh
 * total energy  :   -42.1433597 Eh     change       -0.1695868E+01 Eh
 * total energy  :   -42.1699718 Eh     change       -0.2661213E-01 Eh
 * total energy  :   -42.1759250 Eh     change       -0.5953236E-02 Eh
 * total energy  :   -42.1791267 Eh     change       -0.3201641E-02 Eh
 * total energy  :   -42.1797588 Eh     change       -0.6321440E-03 Eh
 * total energy  :   -42.1804601 Eh     change       -0.7013294E-03 Eh
 * total energy  :   -42.1809446 Eh     change       -0.4844742E-03 Eh
 * total energy  :   -42.1814180 Eh     change       -0.4734399E-03 Eh
 * total energy  :   -42.1815902 Eh     change       -0.1721742E-03 Eh
   *** GEOMETRY OPTIMIZATION CONVERGED AFTER 10 ITERATIONS ***

 final structure:
================
25
 xtb: 6.6.1 (8d0f1dd)
C            3.00633816871498        1.08519528881669        0.28653820667783
N            2.15687473582409       -0.04393029040342        0.02666796648826
C            2.57564921408143       -1.28734756739762       -0.19360352070941
N            1.51965918407164       -2.09277598643345       -0.37916990252666
C            0.35553516508535       -1.34467830960052       -0.26062310044712
C            0.77632631813935       -0.03064448776322        0.01871540396488
C           -0.00828564018401        1.20643015050384        0.00577702875270
O            0.46839213340522        2.26419403262599       -0.36639717099200
N           -1.34675836120401        1.09040438831662        0.35584526893245
C           -2.27759545212392        2.08637863749384       -0.13307878585834
C           -1.84882997435971        0.14879157537312        1.22270526785412
O           -3.02080044962433        0.01330974399703        1.43896304803963
N           -0.90281998443783       -1.76627008716629       -0.36577441597505
C           -1.34534139989991       -2.87146235433533       -0.83454933094483
H            2.99899586857180        1.32696426041413        1.35168943024351
H            4.02413207798311        0.85829811264921       -0.02207818187784
H            2.63464845660086        1.95418302009027       -0.25918329804182
H            3.60212011007648       -1.59783696618981       -0.21653750239342
H           -1.72558765489343        2.85676515269003       -0.66829968084535
H           -3.00412411782062        1.61212520607713       -0.79700820465612
H           -2.82447338704495        2.52988386079889        0.70026813219476
H           -1.07437245716703       -0.41296507423028        1.75964366530908
H           -0.73836552090221       -3.64343722581839       -1.30251092613882
H           -2.40825345980369       -3.03921685030126       -0.77395199144236
H            1.56736794101367       -3.08411968860789       -0.56287578770692

          :  Hamiltonian                  GFN2-xTB          :
         :: total energy             -42.181590224198 Eh    ::
         :: gradient norm              0.004850834254 Eh/a0 ::
         :: HOMO-LUMO gap              2.400540008877 eV    ::
         :: SCC energy               -42.714474246834 Eh    ::
         :: -> dispersion             -0.022488672334 Eh    ::
         :: repulsion energy           0.532693969624 Eh    ::

    * Orbital Energies and Occupations

         #    Occupation            Energy/Eh            Energy/eV
      -------------------------------------------------------------
         1        2.0000           -0.9034100             -24.5830
       ...           ...                  ...                  ...
        25        1.9986           -0.6650041             -18.0957
        26        1.9983           -0.6603621             -17.9694
        27        1.9978           -0.6548725             -17.8200
        28        1.9970           -0.6466431             -17.5961
        29        1.9951           -0.6355678             -17.2947
        30        1.9947           -0.6335084             -17.2386
        31        1.9879           -0.6136946             -16.6995
        32        1.9836           -0.6064627             -16.5027
        33        1.9548           -0.5820638             -15.8388
        34        1.9322           -0.5721812             -15.5698
        35        1.9010           -0.5628002             -15.3146
        36        1.8740           -0.5567271             -15.1493
        37        1.8212           -0.5477304             -14.9045 (HOMO)
        38        0.3977           -0.4595122             -12.5040 (LUMO)
        39        0.1335           -0.4299531             -11.6996
        40        0.0294           -0.3926925             -10.6857
        41        0.0057           -0.3535256              -9.6199
        42        0.0011           -0.3142100              -8.5501
        43        0.0000           -0.1900274              -5.1709
        44        0.0000           -0.1707381              -4.6460
        45        0.0000           -0.1250171              -3.4019
        46                         -0.0639398              -1.7399
        47                         -0.0512046              -1.3933
        48                         -0.0295880              -0.8051
       ...                                ...                  ...
        67                          0.5032473              13.6941
      -------------------------------------------------------------
                  HL-Gap            0.0882182 Eh            2.4005 eV

     #   Z          covCN         q      C6AA      α(0)
     1   6 C        3.692    -0.092    22.446     6.779
     2   7 N        2.830     0.077    19.897     6.625
     3   6 C        3.007     0.058    26.685     8.474
     4   7 N        2.789    -0.068    22.562     7.055
     5   6 C        2.996     0.120    25.342     8.258
     6   6 C        3.073    -0.014    28.284     8.720
     7   6 C        2.764     0.264    22.553     7.777
     8   8 O        0.859    -0.350    20.698     6.100
     9   7 N        2.734    -0.044    22.100     6.982
    10   6 C        3.707    -0.063    21.869     6.685
    11   6 C        2.713     0.245    22.883     7.830
    12   8 O        0.858    -0.273    19.309     5.891
    13   7 N        1.825    -0.156    25.170     7.434
    14   6 C        2.790     0.021    27.516     8.592
    15   1 H        0.924     0.109     1.701     2.040
    16   1 H        0.925     0.103     1.761     2.075
    17   1 H        0.924     0.140     1.459     1.889
    18   1 H        0.926     0.120     1.611     1.985
    19   1 H        0.925     0.116     1.648     2.008
    20   1 H        0.924     0.110     1.699     2.038
    21   1 H        0.924     0.111     1.691     2.033
    22   1 H        0.924     0.058     2.228     2.334
    23   1 H        0.925     0.070     2.090     2.261
    24   1 H        0.926     0.115     1.652     2.010
    25   1 H        0.860     0.224     0.992     1.560

Wiberg/Mayer (AO) data.
largest (>0.10) Wiberg bond orders for each atom

     #   Z sym  total        # sym  WBO       # sym  WBO       # sym  WBO
 ---------------------------------------------------------------------------
     1   6 C    3.905 --     2 N    0.991    16 H    0.970    15 H    0.951
                            17 H    0.944
     2   7 N    3.648 --     3 C    1.357     6 C    1.164     1 C    0.991
     3   6 C    3.813 --     2 N    1.357     4 N    1.305    18 H    0.951
     4   7 N    3.534 --     3 C    1.305     5 C    1.125    25 H    0.921
     5   6 C    3.839 --     6 C    1.309    13 N    1.245     4 N    1.125
     6   6 C    3.798 --     5 C    1.309     2 N    1.164     7 C    1.049
     7   6 C    3.876 --     8 O    1.651     9 N    1.099     6 C    1.049
     8   8 O    1.920 --     7 C    1.651     9 N    0.109
     9   7 N    3.489 --    11 C    1.145     7 C    1.099    10 C    0.978
                            12 O    0.125     8 O    0.109
    10   6 C    3.876 --     9 N    0.978    19 H    0.960    21 H    0.950
                            20 H    0.943
    11   6 C    3.898 --    12 O    1.788     9 N    1.145    22 H    0.902
    12   8 O    2.003 --    11 C    1.788     9 N    0.125
    13   7 N    3.043 --    14 C    1.671     5 C    1.245
    14   6 C    3.656 --    13 N    1.671    24 H    0.949    23 H    0.937
    15   1 H    0.979 --     1 C    0.951
    16   1 H    0.985 --     1 C    0.970
    17   1 H    0.973 --     1 C    0.944
    18   1 H    0.984 --     3 C    0.951
    19   1 H    0.976 --    10 C    0.960
    20   1 H    0.962 --    10 C    0.943
    21   1 H    0.965 --    10 C    0.950
    22   1 H    0.958 --    11 C    0.902
    23   1 H    0.960 --    14 C    0.937
    24   1 H    0.969 --    14 C    0.949
    25   1 H    0.949 --     4 N    0.921
 ---------------------------------------------------------------------------

molecular dipole:
                 x           y           z       tot (Debye)
 q only:        2.179      -1.546      -0.343
   full:        2.631      -2.207      -0.423       8.795

           -------------------------------------------------
          | TOTAL ENERGY              -42.181590224198 Eh   |
          | GRADIENT NORM               0.004850834254 Eh/α |
          | HOMO-LUMO GAP               2.400540008877 eV   |
           -------------------------------------------------

 * finished run on 2024/06/05 at 19:58:58.653
