   * xtb version 6.6.1 (8d0f1dd) compiled by 'conda@1efc2f54142f' on 2023-08-01
          program call               : xtb xtbopt.xyz --opt crude --input .xc2 --gfn2

   ID    Z sym.   atoms
    1    6 C      1, 3, 5-7, 10, 11, 14
    2    7 N      2, 4, 9, 13
    3    8 O      8, 12
    4    1 H      15-25

          :  Hamiltonian                  GFN2-xTB          :
 * total energy  :   -42.1059701 Eh     change       -0.4234835E-11 Eh
   *** GEOMETRY OPTIMIZATION CONVERGED AFTER 1 ITERATIONS ***

 final structure:
================
25
 xtb: 6.6.1 (8d0f1dd)
C            3.37145761975603        1.04200149299639       -0.01158506113521
N            2.37545056569044        0.00472897484278       -0.02939673946520
C            2.59684625081439       -1.30753664256065       -0.01065966997256
N            1.41800304232942       -1.97201761645896       -0.00687681797284
C            0.41443111579830       -1.04992038083899       -0.02144340156862
C            1.01059190052110        0.20488629436768       -0.03873285352400
C            0.24954254405109        1.41657995146404       -0.07001663810727
O            0.66291124044485        2.55359378554553       -0.11113268010460
N           -1.16723996712839        1.14508964991816       -0.04071681531238
C           -1.99374535143438        2.20033573720238       -0.04154877882888
C           -1.77483183252726       -0.14332933967261       -0.01925589077980
O           -2.96835266891470       -0.27129307260866       -0.00522949292989
N           -0.91973587471647       -1.24225537017541       -0.01686586006281
C           -1.48977068404253       -2.57791645653342       -0.00545720862709
H            3.87849481452882        1.06189254655738        0.95429014629717
H            4.11085373915061        0.86999642923080       -0.79304114958006
H            2.88315183157523        2.00164133390409       -0.17375217047272
H            3.56191264838503       -1.77380524080423        0.00072762871427
H           -1.55210357621070        3.17887236511793       -0.06611075926159
H           -3.06850766230851        2.04383402747438        0.04957852994066
H           -4.80934679554459        2.12674804077973        0.49370580118793
H           -1.17020479144289       -3.11859990709991        0.88544158587252
H           -1.19744636159186       -3.12223604819128       -0.90359103677494
H           -2.57376776836357       -2.47659084385053        0.01080292702714
H            1.31183753528053       -2.97646116900657        0.00203802334074

          :  Hamiltonian                  GFN2-xTB          :
         :: total energy             -42.105970064077 Eh    ::
         :: gradient norm              0.003463809784 Eh/a0 ::
         :: HOMO-LUMO gap              0.123203686812 eV    ::
         :: SCC energy               -42.624121265130 Eh    ::
         :: -> dispersion             -0.022875416216 Eh    ::
         :: repulsion energy           0.518070138997 Eh    ::

    * Orbital Energies and Occupations

         #    Occupation            Energy/Eh            Energy/eV
      -------------------------------------------------------------
         1        2.0000           -0.9108913             -24.7866
       ...           ...                  ...                  ...
        25        2.0000           -0.6715648             -18.2742
        26        2.0000           -0.6690183             -18.2049
        27        2.0000           -0.6628239             -18.0364
        28        1.9999           -0.6328028             -17.2194
        29        1.9999           -0.6299628             -17.1422
        30        1.9999           -0.6279387             -17.0871
        31        1.9998           -0.6188839             -16.8407
        32        1.9997           -0.6146639             -16.7259
        33        1.9997           -0.6133756             -16.6908
        34        1.9982           -0.5852591             -15.9257
        35        1.9943           -0.5668296             -15.4242
        36        1.9903           -0.5584167             -15.1953
        37        1.0100           -0.4743966             -12.9090 (HOMO)
        38        0.8678           -0.4698689             -12.7858 (LUMO)
        39        0.1195           -0.4304410             -11.7129
        40        0.0178           -0.3994829             -10.8705
        41        0.0031           -0.3717586             -10.1161
        42        0.0000           -0.2876964              -7.8286
        43        0.0000           -0.2089534              -5.6859
        44                         -0.1966502              -5.3511
        45                         -0.1517986              -4.1307
        46                         -0.1459184              -3.9706
        47                         -0.0786086              -2.1390
        48                         -0.0535151              -1.4562
       ...                                ...                  ...
        67                          0.5479341              14.9100
      -------------------------------------------------------------
                  HL-Gap            0.0045277 Eh            0.1232 eV

     #   Z          covCN         q      C6AA      α(0)
     1   6 C        3.691    -0.094    22.481     6.785
     2   7 N        2.830     0.077    19.907     6.627
     3   6 C        3.048     0.047    26.901     8.506
     4   7 N        2.790    -0.058    22.359     7.023
     5   6 C        3.042     0.106    25.628     8.303
     6   6 C        3.105    -0.023    28.438     8.738
     7   6 C        2.773     0.254    22.735     7.809
     8   8 O        0.857    -0.362    20.930     6.134
     9   7 N        2.740    -0.031    21.853     6.943
    10   6 C        2.813    -0.021    28.524     8.750
    11   6 C        2.737     0.309    21.756     7.637
    12   8 O        0.859    -0.352    20.748     6.107
    13   7 N        2.737    -0.050    22.200     6.998
    14   6 C        3.699    -0.073    22.077     6.720
    15   1 H        0.924     0.107     1.723     2.053
    16   1 H        0.925     0.105     1.743     2.065
    17   1 H        0.925     0.134     1.506     1.919
    18   1 H        0.926     0.124     1.585     1.969
    19   1 H        0.926     0.133     1.512     1.923
    20   1 H        0.925     0.134     1.504     1.918
    21   1 H        0.000     0.013     7.102     4.873
    22   1 H        0.925     0.083     1.944     2.180
    23   1 H        0.925     0.084     1.937     2.177
    24   1 H        0.925     0.127     1.556     1.951
    25   1 H        0.860     0.229     0.970     1.543

Wiberg/Mayer (AO) data.
largest (>0.10) Wiberg bond orders for each atom

     #   Z sym  total        # sym  WBO       # sym  WBO       # sym  WBO
 ---------------------------------------------------------------------------
     1   6 C    3.917 --     2 N    0.987    16 H    0.963    17 H    0.962
                            15 H    0.957
     2   7 N    3.647 --     3 C    1.378     6 C    1.145     1 C    0.987
     3   6 C    3.819 --     2 N    1.378     4 N    1.267    18 H    0.953
     4   7 N    3.579 --     3 C    1.267     5 C    1.193    25 H    0.919
     5   6 C    3.899 --     6 C    1.327     4 N    1.193    13 N    1.191
     6   6 C    3.908 --     5 C    1.327     2 N    1.145     7 C    1.118
     7   6 C    3.865 --     8 O    1.676     6 C    1.118     9 N    0.979
     8   8 O    1.959 --     7 C    1.676     9 N    0.108
     9   7 N    3.613 --    10 C    1.347    11 C    1.016     7 C    0.979
                             8 O    0.108
    10   6 C    3.301 --     9 N    1.347    19 H    0.957    20 H    0.908
    11   6 C    3.904 --    12 O    1.706    13 N    1.087     9 N    1.016
    12   8 O    2.017 --    11 C    1.706    13 N    0.134
    13   7 N    3.565 --     5 C    1.191    11 C    1.087    14 C    0.970
                            12 O    0.134
    14   6 C    3.924 --    22 H    0.972    23 H    0.971    13 N    0.970
                            24 H    0.965
    15   1 H    0.984 --     1 C    0.957
    16   1 H    0.985 --     1 C    0.963
    17   1 H    0.982 --     1 C    0.962
    18   1 H    0.984 --     3 C    0.953
    19   1 H    0.979 --    10 C    0.957
    20   1 H    0.981 --    10 C    0.908
    21   1 H    0.060
    22   1 H    0.991 --    14 C    0.972
    23   1 H    0.991 --    14 C    0.971
    24   1 H    0.983 --    14 C    0.965
    25   1 H    0.947 --     4 N    0.919
 ---------------------------------------------------------------------------

molecular dipole:
                 x           y           z       tot (Debye)
 q only:        2.362      -1.978       0.035
   full:        2.581      -2.435       0.056       9.020

           -------------------------------------------------
          | TOTAL ENERGY              -42.105970064077 Eh   |
          | GRADIENT NORM               0.003463809784 Eh/α |
          | HOMO-LUMO GAP               0.123203686812 eV   |
           -------------------------------------------------

 * finished run on 2024/06/05 at 19:57:57.472
