   * xtb version 6.6.1 (8d0f1dd) compiled by 'conda@1efc2f54142f' on 2023-08-01
          program call               : xtb xtbopt.xyz --opt crude --input .xc2 --gfn2

   ID    Z sym.   atoms
    1    6 C      1, 3, 5-7, 10, 11, 14
    2    7 N      2, 4, 9, 13
    3    8 O      8, 12
    4    1 H      15-25

          :  Hamiltonian                  GFN2-xTB          :
 * total energy  :   -42.0799719 Eh     change       -0.1451639E-10 Eh
   *** GEOMETRY OPTIMIZATION CONVERGED AFTER 1 ITERATIONS ***

 final structure:
================
25
 xtb: 6.6.1 (8d0f1dd)
C            3.23044744954922        1.19651648977866       -0.00259166175830
N            2.27987073064013        0.11527383480164        0.03118554455954
C            2.55007259013996       -1.17795494996788        0.05765269074983
N            1.41035755247072       -1.89132465742013        0.10916294162910
C            0.35936819060979       -1.00472617867832        0.11116502345891
C            0.91591074068492        0.26858483482273        0.06228083339302
C            0.10341636334449        1.46787752125923        0.02975843863503
O            0.51904407206202        2.60175932155496       -0.00409149575136
N           -1.25747148597001        1.15085705653459        0.03541274856162
C           -2.19888202348696        2.26766873975877       -0.01282866111901
C           -1.85180902009801       -0.07966588459699        0.06679630335592
O           -3.03349593250112       -0.25478448615842        0.04215568933502
N           -0.97044407060726       -1.24341653234608        0.14556873413938
C           -1.54541240599982       -2.45524487311814        0.23573475249551
H            3.74631812336986        1.27435711964103        0.95559131260597
H            3.96798959104746        1.02810963961193       -0.78624396040390
H            2.69715685186517        2.12844354734567       -0.18975474309488
H            3.53433616748766       -1.60729094446558        0.03995053592498
H           -1.62578810440051        3.19110980645078       -0.00328940584004
H           -2.79864255076987        2.20359382433420       -0.91937743003643
H           -2.86307921343936        2.22514767749357        0.84864352176861
H           -0.94952214073792       -3.34127213549264        0.33806991207638
H           -1.79180510269771       -4.85429782814332       -1.51491301698950
H           -2.61804991271265       -2.49068512379660        0.23498079674190
H            1.35054505424978       -2.90039727760353        0.12015221346264

          :  Hamiltonian                  GFN2-xTB          :
         :: total energy             -42.079971941439 Eh    ::
         :: gradient norm              0.005434024927 Eh/a0 ::
         :: HOMO-LUMO gap              0.283573699309 eV    ::
         :: SCC energy               -42.605093716976 Eh    ::
         :: -> dispersion             -0.022722539857 Eh    ::
         :: repulsion energy           0.525027724116 Eh    ::

    * Orbital Energies and Occupations

         #    Occupation            Energy/Eh            Energy/eV
      -------------------------------------------------------------
         1        2.0000           -0.9258050             -25.1924
       ...           ...                  ...                  ...
        25        2.0000           -0.6731316             -18.3168
        26        2.0000           -0.6713612             -18.2687
        27        2.0000           -0.6620509             -18.0153
        28        2.0000           -0.6415439             -17.4573
        29        2.0000           -0.6329129             -17.2224
        30        2.0000           -0.6310185             -17.1709
        31        2.0000           -0.6252831             -17.0148
        32        2.0000           -0.6002334             -16.3332
        33        2.0000           -0.5949273             -16.1888
        34        2.0000           -0.5874275             -15.9847
        35        1.9999           -0.5674884             -15.4421
        36        1.9999           -0.5650134             -15.3748
        37        1.3121           -0.4889961             -13.3063 (HOMO)
        38        0.6768           -0.4785750             -13.0227 (LUMO)
        39        0.0112           -0.4428451             -12.0504
        40        0.0001           -0.4031020             -10.9690
        41        0.0000           -0.3767904             -10.2530
        42                         -0.2925231              -7.9600
        43                         -0.2181089              -5.9350
        44                         -0.2062450              -5.6122
        45                         -0.1555495              -4.2327
        46                         -0.1392086              -3.7881
        47                         -0.0724826              -1.9724
        48                         -0.0469141              -1.2766
       ...                                ...                  ...
        67                          0.5578709              15.1804
      -------------------------------------------------------------
                  HL-Gap            0.0104211 Eh            0.2836 eV

     #   Z          covCN         q      C6AA      α(0)
     1   6 C        3.692    -0.099    22.578     6.799
     2   7 N        2.836     0.095    19.603     6.576
     3   6 C        3.060     0.062    26.551     8.450
     4   7 N        2.793    -0.053    22.258     7.007
     5   6 C        3.042     0.094    25.879     8.344
     6   6 C        3.121    -0.018    28.276     8.709
     7   6 C        2.763     0.269    22.453     7.760
     8   8 O        0.858    -0.365    20.999     6.144
     9   7 N        2.744    -0.079    22.775     7.088
    10   6 C        3.714    -0.065    21.882     6.684
    11   6 C        2.733     0.312    21.695     7.626
    12   8 O        0.859    -0.333    20.394     6.055
    13   7 N        2.735     0.008    21.127     6.827
    14   6 C        2.796    -0.056    29.385     8.880
    15   1 H        0.924     0.114     1.661     2.015
    16   1 H        0.925     0.109     1.701     2.040
    17   1 H        0.925     0.142     1.446     1.880
    18   1 H        0.926     0.133     1.515     1.925
    19   1 H        0.925     0.116     1.649     2.008
    20   1 H        0.925     0.098     1.805     2.101
    21   1 H        0.925     0.098     1.802     2.099
    22   1 H        0.926     0.092     1.858     2.132
    23   1 H        0.000    -0.043     9.794     5.722
    24   1 H        0.926     0.136     1.492     1.910
    25   1 H        0.860     0.234     0.948     1.525

Wiberg/Mayer (AO) data.
largest (>0.10) Wiberg bond orders for each atom

     #   Z sym  total        # sym  WBO       # sym  WBO       # sym  WBO
 ---------------------------------------------------------------------------
     1   6 C    3.910 --     2 N    0.982    16 H    0.962    17 H    0.959
                            15 H    0.953
     2   7 N    3.721 --     3 C    1.420     6 C    1.170     1 C    0.982
     3   6 C    3.916 --     2 N    1.420     4 N    1.307    18 H    0.949
     4   7 N    3.581 --     3 C    1.307     5 C    1.161    25 H    0.916
     5   6 C    3.891 --     6 C    1.336    13 N    1.173     4 N    1.161
     6   6 C    3.866 --     5 C    1.336     2 N    1.170     7 C    1.068
     7   6 C    3.931 --     8 O    1.685     9 N    1.088     6 C    1.068
     8   8 O    2.013 --     7 C    1.685     9 N    0.144
     9   7 N    3.583 --    11 C    1.170     7 C    1.088    10 C    0.960
                            12 O    0.153     8 O    0.144
    10   6 C    3.916 --    19 H    0.969    21 H    0.969    20 H    0.968
                             9 N    0.960
    11   6 C    3.933 --    12 O    1.738     9 N    1.170    13 N    0.927
    12   8 O    2.077 --    11 C    1.738     9 N    0.153
    13   7 N    3.634 --    14 C    1.295     5 C    1.173    11 C    0.927
    14   6 C    3.399 --    13 N    1.295    22 H    0.966    24 H    0.958
    15   1 H    0.986 --     1 C    0.953
    16   1 H    0.987 --     1 C    0.962
    17   1 H    0.980 --     1 C    0.959
    18   1 H    0.981 --     3 C    0.949
    19   1 H    0.986 --    10 C    0.969
    20   1 H    0.990 --    10 C    0.968
    21   1 H    0.989 --    10 C    0.969
    22   1 H    0.991 --    14 C    0.966
    23   1 H    0.091
    24   1 H    0.981 --    14 C    0.958
    25   1 H    0.945 --     4 N    0.916
 ---------------------------------------------------------------------------

molecular dipole:
                 x           y           z       tot (Debye)
 q only:        2.862      -1.415       0.309
   full:        3.146      -2.018       0.317       9.535

           -------------------------------------------------
          | TOTAL ENERGY              -42.079971941439 Eh   |
          | GRADIENT NORM               0.005434024927 Eh/α |
          | HOMO-LUMO GAP               0.283573699309 eV   |
           -------------------------------------------------

 * finished run on 2024/06/05 at 19:58:07.650
