   * xtb version 6.6.1 (8d0f1dd) compiled by 'conda@1efc2f54142f' on 2023-08-01
          program call               : xtb xtbopt.xyz --opt crude --input .xc2 --gfn2

   ID    Z sym.   atoms
    1    6 C      1, 3, 5-7, 10, 11, 14
    2    7 N      2, 4, 9, 13
    3    8 O      8, 12
    4    1 H      15-25

          :  Hamiltonian                  GFN2-xTB          :
 * total energy  :   -42.1685428 Eh     change       -0.1291767E-10 Eh
   *** GEOMETRY OPTIMIZATION CONVERGED AFTER 1 ITERATIONS ***

 final structure:
================
25
 xtb: 6.6.1 (8d0f1dd)
C            3.92152546216002        3.06906561005975        0.05623844727720
N            2.20667683466254       -0.78645472213104       -0.01142390649963
C            2.21907719980293       -2.08592994979911       -0.03096946638818
N            0.95312426845780       -2.61308916298566       -0.03257175408936
C            0.10124788990329       -1.55692914514419       -0.01370950203002
C            0.90427038354652       -0.40875839212909       -0.00026098399766
C            0.31115982661575        0.90537789707841        0.01397567505215
O            0.90234442736966        1.96418889244359        0.03364810786279
N           -1.08695707942459        0.84920943923056       -0.00095749777226
C           -1.81237641294551        2.10771732257057       -0.00883010266114
C           -1.88699996890211       -0.28061647782078       -0.00268556473428
O           -3.08979611189371       -0.20474805003887       -0.00196063855954
N           -1.24587839784567       -1.52661049065593       -0.00695307456447
C           -2.04847472487191       -2.73061352457027       -0.00186433856891
H            4.39003667858847        3.33106540930306        0.98481970933533
H            4.48220812554083        3.12847960672195       -0.85661408851158
H            2.89175593828554        2.75610397657488        0.04073139154776
H            3.10706245099320       -2.68531664964197       -0.04539459413745
H           -1.08759846600805        2.91987467535320       -0.01189270032764
H           -2.44806712496408        2.16442609037810       -0.89401147689435
H           -2.45236936811567        2.17662009086377        0.87220322899257
H           -1.83772366116584       -3.32501982020191        0.88875580475931
H           -1.85338842203001       -3.32372565753130       -0.89681233653048
H           -3.09686654101608       -2.43224869343562        0.00716276445494
H            0.71643830735630       -3.59382973290464       -0.04945148511361

          :  Hamiltonian                  GFN2-xTB          :
         :: total energy             -42.168542780983 Eh    ::
         :: gradient norm              0.001421105803 Eh/a0 ::
         :: HOMO-LUMO gap              1.626679943328 eV    ::
         :: SCC energy               -42.691729244934 Eh    ::
         :: -> dispersion             -0.020801630419 Eh    ::
         :: repulsion energy           0.523116333507 Eh    ::

    * Orbital Energies and Occupations

         #    Occupation            Energy/Eh            Energy/eV
      -------------------------------------------------------------
         1        2.0000           -0.8873035             -24.1448
       ...           ...                  ...                  ...
        25        1.9968           -0.6563282             -17.8596
        26        1.9939           -0.6413275             -17.4514
        27        1.9910           -0.6320775             -17.1997
        28        1.9881           -0.6254061             -17.0182
        29        1.9806           -0.6137290             -16.7004
        30        1.9798           -0.6126875             -16.6721
        31        1.9779           -0.6105305             -16.6134
        32        1.9772           -0.6097817             -16.5930
        33        1.9507           -0.5911525             -16.0861
        34        1.8941           -0.5723227             -15.5737
        35        1.8939           -0.5722728             -15.5723
        36        1.8534           -0.5640758             -15.3493
        37        1.7469           -0.5496935             -14.9579 (HOMO)
        38        0.7155           -0.4899141             -13.3312 (LUMO)
        39        0.0433           -0.4132925             -11.2463
        40        0.0193           -0.3938354             -10.7168
        41        0.0056           -0.3643465              -9.9144
        42        0.0002           -0.2830957              -7.7034
        43        0.0000           -0.2018916              -5.4938
        44        0.0000           -0.1598214              -4.3490
        45        0.0000           -0.1351296              -3.6771
        46                         -0.0696130              -1.8943
        47                         -0.0487393              -1.3263
        48                         -0.0324615              -0.8833
       ...                                ...                  ...
        67                          0.5412677              14.7286
      -------------------------------------------------------------
                  HL-Gap            0.0597794 Eh            1.6267 eV

     #   Z          covCN         q      C6AA      α(0)
     1   6 C        2.779    -0.086    30.125     8.990
     2   7 N        1.905    -0.150    25.025     7.417
     3   6 C        3.148     0.103    25.478     8.257
     4   7 N        2.788    -0.078    22.748     7.084
     5   6 C        3.053     0.112    25.475     8.278
     6   6 C        3.197     0.024    26.932     8.459
     7   6 C        2.764     0.272    22.397     7.750
     8   8 O        0.858    -0.334    20.407     6.057
     9   7 N        2.745    -0.071    22.624     7.064
    10   6 C        3.709    -0.060    21.806     6.674
    11   6 C        2.732     0.317    21.613     7.611
    12   8 O        0.860    -0.342    20.553     6.078
    13   7 N        2.737    -0.042    22.058     6.975
    14   6 C        3.697    -0.070    22.011     6.711
    15   1 H        0.926     0.129     1.546     1.944
    16   1 H        0.926     0.128     1.550     1.947
    17   1 H        0.926     0.151     1.382     1.838
    18   1 H        0.926     0.112     1.677     2.025
    19   1 H        0.925     0.122     1.594     1.974
    20   1 H        0.924     0.113     1.670     2.021
    21   1 H        0.924     0.113     1.667     2.019
    22   1 H        0.924     0.094     1.841     2.122
    23   1 H        0.924     0.094     1.841     2.122
    24   1 H        0.925     0.130     1.533     1.937
    25   1 H        0.860     0.216     1.026     1.587

Wiberg/Mayer (AO) data.
largest (>0.10) Wiberg bond orders for each atom

     #   Z sym  total        # sym  WBO       # sym  WBO       # sym  WBO
 ---------------------------------------------------------------------------
     1   6 C    2.896 --    16 H    0.970    15 H    0.970    17 H    0.949
     2   7 N    2.974 --     3 C    1.552     6 C    1.258
     3   6 C    3.835 --     2 N    1.552     4 N    1.208    18 H    0.953
     4   7 N    3.559 --     5 C    1.222     3 C    1.208    25 H    0.924
     5   6 C    3.874 --     6 C    1.276     4 N    1.222    13 N    1.197
     6   6 C    3.827 --     5 C    1.276     2 N    1.258     7 C    1.076
     7   6 C    3.918 --     8 O    1.656     9 N    1.088     6 C    1.076
     8   8 O    1.938 --     7 C    1.656     9 N    0.117
     9   7 N    3.486 --    11 C    1.119     7 C    1.088    10 C    0.979
                             8 O    0.117    12 O    0.117
    10   6 C    3.864 --     9 N    0.979    19 H    0.954    20 H    0.945
                            21 H    0.944
    11   6 C    3.941 --    12 O    1.667     9 N    1.119    13 N    1.063
    12   8 O    1.965 --    11 C    1.667     9 N    0.117    13 N    0.108
    13   7 N    3.489 --     5 C    1.197    11 C    1.063    14 C    0.978
                            12 O    0.108
    14   6 C    3.899 --    13 N    0.978    22 H    0.959    23 H    0.959
                            24 H    0.957
    15   1 H    0.971 --     1 C    0.970
    16   1 H    0.971 --     1 C    0.970
    17   1 H    0.963 --     1 C    0.949
    18   1 H    0.983 --     3 C    0.953
    19   1 H    0.973 --    10 C    0.954
    20   1 H    0.962 --    10 C    0.945
    21   1 H    0.961 --    10 C    0.944
    22   1 H    0.976 --    14 C    0.959
    23   1 H    0.976 --    14 C    0.959
    24   1 H    0.977 --    14 C    0.957
    25   1 H    0.952 --     4 N    0.924
 ---------------------------------------------------------------------------

molecular dipole:
                 x           y           z       tot (Debye)
 q only:        1.487      -1.187      -0.015
   full:        1.362      -1.852      -0.023       5.843

           -------------------------------------------------
          | TOTAL ENERGY              -42.168542780983 Eh   |
          | GRADIENT NORM               0.001421105803 Eh/α |
          | HOMO-LUMO GAP               1.626679943328 eV   |
           -------------------------------------------------

 * finished run on 2024/06/05 at 19:58:42.723
