   * xtb version 6.6.1 (8d0f1dd) compiled by 'conda@1efc2f54142f' on 2023-08-01
          program call               : xtb struc.xyz --opt loose --input .xc1 --gfn2

   ID    Z sym.   atoms
    1    7 N      1, 17
    2    6 C      2-6, 8, 9, 11-16, 18-23, 25, 26, 28-33
    3    8 O      7, 10, 24, 27
    4    1 H      34-72
constraining bond 23 55 to    5.1400000 Å, actual value:    2.7160408 Å

          :  Hamiltonian                  GFN2-xTB          :
 * total energy  :   -98.3550276 Eh     change       -0.4035485E-08 Eh
 * total energy  :   -98.6986855 Eh     change       -0.3436579E+00 Eh
 * total energy  :   -98.9260569 Eh     change       -0.2273714E+00 Eh
 * total energy  :   -99.0510079 Eh     change       -0.1249510E+00 Eh
 * total energy  :   -99.1203511 Eh     change       -0.6934319E-01 Eh
 * total energy  :   -99.1666878 Eh     change       -0.4633672E-01 Eh
 * total energy  :   -99.2079914 Eh     change       -0.4130360E-01 Eh
 * total energy  :   -99.2408849 Eh     change       -0.3289352E-01 Eh
 * total energy  :   -99.2544853 Eh     change       -0.1360036E-01 Eh
 * total energy  :   -99.2607770 Eh     change       -0.6291724E-02 Eh
 * total energy  :   -99.2681645 Eh     change       -0.1239415E-03 Eh
 * total energy  :   -99.2682757 Eh     change       -0.1111609E-03 Eh
 * total energy  :   -99.2683837 Eh     change       -0.1080566E-03 Eh
 * total energy  :   -99.2684976 Eh     change       -0.1138728E-03 Eh
 * total energy  :   -99.2686325 Eh     change       -0.1348653E-03 Eh
 * total energy  :   -99.2687515 Eh     change       -0.1190318E-03 Eh
 * total energy  :   -99.2688118 Eh     change       -0.6028515E-04 Eh
 * total energy  :   -99.2688960 Eh     change       -0.8419149E-04 Eh
 * total energy  :   -99.2689458 Eh     change       -0.4983624E-04 Eh
   *** GEOMETRY OPTIMIZATION CONVERGED AFTER 26 ITERATIONS ***

 final structure:
================
72
 xtb: 6.6.1 (8d0f1dd)
N           -1.89740467267228        2.79904142639777        2.23404853263980
C           -1.84949410513360        2.12321814351466        1.18507970257989
C           -3.00267813801260        1.91683349771221        0.24291464197337
C           -3.47701075633109        0.47353713785411        0.32804069833714
C           -4.42372918331527        0.00411408673469       -0.58483966366325
C           -4.89810071616035       -1.29553944691370       -0.53264164175847
O           -5.82048722625573       -1.82180603035389       -1.36477799401976
C           -6.45195570162561       -0.98823052403650       -2.30792242995163
C           -4.40075816622266       -2.18279852309480        0.45982205484701
O           -4.90705042055399       -3.43204835165133        0.42603006024639
C           -4.51996093865770       -4.35582892573001        1.41600160594524
C           -3.46345841017343       -1.71040406914280        1.36404540458277
C           -3.01124655246919       -0.39761862559735        1.30018743859410
C           -2.45256405793753        2.20630710924700       -1.17836577680348
C           -1.52771525477418        1.11048492547098       -1.73994497172951
C           -0.19114267512877        1.08347384162148       -1.10500382503991
N            0.45701221840583       -0.01002039107934       -0.71191665190747
C            1.83738158634202        0.06860417239026       -0.29852591577815
C            2.79906674358688       -0.41249436854497       -1.40330436802414
C            4.22107797166912       -0.20785099741561       -0.96317443015972
C            4.85992535985621        1.00236789590958       -1.20226310411641
C            6.15703584503549        1.21449866164827       -0.77715580311987
C            6.84191176418928        0.21384997422683       -0.09178675311981
O            8.11002863663143        0.30916679703862        0.37999697378136
C            8.94556595030186        1.27097565954869        0.10254713645946
C            6.19610816844010       -1.02491117730527        0.17212743341537
O            6.93580259861686       -1.93075470790777        0.83555851275250
C            6.39425417964271       -3.20355168126549        1.10996660587577
C            4.89418873153092       -1.21086202535504       -0.27045837971823
C           -0.15715241215707       -1.31573862723901       -0.73573183142743
C           -4.21335770033045        2.85053505962334        0.54197595700984
C           -4.85497282971634        2.52118601958687        1.88762631225740
C           -3.85368653030156        4.33278954694629        0.49034629407967
H           -4.80636434596404        0.67147876296882       -1.33884586733201
H           -6.96054694442603       -0.14905387997788       -1.82380134344547
H           -7.18808675356599       -1.61639189925627       -2.80554507100887
H           -5.74207977360036       -0.60871472293848       -3.05014250668476
H           -4.77079989723641       -3.99827717133785        2.41898182267685
H           -5.08347626567647       -5.26256398049546        1.20498850767886
H           -3.44857616881624       -4.57526533612220        1.36320576393608
H           -3.08362823457141       -2.35452236177571        2.14055403557433
H           -2.30556429091387       -0.05822518606054        2.04268002206501
H           -3.29283403391529        2.32170865840889       -1.86213533510467
H           -1.91118741507570        3.15308459829856       -1.15981768768314
H           -2.02437522155619        0.14398232521875       -1.67618444652984
H           -1.38001670359176        1.34030748326467       -2.80334234624024
H           -0.92939524983591        1.63068027776105        0.81058300130320
H            0.37155299327634        2.00547734914724       -1.09404299096350
H            1.98001529938816       -0.54160355853256        0.59778293555509
H            2.08004151123182        1.10344945357110       -0.04793888412534
H            2.60605901928915        0.16265593918646       -2.31020505688366
H            2.61551301293467       -1.46604185591891       -1.61588034726958
H            4.34595687397907        1.78746822189514       -1.73471536983594
H            6.62450696746152        2.16650136226616       -0.96848926830549
H           10.42351721874714        3.65650172058157        1.20291248716842
H            8.71398765442400        2.09031417785450       -0.55813655485228
H            9.89646721331190        1.20251972707578        0.59622773512575
H            7.18157245504787       -3.74757851309176        1.62765299648416
H            5.51623867273659       -3.13345707904109        1.75881927084838
H            6.13290813568724       -3.73341734843550        0.18941172116481
H            4.39852672695108       -2.15074819607696       -0.08845996268044
H           -0.30745359088897       -1.66437248371735       -1.75996115911157
H           -1.12419952122568       -1.29197729924354       -0.22729014090567
H            0.48656809959800       -2.02350988416943       -0.21953806224936
H           -4.95559704205396        2.65657106932535       -0.24064448182213
H           -4.15390909722478        2.71789249722752        2.69222724498239
H           -5.16127959119746        1.47888750153997        1.93267733580911
H           -5.73441532393732        3.14301660947285        2.03325155114162
H           -3.09525253670995        4.56420017420958        1.23196194457825
H           -3.49802960446802        4.63066764739797       -0.49260842158997
H           -4.73868427534186        4.92200413854504        0.71605500968158
H           -1.04659768158946        2.88996510063669        2.78051493640963

          :  Hamiltonian                  GFN2-xTB          :
         :: total energy             -99.268945812284 Eh    ::
         :: gradient norm              0.003357951744 Eh/a0 ::
         :: HOMO-LUMO gap              0.458858467477 eV    ::
         :: SCC energy              -100.643277377882 Eh    ::
         :: -> dispersion             -0.075162939622 Eh    ::
         :: repulsion energy           1.373105090997 Eh    ::

    * Orbital Energies and Occupations

         #    Occupation            Energy/Eh            Energy/eV
      -------------------------------------------------------------
         1        2.0000           -0.8466425             -23.0383
       ...           ...                  ...                  ...
        78        1.9989           -0.5339480             -14.5295
        79        1.9984           -0.5282151             -14.3735
        80        1.9983           -0.5275613             -14.3557
        81        1.9976           -0.5223686             -14.2144
        82        1.9961           -0.5145556             -14.0018
        83        1.9955           -0.5122428             -13.9388
        84        1.9951           -0.5108963             -13.9022
        85        1.9945           -0.5090443             -13.8518
        86        1.9818           -0.4899814             -13.3331
        87        1.9769           -0.4861737             -13.2295
        88        1.9410           -0.4710247             -12.8172
        89        1.8783           -0.4590268             -12.4908
        90        1.1654           -0.4209851             -11.4556 (HOMO)
        91        0.6499           -0.4041223             -10.9967 (LUMO)
        92        0.4050           -0.3939937             -10.7211
        93        0.0154           -0.3387973              -9.2191
        94        0.0065           -0.3250161              -8.8441
        95        0.0049           -0.3205187              -8.7218
        96        0.0037           -0.3160729              -8.6008
        97        0.0031           -0.3130335              -8.5181
        98        0.0000           -0.2015768              -5.4852
        99        0.0000           -0.1903365              -5.1793
       100                         -0.1379563              -3.7540
       101                         -0.0733428              -1.9958
       ...                                ...                  ...
       171                          0.5731225              15.5955
      -------------------------------------------------------------
                  HL-Gap            0.0168627 Eh            0.4589 eV

     #   Z          covCN         q      C6AA      α(0)
     1   7 N        1.774    -0.268    27.785     7.806
     2   6 C        2.826     0.101    25.752     8.315
     3   6 C        3.907     0.006    20.413     6.422
     4   6 C        2.974     0.003    27.965     8.674
     5   6 C        2.921    -0.080    29.998     8.982
     6   6 C        2.863     0.129    25.164     8.223
     7   8 O        1.706    -0.231    17.822     5.700
     8   6 C        3.645     0.028    20.445     6.499
     9   6 C        2.864     0.128    25.191     8.227
    10   8 O        1.706    -0.229    17.804     5.697
    11   6 C        3.645     0.027    20.450     6.499
    12   6 C        2.914    -0.075    29.875     8.963
    13   6 C        2.921    -0.054    29.337     8.882
    14   6 C        3.812    -0.065    21.734     6.636
    15   6 C        3.802    -0.069    21.814     6.650
    16   6 C        2.843     0.005    27.905     8.657
    17   7 N        2.729     0.007    21.136     6.828
    18   6 C        3.756    -0.016    20.910     6.520
    19   6 C        3.808    -0.072    21.872     6.657
    20   6 C        2.969     0.006    27.874     8.660
    21   6 C        2.922    -0.049    29.214     8.864
    22   6 C        2.912    -0.055    29.374     8.887
    23   6 C        2.870     0.104    25.692     8.309
    24   8 O        1.710    -0.095    15.769     5.362
    25   6 C        2.734     0.039    27.111     8.525
    26   6 C        2.860     0.140    24.952     8.188
    27   8 O        1.706    -0.228    17.776     5.692
    28   6 C        3.644     0.025    20.495     6.507
    29   6 C        2.919    -0.080    29.988     8.980
    30   6 C        3.699    -0.070    22.016     6.711
    31   6 C        3.853    -0.007    20.672     6.467
    32   6 C        3.756    -0.119    22.831     6.813
    33   6 C        3.755    -0.118    22.817     6.811
    34   1 H        0.926     0.052     2.294     2.369
    35   1 H        0.924     0.054     2.274     2.358
    36   1 H        0.925     0.081     1.969     2.194
    37   1 H        0.924     0.047     2.356     2.400
    38   1 H        0.924     0.055     2.262     2.352
    39   1 H        0.925     0.081     1.970     2.195
    40   1 H        0.924     0.047     2.358     2.401
    41   1 H        0.926     0.051     2.307     2.375
    42   1 H        0.926     0.038     2.479     2.462
    43   1 H        0.925     0.060     2.202     2.320
    44   1 H        0.924     0.053     2.283     2.363
    45   1 H        0.925     0.065     2.136     2.285
    46   1 H        0.923     0.079     1.993     2.208
    47   1 H        0.922     0.006     2.958     2.690
    48   1 H        0.926     0.068     2.113     2.273
    49   1 H        0.924     0.066     2.125     2.280
    50   1 H        0.924     0.067     2.116     2.275
    51   1 H        0.924     0.059     2.217     2.328
    52   1 H        0.924     0.058     2.218     2.329
    53   1 H        0.926     0.052     2.292     2.367
    54   1 H        0.926     0.064     2.148     2.292
    55   1 H        0.000    -0.131    16.957     7.530
    56   1 H        0.926     0.077     2.009     2.216
    57   1 H        0.926     0.109     1.701     2.040
    58   1 H        0.925     0.084     1.933     2.174
    59   1 H        0.924     0.051     2.303     2.373
    60   1 H        0.924     0.055     2.264     2.353
    61   1 H        0.926     0.053     2.282     2.362
    62   1 H        0.924     0.075     2.028     2.227
    63   1 H        0.924     0.080     1.978     2.199
    64   1 H        0.925     0.078     2.002     2.212
    65   1 H        0.924     0.037     2.489     2.467
    66   1 H        0.925     0.070     2.091     2.261
    67   1 H        0.925     0.035     2.511     2.478
    68   1 H        0.925     0.051     2.309     2.376
    69   1 H        0.925     0.059     2.208     2.324
    70   1 H        0.925     0.034     2.528     2.487
    71   1 H        0.925     0.054     2.266     2.354
    72   1 H        0.860     0.156     1.358     1.826

Wiberg/Mayer (AO) data.
largest (>0.10) Wiberg bond orders for each atom

     #   Z sym  total        # sym  WBO       # sym  WBO       # sym  WBO
 ---------------------------------------------------------------------------
     1   7 N    3.042 --     2 C    1.957    72 H    0.942
     2   6 C    3.927 --     1 N    1.957     3 C    0.995    47 H    0.897
     3   6 C    3.976 --     2 C    0.995     4 C    0.968    14 C    0.958
                            31 C    0.942
     4   6 C    3.951 --    13 C    1.415     5 C    1.368     3 C    0.968
     5   6 C    3.963 --     6 C    1.402     4 C    1.368    34 H    0.958
     6   6 C    3.907 --     5 C    1.402     9 C    1.222     7 O    1.099
     7   8 O    2.255 --     6 C    1.099     8 C    0.978
     8   6 C    3.932 --     7 O    0.978    36 H    0.977    35 H    0.974
                            37 H    0.973
     9   6 C    3.903 --    12 C    1.394     6 C    1.222    10 O    1.100
    10   8 O    2.253 --     9 C    1.100    11 C    0.978
    11   6 C    3.932 --    10 O    0.978    39 H    0.977    40 H    0.974
                            38 H    0.973
    12   6 C    3.963 --    13 C    1.401     9 C    1.394    41 H    0.964
    13   6 C    3.956 --     4 C    1.415    12 C    1.401    42 H    0.963
    14   6 C    3.972 --    15 C    0.981    44 H    0.972    43 H    0.969
                             3 C    0.958
    15   6 C    3.987 --    16 C    1.060    14 C    0.981    45 H    0.962
                            46 H    0.928
    16   6 C    3.578 --    17 N    1.386    15 C    1.060    48 H    0.958
    17   7 N    3.467 --    16 C    1.386    30 C    0.999    18 C    0.991
    18   6 C    3.957 --    17 N    0.991    50 H    0.968    19 C    0.966
                            49 H    0.964
    19   6 C    3.977 --    20 C    1.011    52 H    0.971    51 H    0.971
                            18 C    0.966
    20   6 C    3.917 --    21 C    1.392    29 C    1.387    19 C    1.011
    21   6 C    3.973 --    22 C    1.446    20 C    1.392    53 H    0.967
    22   6 C    3.916 --    21 C    1.446    23 C    1.355    54 H    0.961
    23   6 C    3.891 --    22 C    1.355    26 C    1.228    24 O    1.054
    24   8 O    2.435 --    25 C    1.285    23 C    1.054
    25   6 C    3.352 --    24 O    1.285    56 H    0.964    57 H    0.961
    26   6 C    3.894 --    29 C    1.387    23 C    1.228    27 O    1.114
    27   8 O    2.275 --    26 C    1.114    28 C    0.973
    28   6 C    3.930 --    58 H    0.977    59 H    0.975    60 H    0.975
                            27 O    0.973
    29   6 C    3.960 --    26 C    1.387    20 C    1.387    61 H    0.962
    30   6 C    3.958 --    17 N    0.999    64 H    0.978    62 H    0.967
                            63 H    0.960
    31   6 C    3.973 --    33 C    1.009    32 C    1.008    65 H    0.960
                             3 C    0.942
    32   6 C    3.979 --    31 C    1.008    67 H    0.982    68 H    0.981
                            66 H    0.974
    33   6 C    3.984 --    31 C    1.009    70 H    0.983    71 H    0.980
                            69 H    0.977
    34   1 H    0.996 --     5 C    0.958
    35   1 H    0.994 --     8 C    0.974
    36   1 H    0.993 --     8 C    0.977
    37   1 H    0.994 --     8 C    0.973
    38   1 H    0.993 --    11 C    0.973
    39   1 H    0.993 --    11 C    0.977
    40   1 H    0.994 --    11 C    0.974
    41   1 H    0.996 --    12 C    0.964
    42   1 H    0.998 --    13 C    0.963
    43   1 H    0.995 --    14 C    0.969
    44   1 H    0.996 --    14 C    0.972
    45   1 H    0.995 --    15 C    0.962
    46   1 H    0.970 --    15 C    0.928
    47   1 H    0.987 --     2 C    0.897
    48   1 H    0.995 --    16 C    0.958
    49   1 H    0.991 --    18 C    0.964
    50   1 H    0.994 --    18 C    0.968
    51   1 H    0.995 --    19 C    0.971
    52   1 H    0.995 --    19 C    0.971
    53   1 H    0.997 --    21 C    0.967
    54   1 H    0.995 --    22 C    0.961
    55   1 H    0.019
    56   1 H    0.994 --    25 C    0.964
    57   1 H    0.987 --    25 C    0.961
    58   1 H    0.992 --    28 C    0.977
    59   1 H    0.995 --    28 C    0.975
    60   1 H    0.994 --    28 C    0.975
    61   1 H    0.996 --    29 C    0.962
    62   1 H    0.985 --    30 C    0.967
    63   1 H    0.987 --    30 C    0.960
    64   1 H    0.994 --    30 C    0.978
    65   1 H    0.993 --    31 C    0.960
    66   1 H    0.991 --    32 C    0.974
    67   1 H    0.997 --    32 C    0.982
    68   1 H    0.994 --    32 C    0.981
    69   1 H    0.994 --    33 C    0.977
    70   1 H    0.997 --    33 C    0.983
    71   1 H    0.994 --    33 C    0.980
    72   1 H    0.970 --     1 N    0.942
 ---------------------------------------------------------------------------

molecular dipole:
                 x           y           z       tot (Debye)
 q only:        0.360      -0.987      -1.124
   full:        0.718      -1.036      -1.275       4.556

           -------------------------------------------------
          | TOTAL ENERGY              -99.268945812284 Eh   |
          | GRADIENT NORM               0.003357951744 Eh/α |
          | HOMO-LUMO GAP               0.458858467477 eV   |
           -------------------------------------------------

 * finished run on 2024/04/06 at 11:14:22.193
