   * xtb version 6.6.1 (8d0f1dd) compiled by 'conda@1efc2f54142f' on 2023-08-01
          program call               : xtb struc.xyz --opt loose --input .xc1 --gfn2

   ID    Z sym.   atoms
    1    6 C      1, 3, 5-7, 10, 11, 14
    2    7 N      2, 4, 9, 13
    3    8 O      8, 12
    4    1 H      15-25
constraining bond 7 21 to    5.1400000 Å, actual value:    3.1541658 Å

          :  Hamiltonian                  GFN2-xTB          :
 * total energy  :   -28.1652332 Eh     change       -0.6650680E-10 Eh
 * total energy  :   -35.2577237 Eh     change       -0.7092490E+01 Eh
 * total energy  :   -39.5539364 Eh     change       -0.4296213E+01 Eh
 * total energy  :   -41.4735972 Eh     change       -0.1919661E+01 Eh
 * total energy  :   -41.9201481 Eh     change       -0.4465508E+00 Eh
 * total energy  :   -41.9531037 Eh     change       -0.3295565E-01 Eh
 * total energy  :   -41.9622205 Eh     change       -0.9116841E-02 Eh
 * total energy  :   -41.9773568 Eh     change       -0.1513621E-01 Eh
 * total energy  :   -41.9894321 Eh     change       -0.1207536E-01 Eh
 * total energy  :   -41.9978675 Eh     change       -0.8435365E-02 Eh
 * total energy  :   -42.1048208 Eh     change       -0.1459570E-03 Eh
 * total energy  :   -42.1050179 Eh     change       -0.1971675E-03 Eh
 * total energy  :   -42.1053215 Eh     change       -0.3035772E-03 Eh
 * total energy  :   -42.1055840 Eh     change       -0.2625142E-03 Eh
 * total energy  :   -42.1057813 Eh     change       -0.1972722E-03 Eh
 * total energy  :   -42.1058151 Eh     change       -0.3374571E-04 Eh
 * total energy  :   -42.1058672 Eh     change       -0.5213900E-04 Eh
 * total energy  :   -42.1059100 Eh     change       -0.4277680E-04 Eh
 * total energy  :   -42.1059554 Eh     change       -0.4545511E-04 Eh
   *** GEOMETRY OPTIMIZATION CONVERGED AFTER 42 ITERATIONS ***

 final structure:
================
25
 xtb: 6.6.1 (8d0f1dd)
C            3.36731222973403        1.04684413870422       -0.01410776208062
N            2.37412292393626        0.00638694985860       -0.03210732364128
C            2.59775815886041       -1.30448552106759       -0.00478899927598
N            1.41934626003177       -1.97080376778371        0.00017270496106
C            0.41448917038027       -1.05125345391511       -0.02216113093874
C            1.00946155741482        0.20457889843555       -0.04423948488745
C            0.24962485770327        1.41525840213165       -0.08332092523575
O            0.66392317482195        2.55111983058982       -0.13446469584086
N           -1.16753199255294        1.14392150075538       -0.04440556501640
C           -1.99000425953506        2.20069893845630       -0.03837756675977
C           -1.77575937086928       -0.14496542301481       -0.02057040954586
O           -2.96890180142327       -0.27094233937273       -0.00666678526845
N           -0.91958251822049       -1.24418209000143       -0.01766474914411
C           -1.48998313699376       -2.57991306808046       -0.00789574826909
H            3.86661153087419        1.07475696397425        0.95531689536873
H            4.11269412543278        0.87092620270035       -0.78861174054863
H            2.87690937450055        2.00330234265735       -0.18656708950628
H            3.56317560328848       -1.76854106791444        0.00940804868218
H           -1.54271625881208        3.17778988585599       -0.07324916377120
H           -3.06588275748761        2.05104029915787        0.06846558950260
H           -4.80807651188442        2.10496344499910        0.51860558466064
H           -1.17679534676749       -3.11907196533695        0.88613901241043
H           -1.19129569785659       -3.12550218741567       -0.90303612673197
H           -2.57382166451004       -2.47860958708862        0.00050696112278
H            1.31535386403420       -2.97507878568471        0.01479208765417

          :  Hamiltonian                  GFN2-xTB          :
         :: total energy             -42.105955423825 Eh    ::
         :: gradient norm              0.002868910516 Eh/a0 ::
         :: HOMO-LUMO gap              0.121747050735 eV    ::
         :: SCC energy               -42.624615221936 Eh    ::
         :: -> dispersion             -0.022880453825 Eh    ::
         :: repulsion energy           0.518577953521 Eh    ::

    * Orbital Energies and Occupations

         #    Occupation            Energy/Eh            Energy/eV
      -------------------------------------------------------------
         1        2.0000           -0.9109330             -24.7877
       ...           ...                  ...                  ...
        25        2.0000           -0.6714949             -18.2723
        26        2.0000           -0.6690952             -18.2070
        27        2.0000           -0.6629600             -18.0401
        28        1.9999           -0.6328340             -17.2203
        29        1.9999           -0.6300436             -17.1444
        30        1.9999           -0.6279765             -17.0881
        31        1.9998           -0.6190271             -16.8446
        32        1.9997           -0.6147648             -16.7286
        33        1.9997           -0.6131249             -16.6840
        34        1.9983           -0.5854543             -15.9310
        35        1.9943           -0.5668614             -15.4251
        36        1.9904           -0.5584360             -15.1958
        37        1.0091           -0.4742639             -12.9054 (HOMO)
        38        0.8686           -0.4697897             -12.7836 (LUMO)
        39        0.1194           -0.4303288             -11.7098
        40        0.0179           -0.3994353             -10.8692
        41        0.0031           -0.3716288             -10.1125
        42        0.0000           -0.2876236              -7.8266
        43        0.0000           -0.2090567              -5.6887
        44                         -0.1965448              -5.3483
        45                         -0.1515375              -4.1235
        46                         -0.1461881              -3.9780
        47                         -0.0785680              -2.1379
        48                         -0.0536867              -1.4609
       ...                                ...                  ...
        67                          0.5494254              14.9506
      -------------------------------------------------------------
                  HL-Gap            0.0044741 Eh            0.1217 eV

     #   Z          covCN         q      C6AA      α(0)
     1   6 C        3.691    -0.094    22.484     6.785
     2   7 N        2.830     0.077    19.905     6.626
     3   6 C        3.049     0.047    26.902     8.507
     4   7 N        2.791    -0.058    22.359     7.023
     5   6 C        3.042     0.106    25.626     8.303
     6   6 C        3.107    -0.023    28.438     8.737
     7   6 C        2.774     0.254    22.735     7.809
     8   8 O        0.857    -0.362    20.934     6.134
     9   7 N        2.740    -0.032    21.856     6.943
    10   6 C        2.813    -0.021    28.517     8.749
    11   6 C        2.736     0.309    21.755     7.637
    12   8 O        0.859    -0.351    20.729     6.104
    13   7 N        2.737    -0.050    22.205     6.999
    14   6 C        3.698    -0.073    22.076     6.720
    15   1 H        0.924     0.107     1.723     2.053
    16   1 H        0.925     0.105     1.743     2.065
    17   1 H        0.925     0.134     1.504     1.918
    18   1 H        0.926     0.124     1.585     1.969
    19   1 H        0.926     0.133     1.511     1.922
    20   1 H        0.924     0.134     1.506     1.919
    21   1 H        0.000     0.012     7.119     4.879
    22   1 H        0.925     0.084     1.943     2.180
    23   1 H        0.925     0.084     1.938     2.177
    24   1 H        0.925     0.127     1.557     1.952
    25   1 H        0.860     0.229     0.970     1.543

Wiberg/Mayer (AO) data.
largest (>0.10) Wiberg bond orders for each atom

     #   Z sym  total        # sym  WBO       # sym  WBO       # sym  WBO
 ---------------------------------------------------------------------------
     1   6 C    3.917 --     2 N    0.986    16 H    0.963    17 H    0.962
                            15 H    0.957
     2   7 N    3.647 --     3 C    1.378     6 C    1.145     1 C    0.986
     3   6 C    3.819 --     2 N    1.378     4 N    1.266    18 H    0.953
     4   7 N    3.579 --     3 C    1.266     5 C    1.194    25 H    0.919
     5   6 C    3.899 --     6 C    1.326     4 N    1.194    13 N    1.191
     6   6 C    3.908 --     5 C    1.326     2 N    1.145     7 C    1.119
     7   6 C    3.864 --     8 O    1.676     6 C    1.119     9 N    0.978
     8   8 O    1.959 --     7 C    1.676     9 N    0.108
     9   7 N    3.613 --    10 C    1.350    11 C    1.015     7 C    0.978
                             8 O    0.108
    10   6 C    3.302 --     9 N    1.350    19 H    0.956    20 H    0.908
    11   6 C    3.903 --    12 O    1.707    13 N    1.087     9 N    1.015
    12   8 O    2.019 --    11 C    1.707    13 N    0.134
    13   7 N    3.565 --     5 C    1.191    11 C    1.087    14 C    0.970
                            12 O    0.134
    14   6 C    3.924 --    22 H    0.972    23 H    0.972    13 N    0.970
                            24 H    0.965
    15   1 H    0.984 --     1 C    0.957
    16   1 H    0.985 --     1 C    0.963
    17   1 H    0.982 --     1 C    0.962
    18   1 H    0.984 --     3 C    0.953
    19   1 H    0.979 --    10 C    0.956
    20   1 H    0.981 --    10 C    0.908
    21   1 H    0.060
    22   1 H    0.991 --    14 C    0.972
    23   1 H    0.991 --    14 C    0.972
    24   1 H    0.983 --    14 C    0.965
    25   1 H    0.947 --     4 N    0.919
 ---------------------------------------------------------------------------

molecular dipole:
                 x           y           z       tot (Debye)
 q only:        2.362      -1.974       0.052
   full:        2.581      -2.432       0.075       9.015

           -------------------------------------------------
          | TOTAL ENERGY              -42.105955423825 Eh   |
          | GRADIENT NORM               0.002868910516 Eh/α |
          | HOMO-LUMO GAP               0.121747050735 eV   |
           -------------------------------------------------

 * finished run on 2024/06/05 at 19:59:16.150
