   * xtb version 6.6.1 (8d0f1dd) compiled by 'conda@1efc2f54142f' on 2023-08-01
          program call               : xtb struc.xyz --opt loose --input .xc1 --gfn2

   ID    Z sym.   atoms
    1    6 C      1, 3, 5-7, 10, 11, 14
    2    7 N      2, 4, 9, 13
    3    8 O      8, 12
    4    1 H      15-25
constraining bond 12 14 to    5.7600000 Å, actual value:    2.7358220 Å

          :  Hamiltonian                  GFN2-xTB          :
 * total energy  :   -25.9180022 Eh     change       -0.6650680E-10 Eh
 * total energy  :   -31.4310967 Eh     change       -0.5513094E+01 Eh
 * total energy  :   -36.0052063 Eh     change       -0.4574110E+01 Eh
 * total energy  :   -39.1302174 Eh     change       -0.3125011E+01 Eh
 * total energy  :   -40.9152508 Eh     change       -0.1785033E+01 Eh
 * total energy  :   -41.5631865 Eh     change       -0.6479357E+00 Eh
 * total energy  :   -41.6484913 Eh     change       -0.8530478E-01 Eh
 * total energy  :   -41.6562040 Eh     change       -0.7712727E-02 Eh
 * total energy  :   -41.6776356 Eh     change       -0.2143157E-01 Eh
 * total energy  :   -41.6819182 Eh     change       -0.4282621E-02 Eh
 * total energy  :   -42.1489785 Eh     change       -0.1271062E-02 Eh
 * total energy  :   -42.1504668 Eh     change       -0.1488277E-02 Eh
 * total energy  :   -42.1514847 Eh     change       -0.1017874E-02 Eh
 * total energy  :   -42.1523275 Eh     change       -0.8427842E-03 Eh
 * total energy  :   -42.1526668 Eh     change       -0.3393728E-03 Eh
 * total energy  :   -42.1529954 Eh     change       -0.3285362E-03 Eh
 * total energy  :   -42.1532027 Eh     change       -0.2073626E-03 Eh
 * total energy  :   -42.1532942 Eh     change       -0.9142973E-04 Eh
 * total energy  :   -42.1533416 Eh     change       -0.4738817E-04 Eh
   *** GEOMETRY OPTIMIZATION CONVERGED AFTER 74 ITERATIONS ***

 final structure:
================
25
 xtb: 6.6.1 (8d0f1dd)
C            3.17257059563302        1.08462767405412       -0.00776890367073
N            2.03375716454426        0.21494192455996       -0.00557989212743
C            2.03920116935488       -1.14949625210240       -0.00850207792046
N            0.84042623644547       -1.66271868369179        0.00548113134911
C           -0.03318968709708       -0.62362986188926        0.01905219979095
C            0.73344903712396        0.58227515979196        0.01258499061153
C            0.07133207122654        1.86777545583002        0.00511284863448
O            0.64533932345968        2.93923036648353       -0.01740604401410
N           -1.30667963591789        1.74932141625894        0.02285007368674
C           -2.09865483913700        2.95453417450401        0.01259080402252
C           -2.04322375500639        0.52086837017812        0.03625598489558
O           -3.24448490970503        0.57518153813122        0.04722996197658
N           -1.33451042274549       -0.63498481170813        0.03345847691860
C           -0.54861351543896       -4.51457011484396       -0.02241346849947
H            3.71986061448059        0.99368649942293        0.93362365939627
H            3.84661572524623        0.82057841958328       -0.82432510693773
H            2.83708198543491        2.11547984607029       -0.12578874088119
H            2.93954281094749       -1.73478712715136       -0.02177662018914
H           -1.42617729842389        3.81236170234751        0.03225356312999
H           -2.72621175716760        2.98538495095023       -0.88246728257075
H           -2.76754594371310        2.97121924808910        0.87711117701876
H           -0.26980377524965       -5.04604799260471        0.88363420657046
H           -0.21479598139481       -5.07645610113761       -0.89105021799892
H           -1.62937923815353       -4.39836862575537       -0.05671848083789
H           -0.07547446064741       -3.52816863377592       -0.02627062444991

          :  Hamiltonian                  GFN2-xTB          :
         :: total energy             -42.153341569816 Eh    ::
         :: gradient norm              0.002739721106 Eh/a0 ::
         :: HOMO-LUMO gap              0.298728569452 eV    ::
         :: SCC energy               -42.677502476028 Eh    ::
         :: -> dispersion             -0.020549578929 Eh    ::
         :: repulsion energy           0.524143996955 Eh    ::

    * Orbital Energies and Occupations

         #    Occupation            Energy/Eh            Energy/eV
      -------------------------------------------------------------
         1        2.0000           -0.9041437             -24.6030
       ...           ...                  ...                  ...
        25        1.9980           -0.6593193             -17.9410
        26        1.9971           -0.6538768             -17.7929
        27        1.9910           -0.6357038             -17.2984
        28        1.9875           -0.6305504             -17.1582
        29        1.9771           -0.6208692             -16.8947
        30        1.9749           -0.6193946             -16.8546
        31        1.9438           -0.6064118             -16.5013
        32        1.9196           -0.6005390             -16.3415
        33        1.9156           -0.5997250             -16.3193
        34        1.8652           -0.5919022             -16.1065
        35        1.8209           -0.5870156             -15.9735
        36        1.8085           -0.5858515             -15.9418
        37        1.5438           -0.5695969             -15.4995 (HOMO)
        38        1.2570           -0.5586188             -15.2008 (LUMO)
        39        0.0018           -0.4395292             -11.9602
        40        0.0001           -0.3967890             -10.7972
        41        0.0000           -0.3791266             -10.3166
        42        0.0000           -0.2958433              -8.0503
        43                         -0.1948084              -5.3010
        44                         -0.1626178              -4.4251
        45                         -0.0928870              -2.5276
        46                         -0.0781026              -2.1253
        47                         -0.0399640              -1.0875
        48                         -0.0312798              -0.8512
       ...                                ...                  ...
        67                          0.5232651              14.2388
      -------------------------------------------------------------
                  HL-Gap            0.0109781 Eh            0.2987 eV

     #   Z          covCN         q      C6AA      α(0)
     1   6 C        3.689    -0.084    22.307     6.759
     2   7 N        2.815     0.063    20.139     6.665
     3   6 C        3.159     0.103    25.436     8.245
     4   7 N        1.899    -0.163    25.323     7.460
     5   6 C        3.134     0.171    24.134     8.041
     6   6 C        3.121     0.009    27.634     8.609
     7   6 C        2.764     0.276    22.325     7.738
     8   8 O        0.858    -0.324    20.226     6.030
     9   7 N        2.745    -0.063    22.469     7.040
    10   6 C        3.702    -0.061    21.832     6.681
    11   6 C        2.735     0.339    21.234     7.544
    12   8 O        0.860    -0.267    19.194     5.874
    13   7 N        1.834    -0.161    25.277     7.450
    14   6 C        3.699    -0.169    23.964     7.001
    15   1 H        0.924     0.118     1.630     1.997
    16   1 H        0.924     0.115     1.651     2.009
    17   1 H        0.924     0.131     1.526     1.932
    18   1 H        0.926     0.122     1.595     1.975
    19   1 H        0.925     0.129     1.541     1.941
    20   1 H        0.924     0.128     1.549     1.947
    21   1 H        0.924     0.129     1.544     1.943
    22   1 H        0.925     0.110     1.698     2.038
    23   1 H        0.925     0.110     1.699     2.038
    24   1 H        0.925     0.114     1.660     2.015
    25   1 H        0.924     0.124     1.584     1.968

Wiberg/Mayer (AO) data.
largest (>0.10) Wiberg bond orders for each atom

     #   Z sym  total        # sym  WBO       # sym  WBO       # sym  WBO
 ---------------------------------------------------------------------------
     1   6 C    3.892 --     2 N    0.996    17 H    0.956    16 H    0.949
                            15 H    0.941
     2   7 N    3.614 --     6 C    1.257     3 C    1.221     1 C    0.996
     3   6 C    3.844 --     4 N    1.535     2 N    1.221    18 H    0.951
     4   7 N    2.963 --     3 C    1.535     5 C    1.205
     5   6 C    3.887 --    13 N    1.409     4 N    1.205     6 C    1.138
     6   6 C    3.670 --     2 N    1.257     5 C    1.138     7 C    1.069
     7   6 C    3.935 --     8 O    1.639     9 N    1.137     6 C    1.069
     8   8 O    1.894 --     7 C    1.639     9 N    0.124
     9   7 N    3.414 --     7 C    1.137    11 C    1.003    10 C    0.997
                             8 O    0.124
    10   6 C    3.836 --     9 N    0.997    19 H    0.949    21 H    0.927
                            20 H    0.925
    11   6 C    3.928 --    12 O    1.692    13 N    1.162     9 N    1.003
    12   8 O    1.913 --    11 C    1.692
    13   7 N    2.771 --     5 C    1.409    11 C    1.162
    14   6 C    3.673 --    22 H    0.931    23 H    0.931    24 H    0.927
                            25 H    0.878
    15   1 H    0.968 --     1 C    0.941
    16   1 H    0.972 --     1 C    0.949
    17   1 H    0.975 --     1 C    0.956
    18   1 H    0.982 --     3 C    0.951
    19   1 H    0.967 --    10 C    0.949
    20   1 H    0.942 --    10 C    0.925
    21   1 H    0.944 --    10 C    0.927
    22   1 H    0.933 --    14 C    0.931
    23   1 H    0.933 --    14 C    0.931
    24   1 H    0.929 --    14 C    0.927
    25   1 H    0.916 --    14 C    0.878
 ---------------------------------------------------------------------------

molecular dipole:
                 x           y           z       tot (Debye)
 q only:        1.721      -0.723      -0.011
   full:        2.100      -0.512      -0.010       5.495

           -------------------------------------------------
          | TOTAL ENERGY              -42.153341569816 Eh   |
          | GRADIENT NORM               0.002739721106 Eh/α |
          | HOMO-LUMO GAP               0.298728569452 eV   |
           -------------------------------------------------

 * finished run on 2024/06/05 at 19:58:04.433
