   * xtb version 6.6.1 (8d0f1dd) compiled by 'conda@1efc2f54142f' on 2023-08-01
          program call               : xtb xtbopt.xyz --opt crude --input .xc2 --gfn2

   ID    Z sym.   atoms
    1    6 C      1, 3, 5-7, 10, 11, 14
    2    7 N      2, 4, 9, 13
    3    8 O      8, 12
    4    1 H      15-25

          :  Hamiltonian                  GFN2-xTB          :
 * total energy  :   -42.1371621 Eh     change       -0.3531397E-11 Eh
   *** GEOMETRY OPTIMIZATION CONVERGED AFTER 1 ITERATIONS ***

 final structure:
================
25
 xtb: 6.6.1 (8d0f1dd)
C            3.44056999367176        2.10973656875720        0.01470740891363
N            2.81172395820154        0.81421104192448        0.01370676182583
C            3.41918065595340       -0.36541039288369        0.01800656929180
N            2.51294238063528       -1.35732738216056        0.01400142251470
C            1.26086553792668       -0.79573873085978        0.00635205151199
C            1.46333044905824        0.59172072551203        0.00611002093515
C            0.32333734223760        1.48397478408618        0.00310223295156
O            0.38303324488823        2.69795870748456        0.00987148934725
N           -0.86686105011022        0.78015677755701       -0.00876057560071
C           -2.10107968851530        1.53906248132182       -0.01224838813025
C           -1.01581354754474       -0.63544336723276       -0.00405669345077
O           -2.13090079556132       -1.10517748726646       -0.00536896064158
N            0.10314203140682       -1.40255759305953        0.00126499255692
C           -4.29263673670064       -4.04755625660364       -0.01794589833938
H            4.04932166329645        2.23497444207954        0.91045312083920
H            4.07849683486168        2.22213531969937       -0.86226383289036
H            2.66290539397116        2.87353529259773       -0.00250706586252
H            4.48315516898732       -0.50841438884321        0.02410534719505
H           -1.85122346379042        2.59839662476199       -0.01065671277796
H           -2.68691510372823        1.28766231207423       -0.89754120116428
H           -2.69260828199705        1.28661709122138        0.86885238532058
H           -4.61254811457274       -4.48693489210031        0.90932477005246
H           -4.61870767406652       -4.47436672050406       -0.94618311252293
H           -3.66241460023791       -3.17238573836138       -0.01656290163955
H            2.70013591581025       -2.35059067764209        0.01540838762887

          :  Hamiltonian                  GFN2-xTB          :
         :: total energy             -42.137162069917 Eh    ::
         :: gradient norm              0.004075017988 Eh/a0 ::
         :: HOMO-LUMO gap              1.113115864763 eV    ::
         :: SCC energy               -42.663609885503 Eh    ::
         :: -> dispersion             -0.020212973357 Eh    ::
         :: repulsion energy           0.526451800239 Eh    ::

    * Orbital Energies and Occupations

         #    Occupation            Energy/Eh            Energy/eV
      -------------------------------------------------------------
         1        2.0000           -0.8992233             -24.4691
       ...           ...                  ...                  ...
        25        1.9998           -0.6513497             -17.7241
        26        1.9993           -0.6314190             -17.1818
        27        1.9993           -0.6304026             -17.1541
        28        1.9981           -0.6150101             -16.7353
        29        1.9980           -0.6142495             -16.7146
        30        1.9977           -0.6118615             -16.6496
        31        1.9970           -0.6075760             -16.5330
        32        1.9942           -0.5971333             -16.2488
        33        1.9647           -0.5682778             -15.4636
        34        1.9074           -0.5525671             -15.0361
        35        1.8978           -0.5509167             -14.9912
        36        1.8326           -0.5425530             -14.7636
        37        1.7366           -0.5345211             -14.5451 (HOMO)
        38        0.6648           -0.4936149             -13.4319 (LUMO)
        39        0.0119           -0.4235685             -11.5259
        40        0.0009           -0.3833167             -10.4306
        41        0.0001           -0.3508035              -9.5458
        42        0.0000           -0.2639663              -7.1829
        43                         -0.1813573              -4.9350
        44                         -0.1617025              -4.4001
        45                         -0.1199056              -3.2628
        46                         -0.0705335              -1.9193
        47                         -0.0240221              -0.6537
        48                         -0.0202476              -0.5510
       ...                                ...                  ...
        67                          0.5450488              14.8315
      -------------------------------------------------------------
                  HL-Gap            0.0409063 Eh            1.1131 eV

     #   Z          covCN         q      C6AA      α(0)
     1   6 C        3.692    -0.092    22.454     6.781
     2   7 N        2.827     0.086    19.742     6.599
     3   6 C        3.063     0.064    26.500     8.442
     4   7 N        2.794    -0.054    22.281     7.011
     5   6 C        3.066     0.149    24.713     8.152
     6   6 C        3.131    -0.021    28.322     8.712
     7   6 C        2.767     0.277    22.322     7.738
     8   8 O        0.858    -0.368    21.042     6.150
     9   7 N        2.747    -0.087    22.928     7.112
    10   6 C        3.704    -0.055    21.710     6.662
    11   6 C        2.754     0.339    21.240     7.547
    12   8 O        0.860    -0.354    20.786     6.113
    13   7 N        1.832    -0.251    27.384     7.755
    14   6 C        2.778    -0.072    29.768     8.936
    15   1 H        0.924     0.107     1.722     2.052
    16   1 H        0.924     0.107     1.725     2.054
    17   1 H        0.925     0.135     1.494     1.912
    18   1 H        0.926     0.125     1.573     1.961
    19   1 H        0.925     0.112     1.679     2.026
    20   1 H        0.924     0.102     1.768     2.079
    21   1 H        0.924     0.102     1.768     2.079
    22   1 H        0.926     0.131     1.526     1.932
    23   1 H        0.926     0.131     1.527     1.932
    24   1 H        0.926     0.147     1.409     1.856
    25   1 H        0.860     0.238     0.932     1.512

Wiberg/Mayer (AO) data.
largest (>0.10) Wiberg bond orders for each atom

     #   Z sym  total        # sym  WBO       # sym  WBO       # sym  WBO
 ---------------------------------------------------------------------------
     1   6 C    3.911 --     2 N    0.983    17 H    0.961    16 H    0.959
                            15 H    0.959
     2   7 N    3.710 --     3 C    1.393     6 C    1.182     1 C    0.983
     3   6 C    3.877 --     2 N    1.393     4 N    1.316    18 H    0.951
     4   7 N    3.595 --     3 C    1.316     5 C    1.152    25 H    0.916
     5   6 C    3.948 --    13 N    1.380     6 C    1.259     4 N    1.152
     6   6 C    3.807 --     5 C    1.259     2 N    1.182     7 C    1.076
     7   6 C    3.954 --     8 O    1.638     9 N    1.143     6 C    1.076
     8   8 O    1.942 --     7 C    1.638     9 N    0.140
     9   7 N    3.471 --     7 C    1.143    11 C    1.029    10 C    0.987
                             8 O    0.140    12 O    0.100
    10   6 C    3.891 --     9 N    0.987    19 H    0.961    20 H    0.951
                            21 H    0.951
    11   6 C    3.943 --    12 O    1.649    13 N    1.179     9 N    1.029
    12   8 O    1.912 --    11 C    1.649     9 N    0.100
    13   7 N    2.833 --     5 C    1.380    11 C    1.179
    14   6 C    2.934 --    23 H    0.980    22 H    0.980    24 H    0.973
    15   1 H    0.986 --     1 C    0.959
    16   1 H    0.986 --     1 C    0.959
    17   1 H    0.981 --     1 C    0.961
    18   1 H    0.983 --     3 C    0.951
    19   1 H    0.979 --    10 C    0.961
    20   1 H    0.969 --    10 C    0.951
    21   1 H    0.969 --    10 C    0.951
    22   1 H    0.982 --    14 C    0.980
    23   1 H    0.982 --    14 C    0.980
    24   1 H    0.977 --    14 C    0.973
    25   1 H    0.942 --     4 N    0.916
 ---------------------------------------------------------------------------

molecular dipole:
                 x           y           z       tot (Debye)
 q only:        1.745      -1.825       0.003
   full:        2.184      -1.906       0.005       7.369

           -------------------------------------------------
          | TOTAL ENERGY              -42.137162069917 Eh   |
          | GRADIENT NORM               0.004075017988 Eh/α |
          | HOMO-LUMO GAP               1.113115864763 eV   |
           -------------------------------------------------

 * finished run on 2024/06/05 at 19:59:18.780
