   * xtb version 6.6.1 (8d0f1dd) compiled by 'conda@1efc2f54142f' on 2023-08-01
          program call               : xtb struc.xyz --opt loose --input .xc1 --gfn2

   ID    Z sym.   atoms
    1    7 N      1, 17
    2    6 C      2-6, 8, 9, 11-16, 18-23, 25, 26, 28-33
    3    8 O      7, 10, 24, 27
    4    1 H      34-72
constraining bond 5 43 to    4.7133300 Å, actual value:    2.8140611 Å

          :  Hamiltonian                  GFN2-xTB          :
 * total energy  :  -100.0482120 Eh     change       -0.4035485E-08 Eh
 * total energy  :  -100.5300987 Eh     change       -0.4818867E+00 Eh
 * total energy  :  -101.0950160 Eh     change       -0.5649173E+00 Eh
 * total energy  :  -101.7301770 Eh     change       -0.6351610E+00 Eh
 * total energy  :   -99.0224097 Eh     change        0.2707767E+01 Eh
 * total energy  :  -101.8010960 Eh     change       -0.2778686E+01 Eh
 * total energy  :  -101.8617494 Eh     change       -0.6065341E-01 Eh
 * total energy  :  -101.8770774 Eh     change       -0.1532799E-01 Eh
 * total energy  :  -101.9248947 Eh     change       -0.4781733E-01 Eh
 * total energy  :  -101.9320612 Eh     change       -0.7166473E-02 Eh
 * total energy  :  -102.0129170 Eh     change       -0.4031610E-03 Eh
 * total energy  :  -102.0134629 Eh     change       -0.5459039E-03 Eh
 * total energy  :  -102.0138326 Eh     change       -0.3696797E-03 Eh
 * total energy  :  -102.0141298 Eh     change       -0.2971970E-03 Eh
 * total energy  :  -102.0142865 Eh     change       -0.1567479E-03 Eh
 * total energy  :  -102.0144218 Eh     change       -0.1352872E-03 Eh
 * total energy  :  -102.0144797 Eh     change       -0.5793407E-04 Eh
 * total energy  :  -102.0145470 Eh     change       -0.6728757E-04 Eh
 * total energy  :  -102.0145792 Eh     change       -0.3219459E-04 Eh
   *** GEOMETRY OPTIMIZATION CONVERGED AFTER 55 ITERATIONS ***

 final structure:
================
72
 xtb: 6.6.1 (8d0f1dd)
N           -1.55702662333244        2.68215579075744        2.39159949397725
C           -1.49324234929904        1.82470134511927        1.48279073323902
C           -2.52285746576574        1.70477662725046        0.38037953510421
C           -3.23883588660574        0.37608853808631        0.49107750195441
C           -4.34416149234120        0.12823337779228       -0.51795166497730
C           -4.76162944294603       -1.31973965694776       -0.56919753631582
O           -5.53745135654128       -1.77009960458818       -1.55999767977263
C           -5.96558369814145       -0.89286110176375       -2.57774133531554
C           -4.42933511846711       -2.22661156495952        0.44195219898027
O           -4.95389432421407       -3.46581953688504        0.30795439921000
C           -4.65329383722050       -4.44138090384215        1.28038677262535
C           -3.58145440357125       -1.81731578061661        1.47064311090709
C           -2.97385443922236       -0.54825572306063        1.44949584245341
C           -1.74133275873909        1.78815001190883       -0.94480621671643
C           -1.70530556259770        0.73019068284432       -2.01447294610684
C           -0.44551290595376        1.05367984416619       -1.27173795457572
N            0.18332893304590        0.12420619290106       -0.38709862236509
C            1.58373606402412        0.37845973929203       -0.13711136762028
C            2.52390315037222        0.00956138862846       -1.30756342127340
C            3.95451242260243        0.15678855787497       -0.88812349173157
C            4.63763333113732        1.35046090905561       -1.07041700764659
C            5.95547299800996        1.48411270306834       -0.66390472040687
C            6.61990453512958        0.42618133347208       -0.05742369982237
O            7.89547723007054        0.43946533560028        0.36813873880544
C            8.67436161102570        1.59832419973896        0.17894578429667
C            5.92406489094319       -0.79930049632774        0.14601275002376
O            6.63786430822704       -1.77308961847242        0.74315787609752
C            6.04028854779681       -3.02835498540177        0.96403342060567
C            4.60698514958113       -0.90822417643746       -0.27128154020501
C           -0.16922446815176       -1.27325050710855       -0.50428207828754
C           -3.58801986286849        2.85071199500388        0.42962976631235
C           -4.44118997942021        2.75047142840022        1.69477615867329
C           -3.00509607475172        4.26085024426865        0.35379350366404
H           -5.23833833541530        0.63830979757647       -0.07876844609178
H           -6.55031981050459       -0.06177017816004       -2.17317964313119
H           -6.59724397175862       -1.49080122487625       -3.23201380798603
H           -5.12233360410814       -0.49883896535057       -3.15364532321745
H           -5.01446661615436       -4.14612740807833        2.26976491355324
H           -5.17631222567867       -5.34003247605661        0.95997595963062
H           -3.57870371185883       -4.64379681561617        1.32631059670430
H           -3.33658867635493       -2.48998042424376        2.27360679581614
H           -2.25308666834656       -0.33545684393721        2.22317228043594
H           -4.19198601775967        0.41309453684425       -1.18767723081798
H           -1.73509701585568        2.80111428051377       -1.32550686779071
H           -2.14809238947202       -0.23147499355726       -1.82169771153700
H           -1.78799413994908        1.04403433070254       -3.04459475771168
H           -0.67572765032539        1.10290967797107        1.37172750534711
H            0.27388037729962        1.67308498138440       -1.79972522900735
H            1.87683251534290       -0.20300876544031        0.74122568822875
H            1.70672863123824        1.43743040978354        0.10306950547917
H            2.31367982102336        0.65847849144315       -2.15868255064652
H            2.33139639533353       -1.02212040623732       -1.60346089864427
H            4.14582646635589        2.18592394266590       -1.54468230196914
H            6.46253095389793        2.42082815912501       -0.82779494821655
H            8.26044624853574        2.45236980293192        0.72340666862304
H            8.76545554995731        1.85005900934993       -0.88183713005404
H            9.65745367090560        1.35743603895872        0.57884029265151
H            6.80850771874979       -3.64005218673750        1.43292846862923
H            5.18024544777090       -2.94982295876531        1.63685279650846
H            5.72906287634535       -3.49545870369569        0.02457330122633
H            4.07307027582021       -1.83537371020546       -0.13251492737834
H           -0.00660426940450       -1.67023013417662       -1.51325651302001
H           -1.21543298043115       -1.41606679240023       -0.23577576643830
H            0.43617171643147       -1.84393198998438        0.19769720520131
H           -4.23054195289268        2.71685618834126       -0.44812187314002
H           -3.84696002754390        3.03910886077782        2.55539989040716
H           -4.81534580682342        1.74370811795202        1.86451510434456
H           -5.29037381148296        3.42490403305575        1.61898854076299
H           -2.26574993156276        4.40957162367686        1.13433328664083
H           -2.55452283207825        4.47885175596360       -0.61183703224082
H           -3.80882450719944        4.97748468053696        0.50555525345262
H           -0.80335723687989        2.69965919164896        3.07243744421067

          :  Hamiltonian                  GFN2-xTB          :
         :: total energy            -102.014579224749 Eh    ::
         :: gradient norm              0.002718245242 Eh/a0 ::
         :: HOMO-LUMO gap              1.092963306521 eV    ::
         :: SCC energy              -100.741322424585 Eh    ::
         :: -> dispersion             -0.076183406816 Eh    ::
         :: repulsion energy           1.539179515620 Eh    ::

    * Orbital Energies and Occupations

         #    Occupation            Energy/Eh            Energy/eV
      -------------------------------------------------------------
         1        2.0000           -0.8377895             -22.7974
       ...           ...                  ...                  ...
        78        1.9982           -0.5328078             -14.4984
        79        1.9981           -0.5316685             -14.4674
        80        1.9976           -0.5276343             -14.3577
        81        1.9974           -0.5267245             -14.3329
        82        1.9964           -0.5214597             -14.1896
        83        1.9961           -0.5201279             -14.1534
        84        1.9955           -0.5179754             -14.0948
        85        1.9953           -0.5172434             -14.0749
        86        1.9698           -0.4876087             -13.2685
        87        1.9427           -0.4772144             -12.9857
        88        1.9345           -0.4750437             -12.9266
        89        1.8243           -0.4584863             -12.4760
        90        1.7101           -0.4495401             -12.2326 (HOMO)
        91        0.6366           -0.4093745             -11.1396 (LUMO)
        92        0.0108           -0.3388818              -9.2214
        93        0.0042           -0.3237751              -8.8104
        94        0.0018           -0.3106469              -8.4531
        95        0.0016           -0.3082172              -8.3870
        96        0.0000           -0.2376908              -6.4679
        97        0.0000           -0.1858940              -5.0584
        98        0.0000           -0.1743520              -4.7444
        99                         -0.1056436              -2.8747
       100                         -0.0936425              -2.5481
       101                         -0.0816826              -2.2227
       ...                                ...                  ...
       171                          1.4392603              39.1643
      -------------------------------------------------------------
                  HL-Gap            0.0401657 Eh            1.0930 eV

     #   Z          covCN         q      C6AA      α(0)
     1   7 N        1.774    -0.265    27.709     7.795
     2   6 C        2.827     0.094    25.909     8.341
     3   6 C        3.906     0.010    20.353     6.413
     4   6 C        2.960    -0.002    28.068     8.690
     5   6 C        3.810    -0.108    22.563     6.761
     6   6 C        2.852     0.122    25.318     8.247
     7   8 O        1.706    -0.195    17.255     5.608
     8   6 C        3.644     0.017    20.622     6.527
     9   6 C        2.849     0.126    25.225     8.232
    10   8 O        1.706    -0.237    17.927     5.717
    11   6 C        3.645     0.026    20.478     6.504
    12   6 C        2.913    -0.072    29.791     8.950
    13   6 C        2.903    -0.045    29.115     8.847
    14   6 C        3.866    -0.038    21.209     6.549
    15   6 C        3.806    -0.080    22.021     6.680
    16   6 C        3.805     0.035    19.984     6.364
    17   7 N        2.725    -0.118    23.561     7.209
    18   6 C        3.756     0.000    20.632     6.476
    19   6 C        3.807    -0.071    21.854     6.655
    20   6 C        2.968     0.007    27.869     8.659
    21   6 C        2.921    -0.045    29.111     8.848
    22   6 C        2.913    -0.066    29.634     8.927
    23   6 C        2.864     0.135    25.056     8.205
    24   8 O        1.706    -0.218    17.612     5.666
    25   6 C        3.645     0.024    20.505     6.508
    26   6 C        2.862     0.134    25.059     8.205
    27   8 O        1.706    -0.221    17.669     5.675
    28   6 C        3.645     0.027    20.462     6.501
    29   6 C        2.920    -0.077    29.934     8.972
    30   6 C        3.697    -0.045    21.553     6.640
    31   6 C        3.851    -0.010    20.725     6.475
    32   6 C        3.757    -0.121    22.871     6.819
    33   6 C        3.756    -0.119    22.842     6.814
    34   1 H        0.920     0.101     1.780     2.087
    35   1 H        0.924     0.065     2.143     2.289
    36   1 H        0.925     0.093     1.852     2.128
    37   1 H        0.924     0.061     2.193     2.316
    38   1 H        0.924     0.056     2.244     2.343
    39   1 H        0.925     0.083     1.947     2.182
    40   1 H        0.924     0.051     2.304     2.374
    41   1 H        0.926     0.063     2.165     2.301
    42   1 H        0.926     0.055     2.256     2.349
    43   1 H        0.930     0.131     1.529     1.934
    44   1 H        0.925     0.056     2.248     2.345
    45   1 H        0.926     0.051     2.306     2.375
    46   1 H        0.926     0.048     2.345     2.395
    47   1 H        0.924     0.036     2.505     2.475
    48   1 H        0.925     0.040     2.443     2.444
    49   1 H        0.924     0.050     2.318     2.381
    50   1 H        0.924     0.050     2.323     2.383
    51   1 H        0.924     0.047     2.353     2.399
    52   1 H        0.924     0.052     2.295     2.369
    53   1 H        0.926     0.050     2.321     2.383
    54   1 H        0.926     0.060     2.199     2.319
    55   1 H        0.924     0.057     2.237     2.339
    56   1 H        0.924     0.058     2.225     2.333
    57   1 H        0.925     0.084     1.943     2.180
    58   1 H        0.925     0.083     1.953     2.186
    59   1 H        0.924     0.051     2.310     2.377
    60   1 H        0.924     0.054     2.267     2.355
    61   1 H        0.926     0.050     2.319     2.381
    62   1 H        0.924     0.044     2.394     2.419
    63   1 H        0.925     0.053     2.286     2.364
    64   1 H        0.925     0.056     2.250     2.346
    65   1 H        0.924     0.035     2.514     2.479
    66   1 H        0.925     0.074     2.043     2.235
    67   1 H        0.925     0.031     2.572     2.508
    68   1 H        0.925     0.050     2.323     2.384
    69   1 H        0.925     0.067     2.115     2.274
    70   1 H        0.925     0.034     2.530     2.487
    71   1 H        0.925     0.057     2.229     2.335
    72   1 H        0.860     0.161     1.331     1.807

Wiberg/Mayer (AO) data.
largest (>0.10) Wiberg bond orders for each atom

     #   Z sym  total        # sym  WBO       # sym  WBO       # sym  WBO
 ---------------------------------------------------------------------------
     1   7 N    3.011 --     2 C    1.959    72 H    0.939
     2   6 C    3.931 --     1 N    1.959     3 C    0.979    47 H    0.920
     3   6 C    3.971 --     4 C    0.987     2 C    0.979    14 C    0.948
                            31 C    0.937
     4   6 C    3.787 --    13 C    1.601     5 C    1.014     3 C    0.987
     5   6 C    3.967 --     6 C    1.021     4 C    1.014    43 H    0.949
                            34 H    0.879
     6   6 C    3.673 --     9 C    1.317     7 O    1.159     5 C    1.021
     7   8 O    2.279 --     6 C    1.159     8 C    0.970
     8   6 C    3.920 --    36 H    0.976    37 H    0.970     7 O    0.970
                            35 H    0.970
     9   6 C    3.908 --    12 C    1.338     6 C    1.317    10 O    1.089
    10   8 O    2.243 --     9 C    1.089    11 C    0.976
    11   6 C    3.929 --    39 H    0.976    10 O    0.976    40 H    0.974
                            38 H    0.973
    12   6 C    3.745 --     9 C    1.338    13 C    1.293    41 H    0.965
    13   6 C    3.977 --     4 C    1.601    12 C    1.293    42 H    0.957
    14   6 C    3.896 --    15 C    0.961    44 H    0.959     3 C    0.948
                            16 C    0.919
    15   6 C    3.930 --    46 H    0.976    45 H    0.970    16 C    0.963
                            14 C    0.961
    16   6 C    3.917 --    17 N    1.021    15 C    0.963    48 H    0.959
                            14 C    0.919
    17   7 N    3.152 --    16 C    1.021    30 C    1.008    18 C    1.008
    18   6 C    3.965 --    17 N    1.008    50 H    0.971    49 H    0.968
                            19 C    0.959
    19   6 C    3.971 --    20 C    1.017    51 H    0.970    52 H    0.969
                            18 C    0.959
    20   6 C    3.930 --    21 C    1.395    29 C    1.379    19 C    1.017
    21   6 C    3.932 --    22 C    1.423    20 C    1.395    53 H    0.967
    22   6 C    3.951 --    21 C    1.423    23 C    1.376    54 H    0.963
    23   6 C    3.876 --    22 C    1.376    26 C    1.212    24 O    1.114
    24   8 O    2.248 --    23 C    1.114    25 C    0.975
    25   6 C    3.926 --    57 H    0.976    24 O    0.975    56 H    0.972
                            55 H    0.971
    26   6 C    3.884 --    29 C    1.393    23 C    1.212    27 O    1.107
    27   8 O    2.249 --    26 C    1.107    28 C    0.978
    28   6 C    3.930 --    27 O    0.978    58 H    0.977    59 H    0.973
                            60 H    0.972
    29   6 C    3.952 --    26 C    1.393    20 C    1.379    61 H    0.962
    30   6 C    3.969 --    17 N    1.008    64 H    0.979    63 H    0.969
                            62 H    0.967
    31   6 C    3.967 --    33 C    1.010    32 C    1.008    65 H    0.962
                             3 C    0.937
    32   6 C    3.980 --    31 C    1.008    68 H    0.982    67 H    0.980
                            66 H    0.974
    33   6 C    3.980 --    31 C    1.010    71 H    0.978    70 H    0.978
                            69 H    0.972
    34   1 H    0.937 --     5 C    0.879
    35   1 H    0.990 --     8 C    0.970
    36   1 H    0.991 --     8 C    0.976
    37   1 H    0.990 --     8 C    0.970
    38   1 H    0.993 --    11 C    0.973
    39   1 H    0.992 --    11 C    0.976
    40   1 H    0.994 --    11 C    0.974
    41   1 H    0.995 --    12 C    0.965
    42   1 H    0.996 --    13 C    0.957
    43   1 H    0.976 --     5 C    0.949
    44   1 H    0.994 --    14 C    0.959
    45   1 H    0.997 --    15 C    0.970
    46   1 H    0.994 --    15 C    0.976
    47   1 H    0.977 --     2 C    0.920
    48   1 H    0.990 --    16 C    0.959
    49   1 H    0.994 --    18 C    0.968
    50   1 H    0.995 --    18 C    0.971
    51   1 H    0.996 --    19 C    0.970
    52   1 H    0.995 --    19 C    0.969
    53   1 H    0.997 --    21 C    0.967
    54   1 H    0.994 --    22 C    0.963
    55   1 H    0.990 --    25 C    0.971
    56   1 H    0.990 --    25 C    0.972
    57   1 H    0.992 --    25 C    0.976
    58   1 H    0.992 --    28 C    0.977
    59   1 H    0.992 --    28 C    0.973
    60   1 H    0.991 --    28 C    0.972
    61   1 H    0.996 --    29 C    0.962
    62   1 H    0.981 --    30 C    0.967
    63   1 H    0.991 --    30 C    0.969
    64   1 H    0.996 --    30 C    0.979
    65   1 H    0.993 --    31 C    0.962
    66   1 H    0.991 --    32 C    0.974
    67   1 H    0.998 --    32 C    0.980
    68   1 H    0.994 --    32 C    0.982
    69   1 H    0.992 --    33 C    0.972
    70   1 H    0.997 --    33 C    0.978
    71   1 H    0.993 --    33 C    0.978
    72   1 H    0.965 --     1 N    0.939
 ---------------------------------------------------------------------------

molecular dipole:
                 x           y           z       tot (Debye)
 q only:       -0.811      -0.090      -0.454
   full:       -0.493      -0.289      -0.670       2.239

           -------------------------------------------------
          | TOTAL ENERGY             -102.014579224749 Eh   |
          | GRADIENT NORM               0.002718245242 Eh/α |
          | HOMO-LUMO GAP               1.092963306521 eV   |
           -------------------------------------------------

 * finished run on 2024/04/06 at 11:15:59.345
