   * xtb version 6.6.1 (8d0f1dd) compiled by 'conda@1efc2f54142f' on 2023-08-01
          program call               : xtb xtbopt.xyz --opt crude --input .xc2 --gfn2

   ID    Z sym.   atoms
    1    7 N      1, 17
    2    6 C      2-6, 8, 9, 11-16, 18-23, 25, 26, 28-33
    3    8 O      7, 10, 24, 27
    4    1 H      34-72
########################################################################
[WARNING] Please study the warnings concerning your input carefully
-1- readin_getIntValue: could not parse ''
########################################################################

          :  Hamiltonian                  GFN2-xTB          :
 * total energy  :   -99.2007024 Eh     change       -0.1136868E-11 Eh
 * total energy  :   -99.3611177 Eh     change       -0.1604153E+00 Eh
 * total energy  :   -99.3629317 Eh     change       -0.1813957E-02 Eh
 * total energy  :   -99.3637173 Eh     change       -0.7856232E-03 Eh
 * total energy  :   -99.3639325 Eh     change       -0.2152083E-03 Eh
   *** GEOMETRY OPTIMIZATION CONVERGED AFTER 5 ITERATIONS ***

 final structure:
================
72
 xtb: 6.6.1 (8d0f1dd)
N           -1.56299455332703        2.66947359289496        2.40044274012203
C           -1.49812293080899        1.81901958305666        1.48601039181056
C           -2.52815237920047        1.70090360288057        0.38350611520600
C           -3.24952047519968        0.37508161469511        0.49849019512010
C           -4.36943797388683        0.11569980954103       -0.46856578668470
C           -4.78307946186840       -1.31534588174330       -0.55406555194074
O           -5.55740243804358       -1.76604011832134       -1.54492142737267
C           -5.99060810593994       -0.89628958804411       -2.56569059491932
C           -4.43905862123723       -2.23002166032973        0.45055795164073
O           -4.95843541239760       -3.47199909601136        0.31508992044730
C           -4.65493216766759       -4.44979844552528        1.28488390522991
C           -3.58157599256950       -1.82383053759131        1.47265868203724
C           -2.96891574814456       -0.55726620063468        1.44852674882522
C           -1.74606482988731        1.78058038198882       -0.94143645876032
C           -1.69853171746313        0.72079704012899       -2.01069198318782
C           -0.44419916105345        1.05428345079879       -1.26614728538793
N            0.18731599648841        0.12678394357431       -0.38083269068126
C            1.58750956215511        0.38365385661887       -0.13551892604019
C            2.52658520449338        0.00478551131106       -1.30455138728890
C            3.95741135652197        0.15390620545818       -0.88713021736002
C            4.63930294035054        1.34809088328345       -1.07149120497261
C            5.95695705469304        1.48408326791683       -0.66516479702405
C            6.62280449852188        0.42750447100864       -0.05780310368076
O            7.89819840924728        0.44292533892534        0.36837854451274
C            8.67474948450485        1.60345710560249        0.18012641487668
C            5.92889343379274       -0.79891291524659        0.14606632145559
O            6.64520403268235       -1.77172084209228        0.74179273912107
C            6.05005208861485       -3.02801143101304        0.96381676773551
C            4.61153849301268       -0.90970640831495       -0.26970683163660
C           -0.16553258735586       -1.27071972912677       -0.49867312249943
C           -3.58850236324014        2.85153176941372        0.43476207378191
C           -4.43937066421714        2.75538115906780        1.70209483806433
C           -3.00068764665672        4.25976530582615        0.35814894445633
H           -5.25348103587973        0.67846164959190       -0.11685594708172
H           -6.56967741759784       -0.06022545686619       -2.16471883220443
H           -6.62475691765433       -1.49883016645893       -3.21297568510994
H           -5.14931729196778       -0.50954730695130       -3.14978515777206
H           -5.01507506438978       -4.15790166848214        2.27567118221953
H           -5.17748415746990       -5.34833085256618        0.96304455217138
H           -3.58033675217149       -4.65203861862651        1.32935535521709
H           -3.33025582064460       -2.50058894455101        2.27122812373554
H           -2.23419569297885       -0.35411745357310        2.21218555650482
H           -4.13912670791055        0.51963460124030       -1.45102592811376
H           -1.74776358519691        2.79072177737144       -1.32845442104535
H           -2.13311257391484       -0.24535559669258       -1.81835263830370
H           -1.78133021263614        1.03538977699075       -3.04141458316771
H           -0.67798514067999        1.10066555503402        1.37158556428392
H            0.27450615431152        1.67667751045079       -1.79079401809283
H            1.88279088873011       -0.18948617655681        0.74808980758011
H            1.71012273979379        1.44498480724808        0.09462463326031
H            2.31636995917969        0.64700487518712       -2.16087972945815
H            2.33219258105318       -1.02934908556502       -1.59189365534091
H            4.14611942577849        2.18224458680275       -1.54668568049748
H            6.46271242219614        2.42137603707653       -0.82991287453590
H            8.25795253132948        2.45672940349409        0.72366579462347
H            8.76693861906243        1.85506440370695       -0.88059864216296
H            9.65774974436851        1.36495765424539        0.58167762382934
H            6.81939588757911       -3.63722482599370        1.43414906947880
H            5.18920196972171       -2.95065576036450        1.63564217085791
H            5.74080491136236       -3.49696437846060        0.02458405255316
H            4.07877441186438       -1.83726451521841       -0.12937787216023
H           -0.01539741920337       -1.66310930167634       -1.51144009152873
H           -1.20884406435360       -1.41422549522284       -0.21879471487893
H            0.44823905964770       -1.84443737313207        0.19289036797758
H           -4.23442107687790        2.71950487208320       -0.44035103232350
H           -3.84131575038394        3.04093898156705        2.56150009467829
H           -4.81832186756474        1.75084060001816        1.87167442846563
H           -5.28482478699559        3.43491837827528        1.62875257435302
H           -2.27286798904502        4.41090593822207        1.14841835510178
H           -2.53486342938437        4.47053667957339       -0.60088043851158
H           -3.80429890777134        4.97919517464143        0.49374109570946
H           -0.80969937123733        2.68499419664310        3.08101445728786

          :  Hamiltonian                  GFN2-xTB          :
         :: total energy             -99.363932501285 Eh    ::
         :: gradient norm              0.007589522620 Eh/a0 ::
         :: HOMO-LUMO gap              1.095399019909 eV    ::
         :: SCC energy              -100.715617278413 Eh    ::
         :: -> dispersion             -0.076127012390 Eh    ::
         :: repulsion energy           1.350246629575 Eh    ::

    * Orbital Energies and Occupations

         #    Occupation            Energy/Eh            Energy/eV
      -------------------------------------------------------------
         1        2.0000           -0.8371180             -22.7791
       ...           ...                  ...                  ...
        78        1.9983           -0.5325810             -14.4923
        79        1.9981           -0.5312683             -14.4565
        80        1.9975           -0.5271981             -14.3458
        81        1.9974           -0.5264842             -14.3264
        82        1.9964           -0.5210466             -14.1784
        83        1.9961           -0.5198467             -14.1457
        84        1.9955           -0.5177368             -14.0883
        85        1.9953           -0.5168882             -14.0652
        86        1.9700           -0.4873713             -13.2620
        87        1.9414           -0.4765200             -12.9668
        88        1.9339           -0.4745446             -12.9130
        89        1.8249           -0.4582042             -12.4684
        90        1.7114           -0.4492689             -12.2252 (HOMO)
        91        0.6362           -0.4090137             -11.1298 (LUMO)
        92        0.0108           -0.3384255              -9.2090
        93        0.0042           -0.3234352              -8.8011
        94        0.0018           -0.3103822              -8.4459
        95        0.0016           -0.3079732              -8.3804
        96        0.0000           -0.2382527              -6.4832
        97        0.0000           -0.1856592              -5.0520
        98        0.0000           -0.1746842              -4.7534
        99                         -0.1050151              -2.8576
       100                         -0.0903544              -2.4587
       101                         -0.0791330              -2.1533
       ...                                ...                  ...
       171                          0.5773466              15.7104
      -------------------------------------------------------------
                  HL-Gap            0.0402552 Eh            1.0954 eV

     #   Z          covCN         q      C6AA      α(0)
     1   7 N        1.774    -0.265    27.708     7.795
     2   6 C        2.827     0.094    25.899     8.339
     3   6 C        3.905     0.010    20.355     6.413
     4   6 C        2.961     0.003    27.950     8.672
     5   6 C        3.812    -0.082    22.052     6.684
     6   6 C        2.852     0.127    25.212     8.230
     7   8 O        1.706    -0.193    17.229     5.604
     8   6 C        3.643     0.018    20.618     6.527
     9   6 C        2.849     0.127    25.214     8.230
    10   8 O        1.706    -0.237    17.927     5.717
    11   6 C        3.644     0.026    20.478     6.505
    12   6 C        2.912    -0.071    29.776     8.948
    13   6 C        2.905    -0.044    29.099     8.845
    14   6 C        3.866    -0.038    21.211     6.549
    15   6 C        3.806    -0.079    22.009     6.679
    16   6 C        3.805     0.035    19.984     6.364
    17   7 N        2.725    -0.118    23.567     7.210
    18   6 C        3.756     0.000    20.631     6.476
    19   6 C        3.807    -0.071    21.855     6.655
    20   6 C        2.968     0.007    27.870     8.659
    21   6 C        2.921    -0.045    29.112     8.848
    22   6 C        2.913    -0.066    29.635     8.927
    23   6 C        2.864     0.135    25.058     8.205
    24   8 O        1.706    -0.218    17.614     5.666
    25   6 C        3.645     0.024    20.504     6.508
    26   6 C        2.862     0.134    25.060     8.206
    27   8 O        1.706    -0.221    17.671     5.676
    28   6 C        3.645     0.027    20.462     6.501
    29   6 C        2.920    -0.077    29.934     8.972
    30   6 C        3.697    -0.045    21.554     6.641
    31   6 C        3.851    -0.010    20.725     6.475
    32   6 C        3.757    -0.121    22.869     6.818
    33   6 C        3.756    -0.119    22.839     6.814
    34   1 H        0.922     0.103     1.760     2.075
    35   1 H        0.924     0.065     2.142     2.289
    36   1 H        0.925     0.094     1.841     2.122
    37   1 H        0.924     0.061     2.193     2.316
    38   1 H        0.924     0.056     2.244     2.343
    39   1 H        0.925     0.083     1.947     2.182
    40   1 H        0.924     0.051     2.305     2.374
    41   1 H        0.926     0.063     2.170     2.303
    42   1 H        0.926     0.055     2.256     2.349
    43   1 H        0.925     0.087     1.904     2.158
    44   1 H        0.925     0.056     2.248     2.345
    45   1 H        0.926     0.051     2.303     2.373
    46   1 H        0.926     0.047     2.353     2.399
    47   1 H        0.924     0.036     2.503     2.474
    48   1 H        0.925     0.041     2.438     2.442
    49   1 H        0.924     0.050     2.319     2.382
    50   1 H        0.924     0.050     2.322     2.383
    51   1 H        0.924     0.047     2.353     2.399
    52   1 H        0.924     0.052     2.296     2.370
    53   1 H        0.926     0.050     2.323     2.384
    54   1 H        0.926     0.060     2.200     2.319
    55   1 H        0.924     0.057     2.238     2.340
    56   1 H        0.924     0.058     2.226     2.333
    57   1 H        0.925     0.083     1.944     2.180
    58   1 H        0.925     0.082     1.954     2.186
    59   1 H        0.924     0.051     2.310     2.377
    60   1 H        0.924     0.054     2.268     2.355
    61   1 H        0.926     0.050     2.320     2.382
    62   1 H        0.924     0.044     2.395     2.420
    63   1 H        0.925     0.053     2.287     2.365
    64   1 H        0.925     0.056     2.247     2.344
    65   1 H        0.924     0.035     2.521     2.483
    66   1 H        0.925     0.074     2.041     2.234
    67   1 H        0.925     0.031     2.568     2.506
    68   1 H        0.925     0.050     2.325     2.385
    69   1 H        0.925     0.067     2.116     2.275
    70   1 H        0.925     0.034     2.529     2.487
    71   1 H        0.925     0.057     2.229     2.335
    72   1 H        0.860     0.161     1.329     1.806

Wiberg/Mayer (AO) data.
largest (>0.10) Wiberg bond orders for each atom

     #   Z sym  total        # sym  WBO       # sym  WBO       # sym  WBO
 ---------------------------------------------------------------------------
     1   7 N    3.011 --     2 C    1.959    72 H    0.939
     2   6 C    3.931 --     1 N    1.959     3 C    0.979    47 H    0.920
     3   6 C    3.971 --     4 C    0.986     2 C    0.979    14 C    0.949
                            31 C    0.937
     4   6 C    3.788 --    13 C    1.595     5 C    1.024     3 C    0.986
     5   6 C    3.980 --     6 C    1.033     4 C    1.024    43 H    0.932
                            34 H    0.888
     6   6 C    3.676 --     9 C    1.311     7 O    1.159     5 C    1.033
     7   8 O    2.280 --     6 C    1.159     8 C    0.971
     8   6 C    3.920 --    36 H    0.975     7 O    0.971    35 H    0.970
                            37 H    0.967
     9   6 C    3.907 --    12 C    1.340     6 C    1.311    10 O    1.089
    10   8 O    2.242 --     9 C    1.089    11 C    0.976
    11   6 C    3.929 --    39 H    0.976    10 O    0.976    40 H    0.974
                            38 H    0.974
    12   6 C    3.748 --     9 C    1.340    13 C    1.294    41 H    0.965
    13   6 C    3.977 --     4 C    1.595    12 C    1.294    42 H    0.958
    14   6 C    3.896 --    15 C    0.960    44 H    0.959     3 C    0.949
                            16 C    0.920
    15   6 C    3.931 --    46 H    0.976    45 H    0.969    16 C    0.962
                            14 C    0.960
    16   6 C    3.917 --    17 N    1.021    15 C    0.962    48 H    0.959
                            14 C    0.920
    17   7 N    3.153 --    16 C    1.021    18 C    1.008    30 C    1.008
    18   6 C    3.965 --    17 N    1.008    50 H    0.971    49 H    0.968
                            19 C    0.959
    19   6 C    3.971 --    20 C    1.017    51 H    0.970    52 H    0.969
                            18 C    0.959
    20   6 C    3.930 --    21 C    1.394    29 C    1.379    19 C    1.017
    21   6 C    3.932 --    22 C    1.423    20 C    1.394    53 H    0.968
    22   6 C    3.951 --    21 C    1.423    23 C    1.376    54 H    0.963
    23   6 C    3.876 --    22 C    1.376    26 C    1.212    24 O    1.114
    24   8 O    2.248 --    23 C    1.114    25 C    0.975
    25   6 C    3.926 --    57 H    0.976    24 O    0.975    56 H    0.972
                            55 H    0.971
    26   6 C    3.884 --    29 C    1.393    23 C    1.212    27 O    1.107
    27   8 O    2.249 --    26 C    1.107    28 C    0.978
    28   6 C    3.930 --    27 O    0.978    58 H    0.977    59 H    0.973
                            60 H    0.972
    29   6 C    3.952 --    26 C    1.393    20 C    1.379    61 H    0.962
    30   6 C    3.969 --    17 N    1.008    64 H    0.979    63 H    0.969
                            62 H    0.967
    31   6 C    3.967 --    33 C    1.010    32 C    1.008    65 H    0.962
                             3 C    0.937
    32   6 C    3.980 --    31 C    1.008    68 H    0.982    67 H    0.980
                            66 H    0.974
    33   6 C    3.980 --    31 C    1.010    71 H    0.978    70 H    0.978
                            69 H    0.973
    34   1 H    0.939 --     5 C    0.888
    35   1 H    0.990 --     8 C    0.970
    36   1 H    0.991 --     8 C    0.975
    37   1 H    0.990 --     8 C    0.967
    38   1 H    0.993 --    11 C    0.974
    39   1 H    0.992 --    11 C    0.976
    40   1 H    0.994 --    11 C    0.974
    41   1 H    0.995 --    12 C    0.965
    42   1 H    0.996 --    13 C    0.958
    43   1 H    0.974 --     5 C    0.932
    44   1 H    0.994 --    14 C    0.959
    45   1 H    0.997 --    15 C    0.969
    46   1 H    0.994 --    15 C    0.976
    47   1 H    0.977 --     2 C    0.920
    48   1 H    0.991 --    16 C    0.959
    49   1 H    0.994 --    18 C    0.968
    50   1 H    0.995 --    18 C    0.971
    51   1 H    0.996 --    19 C    0.970
    52   1 H    0.995 --    19 C    0.969
    53   1 H    0.997 --    21 C    0.968
    54   1 H    0.994 --    22 C    0.963
    55   1 H    0.990 --    25 C    0.971
    56   1 H    0.990 --    25 C    0.972
    57   1 H    0.992 --    25 C    0.976
    58   1 H    0.992 --    28 C    0.977
    59   1 H    0.992 --    28 C    0.973
    60   1 H    0.991 --    28 C    0.972
    61   1 H    0.996 --    29 C    0.962
    62   1 H    0.982 --    30 C    0.967
    63   1 H    0.991 --    30 C    0.969
    64   1 H    0.996 --    30 C    0.979
    65   1 H    0.993 --    31 C    0.962
    66   1 H    0.991 --    32 C    0.974
    67   1 H    0.998 --    32 C    0.980
    68   1 H    0.994 --    32 C    0.982
    69   1 H    0.992 --    33 C    0.973
    70   1 H    0.997 --    33 C    0.978
    71   1 H    0.993 --    33 C    0.978
    72   1 H    0.965 --     1 N    0.939
 ---------------------------------------------------------------------------

molecular dipole:
                 x           y           z       tot (Debye)
 q only:       -0.844      -0.112      -0.446
   full:       -0.533      -0.296      -0.691       2.342

           -------------------------------------------------
          | TOTAL ENERGY              -99.363932501285 Eh   |
          | GRADIENT NORM               0.007589522620 Eh/α |
          | HOMO-LUMO GAP               1.095399019909 eV   |
           -------------------------------------------------

 * finished run on 2024/04/06 at 11:16:00.475
