   * xtb version 6.6.1 (8d0f1dd) compiled by 'conda@1efc2f54142f' on 2023-08-01
          program call               : xtb struc.xyz --opt loose --input .xc1 --gfn2

   ID    Z sym.   atoms
    1    6 C      1, 3, 5-7, 10, 11, 14
    2    7 N      2, 4, 9, 13
    3    8 O      8, 12
    4    1 H      15-25
constraining bond 5 12 to    5.7600000 Å, actual value:    3.4583605 Å

          :  Hamiltonian                  GFN2-xTB          :
 * total energy  :   -23.3299872 Eh     change       -0.6650680E-10 Eh
 * total energy  :   -31.8609081 Eh     change       -0.8530921E+01 Eh
 * total energy  :   -37.1533001 Eh     change       -0.5292392E+01 Eh
 * total energy  :   -40.1793956 Eh     change       -0.3026096E+01 Eh
 * total energy  :   -41.3153524 Eh     change       -0.1135957E+01 Eh
 * total energy  :   -41.4964114 Eh     change       -0.1810590E+00 Eh
 * total energy  :   -41.5472579 Eh     change       -0.5084645E-01 Eh
 * total energy  :   -41.6042713 Eh     change       -0.5701343E-01 Eh
 * total energy  :   -41.6398278 Eh     change       -0.3555645E-01 Eh
 * total energy  :   -41.6704735 Eh     change       -0.3064569E-01 Eh
 * total energy  :   -42.1143955 Eh     change       -0.9141934E-03 Eh
 * total energy  :   -42.1146247 Eh     change       -0.2292372E-03 Eh
 * total energy  :   -42.1153322 Eh     change       -0.7075214E-03 Eh
 * total energy  :   -42.1156326 Eh     change       -0.3003944E-03 Eh
 * total energy  :   -42.1159225 Eh     change       -0.2898949E-03 Eh
 * total energy  :   -42.1161677 Eh     change       -0.2452265E-03 Eh
 * total energy  :   -42.1162062 Eh     change       -0.3849235E-04 Eh
 * total energy  :   -42.1162782 Eh     change       -0.7199658E-04 Eh
 * total energy  :   -42.1163164 Eh     change       -0.3819420E-04 Eh
   *** GEOMETRY OPTIMIZATION CONVERGED AFTER 64 ITERATIONS ***

 final structure:
================
25
 xtb: 6.6.1 (8d0f1dd)
C            3.14202557316338        1.22890605527932       -0.04399907457523
N            2.31334567174700        0.05226980956832       -0.02038520245348
C            2.75545479144718       -1.20188862662293        0.08184687545431
N            1.71167895604310       -2.07183220147215        0.09949273725256
C            0.58506168577704       -1.33747316362502        0.00717524821905
C            0.93713395740972        0.01845726524017       -0.07437285686305
C           -0.00364892981045        1.16064002934612       -0.17442418508345
O            0.36594822963587        2.31170081091130       -0.22591581198268
N           -1.37792068795252        0.78641949306488       -0.17495118248102
C           -2.42802186782422        2.07664237681781        0.13588102099305
C           -1.70832819902564       -0.50719248392136       -0.09575187721608
O           -3.54187335783819        2.61997876272859       -0.55176364931991
N           -0.79442502856796       -1.52587701812266       -0.02827326219371
C           -1.31914070145490       -2.88032970964783        0.02116887942380
H            3.58564006217716        1.39641429788096        0.93879391098871
H            3.94077813871291        1.11300333277878       -0.77541474805621
H            2.52454098619258        2.08847403526297       -0.30152721731490
H            3.78472116667419       -1.49361221333400        0.14002235551644
H           -1.68206175396038        2.87358987151480        0.11537147658001
H           -4.32319396770967        2.06034549068825       -0.45627842210780
H           -2.70991142097219        1.78977179774745        1.15160619350918
H           -0.98332882383646       -3.38610389161091        0.92775662053147
H           -0.99328261314740       -3.44688033122828       -0.85283190566352
H           -2.40475511507998       -2.82989599210522        0.02370067870828
H            1.78399476229939       -3.07728925554238        0.16424501603485

          :  Hamiltonian                  GFN2-xTB          :
         :: total energy             -42.116316419436 Eh    ::
         :: gradient norm              0.003863473247 Eh/a0 ::
         :: HOMO-LUMO gap              2.029709674222 eV    ::
         :: SCC energy               -42.593335662245 Eh    ::
         :: -> dispersion             -0.021646484699 Eh    ::
         :: repulsion energy           0.476155820202 Eh    ::

    * Orbital Energies and Occupations

         #    Occupation            Energy/Eh            Energy/eV
      -------------------------------------------------------------
         1        2.0000           -0.9030945             -24.5745
       ...           ...                  ...                  ...
        25        2.0000           -0.6677300             -18.1699
        26        2.0000           -0.6507245             -17.7071
        27        2.0000           -0.6459617             -17.5775
        28        1.9999           -0.6265574             -17.0495
        29        1.9999           -0.6191115             -16.8469
        30        1.9998           -0.6174625             -16.8020
        31        1.9998           -0.6114549             -16.6385
        32        1.9996           -0.6042841             -16.4434
        33        1.9990           -0.5877397             -15.9932
        34        1.9957           -0.5652690             -15.3818
        35        1.9932           -0.5579247             -15.1819
        36        1.9884           -0.5492711             -14.9464
        37        1.8159           -0.5041044             -13.7174 (HOMO)
        38        0.1630           -0.4295139             -11.6877 (LUMO)
        39        0.0360           -0.4045392             -11.0081
        40        0.0095           -0.3831929             -10.4272
        41        0.0003           -0.3301796              -8.9846
        42        0.0000           -0.2896309              -7.8813
        43        0.0000           -0.2044843              -5.5643
        44                         -0.1762226              -4.7953
        45                         -0.1381033              -3.7580
        46                         -0.0911137              -2.4793
        47                         -0.0639096              -1.7391
        48                         -0.0601178              -1.6359
       ...                                ...                  ...
        67                          0.5046586              13.7325
      -------------------------------------------------------------
                  HL-Gap            0.0745905 Eh            2.0297 eV

     #   Z          covCN         q      C6AA      α(0)
     1   6 C        3.691    -0.092    22.453     6.781
     2   7 N        2.828     0.073    19.969     6.637
     3   6 C        3.072     0.045    26.912     8.506
     4   7 N        2.769    -0.051    22.231     7.003
     5   6 C        3.054     0.101    25.705     8.315
     6   6 C        3.093    -0.010    28.163     8.698
     7   6 C        2.764     0.267    22.499     7.768
     8   8 O        0.857    -0.375    21.193     6.172
     9   7 N        2.660    -0.075    22.704     7.077
    10   6 C        3.534     0.115    19.779     6.530
    11   6 C        1.864    -0.064    32.887     9.263
    12   8 O        1.654    -0.355    19.991     6.036
    13   7 N        2.748     0.011    21.073     6.818
    14   6 C        3.704    -0.076    22.110     6.723
    15   1 H        0.924     0.104     1.747     2.067
    16   1 H        0.925     0.101     1.775     2.083
    17   1 H        0.925     0.137     1.484     1.905
    18   1 H        0.926     0.119     1.625     1.993
    19   1 H        0.924     0.134     1.508     1.920
    20   1 H        0.805     0.321     0.662     1.278
    21   1 H        0.924     0.079     1.987     2.205
    22   1 H        0.924     0.076     2.021     2.223
    23   1 H        0.924     0.078     1.998     2.210
    24   1 H        0.925     0.112     1.675     2.024
    25   1 H        0.860     0.226     0.981     1.551

Wiberg/Mayer (AO) data.
largest (>0.10) Wiberg bond orders for each atom

     #   Z sym  total        # sym  WBO       # sym  WBO       # sym  WBO
 ---------------------------------------------------------------------------
     1   6 C    3.917 --     2 N    0.986    16 H    0.964    17 H    0.958
                            15 H    0.957
     2   7 N    3.655 --     3 C    1.373     6 C    1.169     1 C    0.986
     3   6 C    3.814 --     2 N    1.373     4 N    1.253    18 H    0.954
     4   7 N    3.580 --     3 C    1.253     5 C    1.216    25 H    0.921
     5   6 C    3.928 --     6 C    1.362     4 N    1.216    13 N    1.143
     6   6 C    3.910 --     5 C    1.362     2 N    1.169     7 C    1.061
     7   6 C    3.912 --     8 O    1.696     9 N    1.066     6 C    1.061
     8   8 O    2.024 --     7 C    1.696     9 N    0.126
     9   7 N    3.578 --    11 C    1.412     7 C    1.066    10 C    0.803
                             8 O    0.126
    10   6 C    3.895 --    12 O    1.117    21 H    0.965    19 H    0.953
                             9 N    0.803
    11   6 C    2.876 --     9 N    1.412    13 N    1.275
    12   8 O    2.104 --    10 C    1.117    20 H    0.884
    13   7 N    3.602 --    11 C    1.275     5 C    1.143    14 C    0.985
    14   6 C    3.940 --    13 N    0.985    24 H    0.973    22 H    0.972
                            23 H    0.972
    15   1 H    0.985 --     1 C    0.957
    16   1 H    0.986 --     1 C    0.964
    17   1 H    0.981 --     1 C    0.958
    18   1 H    0.985 --     3 C    0.954
    19   1 H    0.981 --    10 C    0.953
    20   1 H    0.897 --    12 O    0.884
    21   1 H    0.991 --    10 C    0.965
    22   1 H    0.991 --    14 C    0.972
    23   1 H    0.991 --    14 C    0.972
    24   1 H    0.987 --    14 C    0.973
    25   1 H    0.948 --     4 N    0.921
 ---------------------------------------------------------------------------

molecular dipole:
                 x           y           z       tot (Debye)
 q only:        1.571      -2.370       0.507
   full:        2.071      -3.003       0.579       9.387

           -------------------------------------------------
          | TOTAL ENERGY              -42.116316419436 Eh   |
          | GRADIENT NORM               0.003863473247 Eh/α |
          | HOMO-LUMO GAP               2.029709674222 eV   |
           -------------------------------------------------

 * finished run on 2024/06/05 at 19:59:12.659
