   * xtb version 6.6.1 (8d0f1dd) compiled by 'conda@1efc2f54142f' on 2023-08-01
          program call               : xtb xtbopt.xyz --opt crude --input .xc2 --gfn2

   ID    Z sym.   atoms
    1    6 C      1, 3, 5-7, 10, 11, 14
    2    7 N      2, 4, 9, 13
    3    8 O      8, 12
    4    1 H      15-25
########################################################################
[WARNING] Please study the warnings concerning your input carefully
-1- readin_getIntValue: could not parse ''
########################################################################

          :  Hamiltonian                  GFN2-xTB          :
 * total energy  :   -42.1171161 Eh     change       -0.1207923E-12 Eh
 * total energy  :   -42.1409259 Eh     change       -0.2380987E-01 Eh
 * total energy  :   -42.1566824 Eh     change       -0.1575642E-01 Eh
 * total energy  :   -42.1622790 Eh     change       -0.5596602E-02 Eh
 * total energy  :   -42.1640348 Eh     change       -0.1755887E-02 Eh
 * total energy  :   -42.1656626 Eh     change       -0.1627712E-02 Eh
 * total energy  :   -42.1667534 Eh     change       -0.1090797E-02 Eh
 * total energy  :   -42.1672308 Eh     change       -0.4774610E-03 Eh
 * total energy  :   -42.1676389 Eh     change       -0.4080595E-03 Eh
 * total energy  :   -42.1680128 Eh     change       -0.3738765E-03 Eh
   *** GEOMETRY OPTIMIZATION CONVERGED AFTER 10 ITERATIONS ***

 final structure:
================
25
 xtb: 6.6.1 (8d0f1dd)
C            3.21093473868420        1.20598467200031       -0.06026606863328
N            2.30929084132313        0.08507374197282       -0.04084182170835
C            2.64420510976732       -1.20340077369922       -0.03329050954641
N            1.52451874690546       -1.96525571179956       -0.00000918277219
C            0.44292809869443       -1.12556855611012        0.01073283276801
C            0.93591394756429        0.16868626339698       -0.00824498242957
C            0.05250738971539        1.31700587667497        0.03052162476775
O            0.38520628694456        2.47629445375882       -0.01698087183397
N           -1.28738312952190        0.89115923842871        0.15015374176856
C           -2.31971875630001        1.95947307428690        0.20290359128336
C           -1.75187515263453       -0.35891759490492        0.15306323094011
O           -3.18326532725171        1.86864574548236       -0.85792789052479
N           -0.88694919707409       -1.38544496562900        0.06331157004894
C           -1.38268954827922       -2.74685626129443        0.03111190176253
H            3.69587993111932        1.31983857268328        0.91139448587862
H            3.97818175575696        1.06036839456823       -0.82018264964531
H            2.64135579862144        2.10943279080286       -0.27596094121165
H            3.64472912865185       -1.58959087458164       -0.05167990934101
H           -1.79164537692390        2.91114748662394        0.10598974338173
H           -3.83463511751729        1.16948796120123       -0.71662811385008
H           -2.80607737684633        1.88950880949328        1.18878967756257
H           -1.05486717529145       -3.30073455050278        0.91239495691365
H           -1.03849723115099       -3.25648763436078       -0.86990329467516
H           -2.46912039984259       -2.70661487234843        0.02379507643746
H            1.50150352898507       -2.97499674454705       -0.00107457944054

          :  Hamiltonian                  GFN2-xTB          :
         :: total energy             -42.168012754458 Eh    ::
         :: gradient norm              0.007926491390 Eh/a0 ::
         :: HOMO-LUMO gap              2.197752091197 eV    ::
         :: SCC energy               -42.671941188010 Eh    ::
         :: -> dispersion             -0.022281426536 Eh    ::
         :: repulsion energy           0.503826671357 Eh    ::

    * Orbital Energies and Occupations

         #    Occupation            Energy/Eh            Energy/eV
      -------------------------------------------------------------
         1        2.0000           -0.9089896             -24.7349
       ...           ...                  ...                  ...
        25        2.0000           -0.6736175             -18.3301
        26        2.0000           -0.6540336             -17.7972
        27        2.0000           -0.6462812             -17.5862
        28        1.9999           -0.6318657             -17.1939
        29        1.9999           -0.6281547             -17.0930
        30        1.9999           -0.6257126             -17.0265
        31        1.9997           -0.6154585             -16.7475
        32        1.9996           -0.6084786             -16.5575
        33        1.9974           -0.5792153             -15.7613
        34        1.9944           -0.5671917             -15.4341
        35        1.9892           -0.5566543             -15.1473
        36        1.9867           -0.5533116             -15.0564
        37        1.8534           -0.5142439             -13.9933 (HOMO)
        38        0.1430           -0.4334780             -11.7955 (LUMO)
        39        0.0299           -0.4077454             -11.0953
        40        0.0072           -0.3849266             -10.4744
        41        0.0000           -0.2857538              -7.7758
        42                         -0.1979209              -5.3857
        43                         -0.1895335              -5.1575
        44                         -0.1362069              -3.7064
        45                         -0.1317250              -3.5844
        46                         -0.0713417              -1.9413
        47                         -0.0435635              -1.1854
        48                         -0.0295348              -0.8037
       ...                                ...                  ...
        67                          0.5400228              14.6948
      -------------------------------------------------------------
                  HL-Gap            0.0807659 Eh            2.1978 eV

     #   Z          covCN         q      C6AA      α(0)
     1   6 C        3.691    -0.091    22.425     6.777
     2   7 N        2.831     0.074    19.955     6.635
     3   6 C        3.042     0.051    26.811     8.493
     4   7 N        2.791    -0.065    22.506     7.046
     5   6 C        3.052     0.105    25.624     8.302
     6   6 C        3.113    -0.007    28.047     8.675
     7   6 C        2.763     0.266    22.508     7.769
     8   8 O        0.857    -0.368    21.054     6.152
     9   7 N        2.748    -0.043    22.068     6.977
    10   6 C        3.631     0.129    18.847     6.250
    11   6 C        1.899    -0.080    33.313     9.322
    12   8 O        1.658    -0.388    20.609     6.128
    13   7 N        2.744     0.028    20.759     6.767
    14   6 C        3.703    -0.078    22.152     6.729
    15   1 H        0.924     0.107     1.724     2.053
    16   1 H        0.925     0.103     1.756     2.072
    17   1 H        0.925     0.134     1.503     1.917
    18   1 H        0.926     0.122     1.600     1.978
    19   1 H        0.924     0.112     1.681     2.027
    20   1 H        0.805     0.322     0.660     1.276
    21   1 H        0.923     0.064     2.154     2.295
    22   1 H        0.924     0.081     1.972     2.196
    23   1 H        0.924     0.080     1.977     2.199
    24   1 H        0.925     0.116     1.647     2.007
    25   1 H        0.860     0.226     0.982     1.552

Wiberg/Mayer (AO) data.
largest (>0.10) Wiberg bond orders for each atom

     #   Z sym  total        # sym  WBO       # sym  WBO       # sym  WBO
 ---------------------------------------------------------------------------
     1   6 C    3.917 --     2 N    0.986    16 H    0.965    17 H    0.962
                            15 H    0.956
     2   7 N    3.660 --     3 C    1.378     6 C    1.158     1 C    0.986
     3   6 C    3.826 --     2 N    1.378     4 N    1.271    18 H    0.953
     4   7 N    3.571 --     3 C    1.271     5 C    1.182    25 H    0.921
     5   6 C    3.935 --     6 C    1.370     4 N    1.182    13 N    1.179
     6   6 C    3.919 --     5 C    1.370     2 N    1.158     7 C    1.076
     7   6 C    3.927 --     8 O    1.700     6 C    1.076     9 N    1.053
     8   8 O    2.029 --     7 C    1.700     9 N    0.129
     9   7 N    3.617 --    11 C    1.380     7 C    1.053    10 C    0.916
                             8 O    0.129
    10   6 C    3.917 --    12 O    1.058    21 H    0.954    19 H    0.952
                             9 N    0.916
    11   6 C    2.864 --     9 N    1.380    13 N    1.280
    12   8 O    2.019 --    10 C    1.058    20 H    0.879
    13   7 N    3.634 --    11 C    1.280     5 C    1.179    14 C    0.982
    14   6 C    3.938 --    13 N    0.982    24 H    0.972    23 H    0.972
                            22 H    0.971
    15   1 H    0.984 --     1 C    0.956
    16   1 H    0.986 --     1 C    0.965
    17   1 H    0.982 --     1 C    0.962
    18   1 H    0.984 --     3 C    0.953
    19   1 H    0.985 --    10 C    0.952
    20   1 H    0.896 --    12 O    0.879
    21   1 H    0.990 --    10 C    0.954
    22   1 H    0.991 --    14 C    0.971
    23   1 H    0.991 --    14 C    0.972
    24   1 H    0.986 --    14 C    0.972
    25   1 H    0.948 --     4 N    0.921
 ---------------------------------------------------------------------------

molecular dipole:
                 x           y           z       tot (Debye)
 q only:        1.730      -2.594       0.357
   full:        2.285      -3.167       0.493      10.004

           -------------------------------------------------
          | TOTAL ENERGY              -42.168012754458 Eh   |
          | GRADIENT NORM               0.007926491390 Eh/α |
          | HOMO-LUMO GAP               2.197752091197 eV   |
           -------------------------------------------------

 * finished run on 2024/06/05 at 19:59:13.070
