   * xtb version 6.6.1 (8d0f1dd) compiled by 'conda@1efc2f54142f' on 2023-08-01
          program call               : xtb struc.xyz --opt loose --input .xc1 --gfn2

   ID    Z sym.   atoms
    1    6 C      1, 3, 5-7, 10, 11, 14
    2    7 N      2, 4, 9, 13
    3    8 O      8, 12
    4    1 H      15-25
constraining bond 2 25 to    5.0600000 Å, actual value:    3.1552271 Å

          :  Hamiltonian                  GFN2-xTB          :
 * total energy  :   -35.7818549 Eh     change       -0.2401990E-09 Eh
 * total energy  :   -38.7247055 Eh     change       -0.2942851E+01 Eh
 * total energy  :   -40.6439621 Eh     change       -0.1919257E+01 Eh
 * total energy  :   -41.6152152 Eh     change       -0.9712531E+00 Eh
 * total energy  :   -41.9188628 Eh     change       -0.3036476E+00 Eh
 * total energy  :   -41.9693194 Eh     change       -0.5045665E-01 Eh
 * total energy  :   -42.0029641 Eh     change       -0.3364466E-01 Eh
 * total energy  :   -42.0482580 Eh     change       -0.4529389E-01 Eh
 * total energy  :   -42.0790162 Eh     change       -0.3075823E-01 Eh
 * total energy  :   -42.1022498 Eh     change       -0.2323359E-01 Eh
 * total energy  :   -42.1653392 Eh     change       -0.1546510E-02 Eh
 * total energy  :   -42.1660952 Eh     change       -0.7559075E-03 Eh
 * total energy  :   -42.1664341 Eh     change       -0.3389062E-03 Eh
 * total energy  :   -42.1668869 Eh     change       -0.4528723E-03 Eh
 * total energy  :   -42.1681409 Eh     change       -0.1253953E-02 Eh
 * total energy  :   -42.1687654 Eh     change       -0.6244648E-03 Eh
 * total energy  :   -42.1688783 Eh     change       -0.1129660E-03 Eh
 * total energy  :   -42.1689553 Eh     change       -0.7700042E-04 Eh
 * total energy  :   -42.1689951 Eh     change       -0.3976894E-04 Eh
   *** GEOMETRY OPTIMIZATION CONVERGED AFTER 26 ITERATIONS ***

 final structure:
================
25
 xtb: 6.6.1 (8d0f1dd)
C            3.24255515180877        1.23875545434200        0.01940259771133
N            2.27754489398710        0.17747234932766        0.00029559605932
C            2.51299766953865       -1.15539027768494       -0.00591202085715
N            1.40696826526315       -1.87055671989136       -0.00702675939980
C            0.39491430339318       -0.98286802207590       -0.00031174818881
C            0.91743163781237        0.32004550132494        0.00502310678866
C            0.06844857164630        1.48039380607162       -0.00220149760287
O            0.43771775148662        2.63663095456481       -0.01264589710179
N           -1.28413856984097        1.12842670994624        0.00048025202992
C           -2.25844303945917        2.20329922945270       -0.00267922704983
C           -1.82172149863533       -0.15439821540988        0.00273355097886
O           -3.01527881879683       -0.32928312339770        0.00552145981452
N           -0.93315333320213       -1.22715923334618        0.00043637458085
C           -1.43829489611345       -2.57904513767837       -0.00238110425154
H            3.75387668742865        1.27240171772944        0.98486980620842
H            3.98836521472352        1.08729853645928       -0.76235729953562
H            2.73092609941859        2.18835434664450       -0.14024290593118
H            3.49692647748636       -1.58106075519778       -0.01063096921572
H           -1.72377962045775        3.15237772382046        0.00453450792860
H           -2.89107743012044        2.13325913697090       -0.89022273365702
H           -2.90401963179943        2.12571556846421        0.87475687072171
H           -1.07440214994517       -3.11117965549588        0.87849069228949
H           -1.08976443858617       -3.10237866137667       -0.89476073713079
H           -2.52721266932278       -2.54317063891154        0.00679376613890
H            0.89304488638644       -4.68970205305260       -0.02079406342837

          :  Hamiltonian                  GFN2-xTB          :
         :: total energy             -42.168995087195 Eh    ::
         :: gradient norm              0.002400272102 Eh/a0 ::
         :: HOMO-LUMO gap              1.165808260123 eV    ::
         :: SCC energy               -42.677410984717 Eh    ::
         :: -> dispersion             -0.022576287303 Eh    ::
         :: repulsion energy           0.508321012507 Eh    ::

    * Orbital Energies and Occupations

         #    Occupation            Energy/Eh            Energy/eV
      -------------------------------------------------------------
         1        2.0000           -0.8958740             -24.3780
       ...           ...                  ...                  ...
        25        1.9962           -0.6690817             -18.2066
        26        1.9945           -0.6604582             -17.9720
        27        1.9918           -0.6510527             -17.7160
        28        1.9890           -0.6439588             -17.5230
        29        1.9822           -0.6324562             -17.2100
        30        1.9733           -0.6227266             -16.9453
        31        1.9661           -0.6170405             -16.7905
        32        1.9491           -0.6071590             -16.5216
        33        1.9372           -0.6020274             -16.3820
        34        1.8869           -0.5874124             -15.9843
        35        1.8668           -0.5832663             -15.8715
        36        1.8518           -0.5805551             -15.7977
        37        1.6630           -0.5584829             -15.1971 (HOMO)
        38        0.8966           -0.5156402             -14.0313 (LUMO)
        39        0.0522           -0.4346189             -11.8266
        40        0.0093           -0.3931550             -10.6983
        41        0.0046           -0.3762188             -10.2374
        42        0.0002           -0.2977796              -8.1030
        43        0.0000           -0.2103115              -5.7229
        44        0.0000           -0.1613928              -4.3917
        45        0.0000           -0.1421287              -3.8675
        46                         -0.0808948              -2.2013
        47                         -0.0631679              -1.7189
        48                         -0.0432047              -1.1757
       ...                                ...                  ...
        67                          0.5236846              14.2502
      -------------------------------------------------------------
                  HL-Gap            0.0428427 Eh            1.1658 eV

     #   Z          covCN         q      C6AA      α(0)
     1   6 C        3.689    -0.081    22.250     6.751
     2   7 N        2.827     0.051    20.351     6.700
     3   6 C        3.175     0.096    25.506     8.248
     4   7 N        1.900    -0.192    25.991     7.558
     5   6 C        3.158     0.131    24.847     8.150
     6   6 C        3.116    -0.008    28.051     8.675
     7   6 C        2.764     0.270    22.437     7.757
     8   8 O        0.858    -0.330    20.327     6.045
     9   7 N        2.746    -0.065    22.507     7.046
    10   6 C        3.708    -0.061    21.822     6.677
    11   6 C        2.729     0.316    21.637     7.615
    12   8 O        0.860    -0.329    20.303     6.041
    13   7 N        2.739    -0.021    21.654     6.911
    14   6 C        3.700    -0.071    22.036     6.713
    15   1 H        0.924     0.114     1.661     2.015
    16   1 H        0.924     0.112     1.679     2.026
    17   1 H        0.924     0.130     1.534     1.937
    18   1 H        0.926     0.115     1.655     2.012
    19   1 H        0.925     0.129     1.539     1.940
    20   1 H        0.924     0.121     1.607     1.983
    21   1 H        0.924     0.121     1.605     1.981
    22   1 H        0.924     0.115     1.657     2.013
    23   1 H        0.924     0.115     1.657     2.013
    24   1 H        0.925     0.132     1.518     1.927
    25   1 H        0.000     0.091     4.666     3.950

Wiberg/Mayer (AO) data.
largest (>0.10) Wiberg bond orders for each atom

     #   Z sym  total        # sym  WBO       # sym  WBO       # sym  WBO
 ---------------------------------------------------------------------------
     1   6 C    3.884 --     2 N    0.997    17 H    0.952    16 H    0.950
                            15 H    0.942
     2   7 N    3.615 --     3 C    1.275     6 C    1.193     1 C    0.997
     3   6 C    3.841 --     4 N    1.460     2 N    1.275    18 H    0.951
     4   7 N    2.941 --     3 C    1.460     5 C    1.277
     5   6 C    3.884 --     4 N    1.277     6 C    1.257    13 N    1.186
     6   6 C    3.784 --     5 C    1.257     2 N    1.193     7 C    1.088
     7   6 C    3.921 --     8 O    1.649     9 N    1.090     6 C    1.088
     8   8 O    1.921 --     7 C    1.649     9 N    0.118
     9   7 N    3.473 --    11 C    1.103     7 C    1.090    10 C    0.982
                             8 O    0.118    12 O    0.111
    10   6 C    3.845 --     9 N    0.982    19 H    0.949    21 H    0.936
                            20 H    0.936
    11   6 C    3.941 --    12 O    1.663     9 N    1.103    13 N    1.084
    12   8 O    1.945 --    11 C    1.663     9 N    0.111    13 N    0.104
    13   7 N    3.480 --     5 C    1.186    11 C    1.084    14 C    0.982
                            12 O    0.104
    14   6 C    3.866 --    13 N    0.982    24 H    0.953    22 H    0.943
                            23 H    0.943
    15   1 H    0.966 --     1 C    0.942
    16   1 H    0.971 --     1 C    0.950
    17   1 H    0.971 --     1 C    0.952
    18   1 H    0.982 --     3 C    0.951
    19   1 H    0.967 --    10 C    0.949
    20   1 H    0.953 --    10 C    0.936
    21   1 H    0.953 --    10 C    0.936
    22   1 H    0.961 --    14 C    0.943
    23   1 H    0.960 --    14 C    0.943
    24   1 H    0.971 --    14 C    0.953
    25   1 H    0.015
 ---------------------------------------------------------------------------

molecular dipole:
                 x           y           z       tot (Debye)
 q only:        1.341      -1.064       0.011
   full:        1.597      -0.952       0.017       4.726

           -------------------------------------------------
          | TOTAL ENERGY              -42.168995087195 Eh   |
          | GRADIENT NORM               0.002400272102 Eh/α |
          | HOMO-LUMO GAP               1.165808260123 eV   |
           -------------------------------------------------

 * finished run on 2024/06/05 at 19:58:43.555
