   * xtb version 6.6.1 (8d0f1dd) compiled by 'conda@1efc2f54142f' on 2023-08-01
          program call               : xtb struc.xyz --opt loose --input .xc1 --gfn2

   ID    Z sym.   atoms
    1    6 C      1, 3, 5-7, 10, 11, 14
    2    7 N      2, 4, 9, 13
    3    8 O      8, 12
    4    1 H      15-25
constraining bond 9 19 to    4.0600000 Å, actual value:    2.0735628 Å

          :  Hamiltonian                  GFN2-xTB          :
 * total energy  :   -35.2022694 Eh     change       -0.6650680E-10 Eh
 * total energy  :   -38.2277923 Eh     change       -0.3025523E+01 Eh
 * total energy  :   -40.4106588 Eh     change       -0.2182866E+01 Eh
 * total energy  :   -41.4731768 Eh     change       -0.1062518E+01 Eh
 * total energy  :   -41.7792173 Eh     change       -0.3060405E+00 Eh
 * total energy  :   -41.8214376 Eh     change       -0.4222034E-01 Eh
 * total energy  :   -41.8575169 Eh     change       -0.3607925E-01 Eh
 * total energy  :   -41.9077245 Eh     change       -0.5020761E-01 Eh
 * total energy  :   -41.9499279 Eh     change       -0.4220344E-01 Eh
 * total energy  :   -41.9762858 Eh     change       -0.2635790E-01 Eh
 * total energy  :   -42.1027521 Eh     change       -0.1636420E-02 Eh
 * total energy  :   -42.1035109 Eh     change       -0.7588609E-03 Eh
 * total energy  :   -42.1040345 Eh     change       -0.5235624E-03 Eh
 * total energy  :   -42.1044747 Eh     change       -0.4402303E-03 Eh
 * total energy  :   -42.1047093 Eh     change       -0.2345975E-03 Eh
 * total energy  :   -42.1049991 Eh     change       -0.2897651E-03 Eh
 * total energy  :   -42.1051301 Eh     change       -0.1310710E-03 Eh
 * total energy  :   -42.1052363 Eh     change       -0.1061247E-03 Eh
 * total energy  :   -42.1052711 Eh     change       -0.3483334E-04 Eh
   *** GEOMETRY OPTIMIZATION CONVERGED AFTER 48 ITERATIONS ***

 final structure:
================
25
 xtb: 6.6.1 (8d0f1dd)
C            3.14184400675787        1.14842445373221       -0.04538441159391
N            2.23134372292812        0.03514880954551       -0.03002866199219
C            2.55003713743617       -1.25591258467646       -0.00294092084986
N            1.42362731439437       -2.00639344851248        0.02158118162085
C            0.35356558294930       -1.16243075987575        0.01016190888007
C            0.85565702169992        0.13281930064758       -0.02012017401770
C            0.00859590306796        1.28601525914513       -0.04360426752403
O            0.33833308851689        2.45026179030385       -0.08648092527187
N           -1.38171653721680        0.91200969403660       -0.01226769088091
C           -2.28056984696332        1.90553633969015       -0.01028754314038
C           -1.89433410080319       -0.41628936323888        0.01466916696964
O           -3.07574243016177       -0.62806361713312        0.03399794004528
N           -0.96304770012061       -1.45212577543965        0.02136804773304
C           -1.43908173426473       -2.82360947116958        0.04034394873180
H            3.62378819033327        1.25766269468868        0.92751902448769
H            3.90984193522351        0.99807597573604       -0.80297715662331
H            2.58135087479074        2.05686007055457       -0.26202597896005
H            3.54607817465224       -1.65111744433613       -0.00147951792811
H           -1.79681457486042        4.94792079286131        0.11720407590228
H           -1.92202999225103        2.92783090995388       -0.00972098956959
H           -3.32413829529569        1.65581384236761       -0.00478638663886
H           -1.12110330328834       -3.32414532015537        0.95520555702994
H           -1.07334960834855       -3.36366815866405       -0.83303033560010
H           -2.52732169628986       -2.79678867262290        0.01193574586489
H            1.39561838121379       -3.01559677583794        0.04231998122525

          :  Hamiltonian                  GFN2-xTB          :
         :: total energy             -42.105271108334 Eh    ::
         :: gradient norm              0.002222247220 Eh/a0 ::
         :: HOMO-LUMO gap              0.084910805722 eV    ::
         :: SCC energy               -42.624722985929 Eh    ::
         :: -> dispersion             -0.022799343405 Eh    ::
         :: repulsion energy           0.519368122519 Eh    ::

    * Orbital Energies and Occupations

         #    Occupation            Energy/Eh            Energy/eV
      -------------------------------------------------------------
         1        2.0000           -0.9111714             -24.7942
       ...           ...                  ...                  ...
        25        2.0000           -0.6715746             -18.2745
        26        2.0000           -0.6690915             -18.2069
        27        2.0000           -0.6629023             -18.0385
        28        1.9999           -0.6331499             -17.2289
        29        1.9999           -0.6299795             -17.1426
        30        1.9999           -0.6278654             -17.0851
        31        1.9998           -0.6189275             -16.8419
        32        1.9997           -0.6143382             -16.7170
        33        1.9997           -0.6134027             -16.6915
        34        1.9982           -0.5852282             -15.9249
        35        1.9942           -0.5667889             -15.4231
        36        1.9902           -0.5585828             -15.1998
        37        0.9892           -0.4740725             -12.9002 (HOMO)
        38        0.8911           -0.4709521             -12.8153 (LUMO)
        39        0.1176           -0.4305039             -11.7146
        40        0.0176           -0.3995880             -10.8733
        41        0.0031           -0.3719866             -10.1223
        42        0.0000           -0.2876135              -7.8264
        43        0.0000           -0.2083667              -5.6699
        44                         -0.1968912              -5.3577
        45                         -0.1511408              -4.1127
        46                         -0.1455389              -3.9603
        47                         -0.0789126              -2.1473
        48                         -0.0539259              -1.4674
       ...                                ...                  ...
        67                          0.5479843              14.9114
      -------------------------------------------------------------
                  HL-Gap            0.0031204 Eh            0.0849 eV

     #   Z          covCN         q      C6AA      α(0)
     1   6 C        3.691    -0.094    22.482     6.785
     2   7 N        2.830     0.077    19.896     6.625
     3   6 C        3.048     0.047    26.897     8.506
     4   7 N        2.791    -0.058    22.362     7.023
     5   6 C        3.041     0.106    25.626     8.303
     6   6 C        3.108    -0.023    28.442     8.738
     7   6 C        2.775     0.254    22.735     7.809
     8   8 O        0.857    -0.363    20.953     6.137
     9   7 N        2.741    -0.030    21.828     6.939
    10   6 C        2.815    -0.021    28.515     8.749
    11   6 C        2.738     0.309    21.758     7.637
    12   8 O        0.859    -0.351    20.722     6.103
    13   7 N        2.737    -0.049    22.194     6.997
    14   6 C        3.698    -0.073    22.078     6.720
    15   1 H        0.924     0.108     1.714     2.047
    16   1 H        0.925     0.104     1.748     2.067
    17   1 H        0.925     0.134     1.505     1.918
    18   1 H        0.926     0.124     1.585     1.968
    19   1 H        0.000     0.011     7.159     4.892
    20   1 H        0.925     0.135     1.497     1.913
    21   1 H        0.926     0.130     1.535     1.937
    22   1 H        0.924     0.084     1.933     2.174
    23   1 H        0.925     0.083     1.945     2.181
    24   1 H        0.925     0.127     1.555     1.950
    25   1 H        0.860     0.229     0.970     1.543

Wiberg/Mayer (AO) data.
largest (>0.10) Wiberg bond orders for each atom

     #   Z sym  total        # sym  WBO       # sym  WBO       # sym  WBO
 ---------------------------------------------------------------------------
     1   6 C    3.917 --     2 N    0.987    16 H    0.964    17 H    0.962
                            15 H    0.956
     2   7 N    3.648 --     3 C    1.379     6 C    1.145     1 C    0.987
     3   6 C    3.821 --     2 N    1.379     4 N    1.266    18 H    0.953
     4   7 N    3.579 --     3 C    1.266     5 C    1.194    25 H    0.919
     5   6 C    3.899 --     6 C    1.327     4 N    1.194    13 N    1.191
     6   6 C    3.909 --     5 C    1.327     2 N    1.145     7 C    1.118
     7   6 C    3.867 --     8 O    1.674     6 C    1.118     9 N    0.984
     8   8 O    1.957 --     7 C    1.674     9 N    0.107
     9   7 N    3.615 --    10 C    1.348    11 C    1.015     7 C    0.984
                             8 O    0.107
    10   6 C    3.325 --     9 N    1.348    21 H    0.959    20 H    0.933
    11   6 C    3.903 --    12 O    1.707    13 N    1.087     9 N    1.015
    12   8 O    2.019 --    11 C    1.707    13 N    0.134
    13   7 N    3.565 --     5 C    1.191    11 C    1.087    14 C    0.970
                            12 O    0.134
    14   6 C    3.923 --    23 H    0.972    22 H    0.971    13 N    0.970
                            24 H    0.965
    15   1 H    0.983 --     1 C    0.956
    16   1 H    0.986 --     1 C    0.964
    17   1 H    0.982 --     1 C    0.962
    18   1 H    0.984 --     3 C    0.953
    19   1 H    0.028
    20   1 H    0.981 --    10 C    0.933
    21   1 H    0.981 --    10 C    0.959
    22   1 H    0.991 --    14 C    0.971
    23   1 H    0.991 --    14 C    0.972
    24   1 H    0.983 --    14 C    0.965
    25   1 H    0.947 --     4 N    0.919
 ---------------------------------------------------------------------------

molecular dipole:
                 x           y           z       tot (Debye)
 q only:        2.332      -2.010       0.028
   full:        2.577      -2.455       0.044       9.047

           -------------------------------------------------
          | TOTAL ENERGY              -42.105271108334 Eh   |
          | GRADIENT NORM               0.002222247220 Eh/α |
          | HOMO-LUMO GAP               0.084910805722 eV   |
           -------------------------------------------------

 * finished run on 2024/06/05 at 19:57:59.577
