   * xtb version 6.6.1 (8d0f1dd) compiled by 'conda@1efc2f54142f' on 2023-08-01
          program call               : xtb struc.xyz --opt loose --input .xc1 --gfn2

   ID    Z sym.   atoms
    1    7 N      1, 17
    2    6 C      2-6, 8, 9, 11-16, 18-23, 25, 26, 28-33
    3    8 O      7, 10, 24, 27
    4    1 H      34-72
constraining bond 3 46 to    5.1400000 Å, actual value:    3.4835138 Å

          :  Hamiltonian                  GFN2-xTB          :
 * total energy  :   -98.9141904 Eh     change       -0.4035485E-08 Eh
 * total energy  :   -99.1046446 Eh     change       -0.1904542E+00 Eh
 * total energy  :   -99.1928660 Eh     change       -0.8822136E-01 Eh
 * total energy  :   -99.2309559 Eh     change       -0.3808998E-01 Eh
 * total energy  :   -99.2472146 Eh     change       -0.1625864E-01 Eh
 * total energy  :   -99.2565177 Eh     change       -0.9303160E-02 Eh
 * total energy  :   -99.2655682 Eh     change       -0.9050483E-02 Eh
 * total energy  :   -99.2757560 Eh     change       -0.1018777E-01 Eh
 * total energy  :   -99.2827493 Eh     change       -0.6993310E-02 Eh
 * total energy  :   -99.2919032 Eh     change       -0.9153877E-02 Eh
 * total energy  :   -99.3398609 Eh     change       -0.1488508E-03 Eh
 * total energy  :   -99.3399762 Eh     change       -0.1152915E-03 Eh
 * total energy  :   -99.3400744 Eh     change       -0.9824665E-04 Eh
 * total energy  :   -99.3401411 Eh     change       -0.6664941E-04 Eh
 * total energy  :   -99.3402136 Eh     change       -0.7249726E-04 Eh
 * total energy  :   -99.3402730 Eh     change       -0.5947560E-04 Eh
 * total energy  :   -99.3401366 Eh     change        0.1364791E-03 Eh
 * total energy  :   -99.3404004 Eh     change       -0.2638395E-03 Eh
 * total energy  :   -99.3404407 Eh     change       -0.4029388E-04 Eh
   *** GEOMETRY OPTIMIZATION CONVERGED AFTER 71 ITERATIONS ***

 final structure:
================
72
 xtb: 6.6.1 (8d0f1dd)
N           -2.66959492470786        2.99862031897471        2.67890442480999
C           -2.43140268232785        2.08344983483777        1.86207862505722
C           -3.22555981572579        1.85485594054570        0.60182079248887
C           -3.88321761803029        0.48528150637191        0.65353766856179
C           -4.48726503325182       -0.03819249860121       -0.49061149039243
C           -5.07017999371568       -1.29501207237200       -0.49118903534541
O           -5.67527686346254       -1.87330886464757       -1.54828832911334
C           -5.83179259923473       -1.14073458355251       -2.74022141325034
C           -5.04068983998805       -2.07993623492366        0.69433047189704
O           -5.59252243066765       -3.30395754034825        0.59274992881619
C           -5.60263420239040       -4.14819713921035        1.71971908122406
C           -4.46564033170923       -1.54074431172864        1.83490916486696
C           -3.90226240306123       -0.27331026699888        1.81469522929672
C           -2.16119948149673        1.86787744355740       -0.54357106867867
C           -1.30877242815254        0.64870695738966       -0.52479271522063
C            0.00742168776626        0.66707384562031       -0.25501638496997
N            0.84038188227209       -0.42760621572070       -0.15651645653252
C            2.24783241140204       -0.18087279542687        0.09456530588663
C            3.04993301654043       -0.14020039113804       -1.21821758877535
C            4.51121484519356        0.05689150314294       -0.92609470700392
C            5.09107205175404        1.31307243994755       -1.00102045023158
C            6.43623947565235        1.49224204125058       -0.71826311715527
C            7.22897884161741        0.41593900661143       -0.34574882585626
O            8.54115171968918        0.46967590469752       -0.05761821193341
C            9.22256871878638        1.69807959471550       -0.17227185328113
C            6.63974110045064       -0.87690889547554       -0.25224107207896
O            7.47861471796289       -1.86173202276300        0.12009924447468
C            6.99534123168758       -3.18019745002294        0.22120815399648
C            5.29369757663513       -1.03073629379090       -0.54366073270432
C            0.45410098784914       -1.68189288065811       -0.33680136610395
C           -4.31724590886327        2.92817447639049        0.34487886218274
C           -5.38838032220447        2.89377881909978        1.43294362607809
C           -3.75778652538912        4.34180340210968        0.21420265886699
H           -4.50391873341001        0.54626663013615       -1.39577709052296
H           -6.40693646025830       -0.22439330729502       -2.57388785169628
H           -6.38361569660323       -1.79394804765488       -3.41435511121906
H           -4.86562172059144       -0.89189194875192       -3.19079712404840
H           -6.17973794411385       -3.71440515233211        2.54154590478560
H           -6.07983716730030       -5.06903508323919        1.39040560593832
H           -4.58731457292365       -4.36849052802884        2.06400392056598
H           -4.45356484485806       -2.10024439461866        2.75591498362887
H           -3.48586471274373        0.12213171419343        2.72745483752929
H           -2.69009586330108        1.92554129966087       -1.49709216617683
H           -1.54475914675955        2.76127178614912       -0.44048281525016
H           -1.82299553440110       -0.28063714063806       -0.71387745708286
H           -0.52971945596869        0.05154197038000       -3.38410478242765
H           -1.59461698114189        1.37352905844594        1.96335295037120
H            0.50172353874514        1.61129459615585       -0.07540978703601
H            2.63991913187617       -0.97716182111208        0.73165692879716
H            2.36564720550394        0.76813606160911        0.62048098718905
H            2.67882943484269        0.67358813265927       -1.84308824359493
H            2.89775256949325       -1.07940838586642       -1.75444897493655
H            4.49696637456741        2.16464872626082       -1.29541088442568
H            6.86103740223830        2.47957927341184       -0.79496157678997
H            8.83276499349524        2.43945412823197        0.53142125573284
H            9.16459945522408        2.09311145761721       -1.19072043011471
H           10.26050880197250        1.48068534416915        0.07200420197301
H            7.85141151040574       -3.78296706195018        0.51827720633028
H            6.21370047073589       -3.26330485144297        0.98309133500806
H            6.61348544950779       -3.54230692029908       -0.73830565812206
H            4.84039096371532       -2.00840994926127       -0.49183259459721
H           -0.30177617684245       -0.60769941638469       -3.73310336913664
H           -0.56181564696470       -1.91532300956487       -0.57823816814757
H            1.16836922106519       -2.47073659773562       -0.21615188275497
H           -4.79638490465523        2.66549445003587       -0.60561186393422
H           -4.95773785097350        3.18607975006275        2.38542103524815
H           -5.81767419586558        1.89945823051043        1.52982186363518
H           -6.18510160304149        3.58941568010586        1.18410018334835
H           -3.23517210823704        4.62392808099867        1.12306878018779
H           -3.08307312435916        4.43481116310483       -0.63285397763838
H           -4.57868102125510        5.03804191638435        0.06394643383422
H           -2.06144232069527        3.08451111061910        3.48730981825266

          :  Hamiltonian                  GFN2-xTB          :
         :: total energy             -99.340440689020 Eh    ::
         :: gradient norm              0.002964954901 Eh/a0 ::
         :: HOMO-LUMO gap              1.385136501597 eV    ::
         :: SCC energy              -100.763315619610 Eh    ::
         :: -> dispersion             -0.072637666461 Eh    ::
         :: repulsion energy           1.421891760931 Eh    ::

    * Orbital Energies and Occupations

         #    Occupation            Energy/Eh            Energy/eV
      -------------------------------------------------------------
         1        2.0000           -0.8102222             -22.0473
       ...           ...                  ...                  ...
        78        1.9976           -0.5285351             -14.3822
        79        1.9975           -0.5276372             -14.3577
        80        1.9968           -0.5238465             -14.2546
        81        1.9963           -0.5216118             -14.1938
        82        1.9949           -0.5165972             -14.0573
        83        1.9932           -0.5119431             -13.9307
        84        1.9925           -0.5104101             -13.8890
        85        1.9903           -0.5063772             -13.7792
        86        1.9735           -0.4903101             -13.3420
        87        1.9718           -0.4893586             -13.3161
        88        1.8948           -0.4678488             -12.7308
        89        1.8189           -0.4586110             -12.4794
        90        1.8140           -0.4581383             -12.4666 (HOMO)
        91        0.5628           -0.4072354             -11.0814 (LUMO)
        92        0.0090           -0.3365226              -9.1572
        93        0.0024           -0.3155250              -8.5859
        94        0.0023           -0.3151058              -8.5745
        95        0.0019           -0.3122481              -8.4967
        96        0.0019           -0.3119669              -8.4891
        97        0.0009           -0.2999389              -8.1618
        98        0.0000           -0.1896244              -5.1599
        99        0.0000           -0.1893371              -5.1521
       100                         -0.1196781              -3.2566
       101                         -0.0640976              -1.7442
       ...                                ...                  ...
       171                          0.5751065              15.6494
      -------------------------------------------------------------
                  HL-Gap            0.0509028 Eh            1.3851 eV

     #   Z          covCN         q      C6AA      α(0)
     1   7 N        1.774    -0.265    27.707     7.795
     2   6 C        2.828     0.104    25.695     8.306
     3   6 C        3.909     0.011    20.338     6.410
     4   6 C        2.974     0.007    27.860     8.658
     5   6 C        2.920    -0.076    29.905     8.968
     6   6 C        2.862     0.131    25.126     8.216
     7   8 O        1.706    -0.226    17.753     5.689
     8   6 C        3.644     0.027    20.451     6.500
     9   6 C        2.864     0.132    25.117     8.215
    10   8 O        1.706    -0.223    17.700     5.680
    11   6 C        3.646     0.026    20.475     6.503
    12   6 C        2.914    -0.069    29.714     8.939
    13   6 C        2.922    -0.046    29.152     8.854
    14   6 C        3.817    -0.061    21.655     6.623
    15   6 C        2.890    -0.044    29.096     8.844
    16   6 C        2.851    -0.016    28.398     8.734
    17   7 N        2.733     0.062    20.166     6.669
    18   6 C        3.769    -0.019    20.957     6.524
    19   6 C        3.808    -0.069    21.810     6.648
    20   6 C        2.969     0.003    27.964     8.674
    21   6 C        2.921    -0.046    29.153     8.854
    22   6 C        2.913    -0.066    29.650     8.929
    23   6 C        2.865     0.135    25.053     8.205
    24   8 O        1.706    -0.218    17.622     5.668
    25   6 C        3.645     0.024    20.509     6.509
    26   6 C        2.862     0.134    25.058     8.205
    27   8 O        1.706    -0.221    17.669     5.675
    28   6 C        3.645     0.026    20.470     6.503
    29   6 C        2.919    -0.079    29.972     8.978
    30   6 C        2.803    -0.070    29.731     8.933
    31   6 C        3.853    -0.007    20.670     6.466
    32   6 C        3.756    -0.118    22.816     6.811
    33   6 C        3.755    -0.119    22.835     6.814
    34   1 H        0.926     0.053     2.281     2.362
    35   1 H        0.924     0.055     2.257     2.349
    36   1 H        0.925     0.082     1.960     2.190
    37   1 H        0.924     0.049     2.337     2.390
    38   1 H        0.924     0.057     2.231     2.336
    39   1 H        0.925     0.082     1.956     2.187
    40   1 H        0.924     0.052     2.301     2.372
    41   1 H        0.926     0.057     2.233     2.337
    42   1 H        0.926     0.045     2.378     2.411
    43   1 H        0.924     0.067     2.117     2.275
    44   1 H        0.924     0.054     2.267     2.355
    45   1 H        0.926     0.051     2.313     2.378
    46   1 H        0.803    -0.007     3.246     2.830
    47   1 H        0.923     0.009     2.904     2.665
    48   1 H        0.926     0.060     2.204     2.322
    49   1 H        0.924     0.072     2.065     2.247
    50   1 H        0.924     0.071     2.072     2.251
    51   1 H        0.924     0.057     2.229     2.335
    52   1 H        0.924     0.058     2.225     2.333
    53   1 H        0.926     0.050     2.324     2.384
    54   1 H        0.926     0.061     2.190     2.314
    55   1 H        0.924     0.057     2.240     2.341
    56   1 H        0.924     0.058     2.228     2.334
    57   1 H        0.925     0.084     1.941     2.178
    58   1 H        0.925     0.083     1.946     2.181
    59   1 H        0.924     0.050     2.315     2.380
    60   1 H        0.924     0.054     2.269     2.356
    61   1 H        0.926     0.049     2.335     2.390
    62   1 H        0.803     0.007     2.985     2.714
    63   1 H        0.927     0.076     2.024     2.225
    64   1 H        0.926     0.076     2.021     2.223
    65   1 H        0.924     0.038     2.470     2.458
    66   1 H        0.925     0.070     2.087     2.259
    67   1 H        0.925     0.036     2.502     2.474
    68   1 H        0.925     0.052     2.293     2.368
    69   1 H        0.925     0.064     2.151     2.293
    70   1 H        0.925     0.036     2.508     2.477
    71   1 H        0.925     0.055     2.259     2.350
    72   1 H        0.860     0.160     1.335     1.810

Wiberg/Mayer (AO) data.
largest (>0.10) Wiberg bond orders for each atom

     #   Z sym  total        # sym  WBO       # sym  WBO       # sym  WBO
 ---------------------------------------------------------------------------
     1   7 N    3.012 --     2 C    1.957    72 H    0.940
     2   6 C    3.941 --     1 N    1.957     3 C    0.991    47 H    0.929
     3   6 C    3.959 --     2 C    0.991     4 C    0.973    31 C    0.950
                            14 C    0.922
     4   6 C    3.936 --    13 C    1.406     5 C    1.373     3 C    0.973
     5   6 C    3.956 --     6 C    1.397     4 C    1.373    34 H    0.957
     6   6 C    3.893 --     5 C    1.397     9 C    1.216     7 O    1.102
     7   8 O    2.249 --     6 C    1.102     8 C    0.978
     8   6 C    3.930 --     7 O    0.978    36 H    0.976    35 H    0.973
                            37 H    0.973
     9   6 C    3.888 --    12 C    1.384     6 C    1.216    10 O    1.107
    10   8 O    2.249 --     9 C    1.107    11 C    0.977
    11   6 C    3.928 --    10 O    0.977    39 H    0.977    40 H    0.973
                            38 H    0.972
    12   6 C    3.956 --    13 C    1.414     9 C    1.384    41 H    0.963
    13   6 C    3.943 --    12 C    1.414     4 C    1.406    42 H    0.962
    14   6 C    3.986 --    15 C    1.045    44 H    0.970    43 H    0.948
                             3 C    0.922
    15   6 C    3.814 --    16 C    1.709    14 C    1.045    45 H    0.956
    16   6 C    3.929 --    15 C    1.709    17 N    1.123    48 H    0.956
    17   7 N    3.574 --    30 C    1.411    16 C    1.123    18 C    0.979
    18   6 C    3.953 --    17 N    0.979    19 C    0.970    50 H    0.968
                            49 H    0.966
    19   6 C    3.978 --    20 C    1.009    51 H    0.973    18 C    0.970
                            52 H    0.968
    20   6 C    3.938 --    21 C    1.407    29 C    1.379    19 C    1.009
    21   6 C    3.943 --    22 C    1.417    20 C    1.407    53 H    0.967
    22   6 C    3.955 --    21 C    1.417    23 C    1.381    54 H    0.963
    23   6 C    3.888 --    22 C    1.381    26 C    1.213    24 O    1.115
    24   8 O    2.254 --    23 C    1.115    25 C    0.975
    25   6 C    3.926 --    57 H    0.976    24 O    0.975    56 H    0.972
                            55 H    0.972
    26   6 C    3.892 --    29 C    1.394    23 C    1.213    27 O    1.108
    27   8 O    2.254 --    26 C    1.108    28 C    0.978
    28   6 C    3.930 --    27 O    0.978    58 H    0.976    59 H    0.973
                            60 H    0.973
    29   6 C    3.956 --    26 C    1.394    20 C    1.379    61 H    0.962
    30   6 C    3.504 --    17 N    1.411    64 H    0.972    63 H    0.968
    31   6 C    3.972 --    33 C    1.008    32 C    1.006    65 H    0.958
                             3 C    0.950
    32   6 C    3.973 --    31 C    1.006    67 H    0.981    68 H    0.981
                            66 H    0.972
    33   6 C    3.978 --    31 C    1.008    70 H    0.982    71 H    0.979
                            69 H    0.974
    34   1 H    0.996 --     5 C    0.957
    35   1 H    0.992 --     8 C    0.973
    36   1 H    0.993 --     8 C    0.976
    37   1 H    0.992 --     8 C    0.973
    38   1 H    0.991 --    11 C    0.972
    39   1 H    0.992 --    11 C    0.977
    40   1 H    0.992 --    11 C    0.973
    41   1 H    0.995 --    12 C    0.963
    42   1 H    0.997 --    13 C    0.962
    43   1 H    0.987 --    14 C    0.948
    44   1 H    0.996 --    14 C    0.970
    45   1 H    0.997 --    15 C    0.956
    46   1 H    0.999 --    62 H    0.998
    47   1 H    0.979 --     2 C    0.929
    48   1 H    0.996 --    16 C    0.956
    49   1 H    0.991 --    18 C    0.966
    50   1 H    0.993 --    18 C    0.968
    51   1 H    0.996 --    19 C    0.973
    52   1 H    0.995 --    19 C    0.968
    53   1 H    0.997 --    21 C    0.967
    54   1 H    0.994 --    22 C    0.963
    55   1 H    0.990 --    25 C    0.972
    56   1 H    0.991 --    25 C    0.972
    57   1 H    0.992 --    25 C    0.976
    58   1 H    0.992 --    28 C    0.976
    59   1 H    0.992 --    28 C    0.973
    60   1 H    0.992 --    28 C    0.973
    61   1 H    0.996 --    29 C    0.962
    62   1 H    0.999 --    46 H    0.998
    63   1 H    0.994 --    30 C    0.968
    64   1 H    0.994 --    30 C    0.972
    65   1 H    0.990 --    31 C    0.958
    66   1 H    0.989 --    32 C    0.972
    67   1 H    0.996 --    32 C    0.981
    68   1 H    0.993 --    32 C    0.981
    69   1 H    0.991 --    33 C    0.974
    70   1 H    0.996 --    33 C    0.982
    71   1 H    0.993 --    33 C    0.979
    72   1 H    0.967 --     1 N    0.940
 ---------------------------------------------------------------------------

molecular dipole:
                 x           y           z       tot (Debye)
 q only:        1.009      -0.235      -0.062
   full:        1.229      -0.457       0.011       3.332

           -------------------------------------------------
          | TOTAL ENERGY              -99.340440689020 Eh   |
          | GRADIENT NORM               0.002964954901 Eh/α |
          | HOMO-LUMO GAP               1.385136501597 eV   |
           -------------------------------------------------

 * finished run on 2024/04/06 at 11:12:07.072
