   * xtb version 6.6.1 (8d0f1dd) compiled by 'conda@1efc2f54142f' on 2023-08-01
          program call               : xtb xtbopt.xyz --opt crude --input .xc2 --gfn2

   ID    Z sym.   atoms
    1    7 N      1, 17
    2    6 C      2-6, 8, 9, 11-16, 18-23, 25, 26, 28-33
    3    8 O      7, 10, 24, 27
    4    1 H      34-72

          :  Hamiltonian                  GFN2-xTB          :
 * total energy  :   -99.3404410 Eh     change        0.8526513E-13 Eh
 * total energy  :   -99.3404869 Eh     change       -0.4592819E-04 Eh
   *** GEOMETRY OPTIMIZATION CONVERGED AFTER 2 ITERATIONS ***

 final structure:
================
72
 xtb: 6.6.1 (8d0f1dd)
N           -2.67083302386121        2.99726786875487        2.67935173211522
C           -2.43209341211419        2.08150321357861        1.86314782279257
C           -3.22426187111548        1.85444426084416        0.60162727796927
C           -3.88231510174285        0.48481985174359        0.65351089040902
C           -4.48598846024190       -0.03875247587138       -0.49082744576542
C           -5.06967908839905       -1.29517965816924       -0.49120911131807
O           -5.67443310732291       -1.87353304457766       -1.54866299021816
C           -5.83092454685200       -1.14103292774277       -2.74087634998759
C           -5.04171439588862       -2.07981594366706        0.69468546164339
O           -5.59418016535213       -3.30360019833754        0.59303331508808
C           -5.60653541155791       -4.14715278969554        1.72093348698130
C           -4.46711989870110       -1.54027796268603        1.83549142092746
C           -3.90289904278408       -0.27320358609874        1.81517569154957
C           -2.15983524866217        1.86814704863845       -0.54378691355062
C           -1.30770810648407        0.64846274538761       -0.52489549048709
C            0.00815852424066        0.66688012669332       -0.25376648949245
N            0.84084522865655       -0.42811637320805       -0.15523167210301
C            2.24832311426854       -0.18097379973424        0.09514044044392
C            3.04958968096107       -0.13927888158788       -1.21841868073217
C            4.51103323710402        0.05751812484603       -0.92762935722600
C            5.09094754133621        1.31362111845979       -1.00240867523078
C            6.43622628288506        1.49269848287775       -0.71950405024704
C            7.22926307770326        0.41648127700828       -0.34686780385190
O            8.54137679396782        0.47019352425605       -0.05844064195133
C            9.22247497980027        1.69887291121294       -0.17141120330750
C            6.63989108459499       -0.87633465437529       -0.25403301871737
O            7.47867961224301       -1.86145615300086        0.11851381221175
C            6.99549483478490       -3.17991881030286        0.21990851973664
C            5.29376455103179       -1.03017112936636       -0.54563924818773
C            0.45406925314282       -1.68192882655356       -0.33500126062550
C           -4.31641850727339        2.92774788065622        0.34478249235823
C           -5.38793231932596        2.89296433637842        1.43254174206060
C           -3.75736031954989        4.34154968102818        0.21381137822167
H           -4.50167883906851        0.54543320831480       -1.39629380200130
H           -6.40472459241784       -0.22410782576288       -2.57499538741923
H           -6.38332924368575       -1.79387090947044       -3.41416755864671
H           -4.86472067519989       -0.89320743173872       -3.19223445264235
H           -6.18419603075743       -3.71198081145185        2.54166081183782
H           -6.08451969888437       -5.06777286388672        1.39190555315724
H           -4.59169034647533       -4.36839922509880        2.06633125121313
H           -4.45673387968600       -2.09957619583711        2.75664330482732
H           -3.48663965759150        0.12157261245091        2.72838630439740
H           -2.68858406690249        1.92592223357696       -1.49725136269796
H           -1.54334844161539        2.76134085853778       -0.44006579689253
H           -1.82258704853852       -0.28079744167714       -0.71260633604512
H           -0.52373162846044        0.04164248557449       -3.36322285800906
H           -1.59494948122525        1.37240867022113        1.96410576800661
H            0.50372879937964        1.61093708594605       -0.07599595426371
H            2.64172210435285       -0.97695018672704        0.73147738088238
H            2.36571102482666        0.76778447307110        0.62172207694349
H            2.67791942934709        0.67458253139063       -1.84266519597345
H            2.89633956041156       -1.07830075836142       -1.75406635499166
H            4.49711239536644        2.16554114140626       -1.29617766334161
H            6.86095488352113        2.48007363999963       -0.79572723907639
H            8.83131307844496        2.43985279299627        0.53216814896355
H            9.16567868306267        2.09477257127330       -1.18964649600428
H           10.26008638079617        1.48112589735196        0.07417837802784
H            7.85145157714054       -3.78262718473756        0.51724765590904
H            6.21365204147071       -3.26291893480706        0.98161282360203
H            6.61378693612762       -3.54236299154471       -0.73950065401724
H            4.84069060886658       -2.00790108681759       -0.49348515646759
H           -0.30415775143306       -0.60138739875601       -3.74458445646155
H           -0.56175794823672       -1.91559431281811       -0.57742779013012
H            1.16959507729354       -2.47144646290035       -0.22035461950271
H           -4.79532838793764        2.66507192764086       -0.60588453262352
H           -4.95811422141629        3.18540098716351        2.38546289160532
H           -5.81702655413640        1.89838752881856        1.52905109785711
H           -6.18513474242729        3.58840325418481        1.18367345635656
H           -3.23503972414956        4.62465434116923        1.12248549993405
H           -3.08258160250588        4.43421002982803       -0.63322833748775
H           -4.57861636643754        5.03732455868817        0.06273285178854
H           -2.06194182370708        3.08445347801037        3.48695651045743

          :  Hamiltonian                  GFN2-xTB          :
         :: total energy             -99.340486881726 Eh    ::
         :: gradient norm              0.001509391597 Eh/a0 ::
         :: HOMO-LUMO gap              1.385847528410 eV    ::
         :: SCC energy              -100.763165282099 Eh    ::
         :: -> dispersion             -0.072640935227 Eh    ::
         :: repulsion energy           1.421695738679 Eh    ::

    * Orbital Energies and Occupations

         #    Occupation            Energy/Eh            Energy/eV
      -------------------------------------------------------------
         1        2.0000           -0.8101620             -22.0456
       ...           ...                  ...                  ...
        78        1.9976           -0.5285062             -14.3814
        79        1.9975           -0.5276164             -14.3572
        80        1.9968           -0.5238446             -14.2545
        81        1.9963           -0.5216160             -14.1939
        82        1.9949           -0.5166047             -14.0575
        83        1.9932           -0.5119235             -13.9301
        84        1.9925           -0.5103909             -13.8884
        85        1.9903           -0.5064160             -13.7803
        86        1.9734           -0.4902855             -13.3413
        87        1.9719           -0.4893556             -13.3160
        88        1.8948           -0.4678497             -12.7308
        89        1.8189           -0.4586023             -12.4792
        90        1.8141           -0.4581444             -12.4667 (HOMO)
        91        0.5626           -0.4072155             -11.0809 (LUMO)
        92        0.0090           -0.3365349              -9.1576
        93        0.0024           -0.3155487              -8.5865
        94        0.0023           -0.3151190              -8.5748
        95        0.0019           -0.3122659              -8.4972
        96        0.0019           -0.3119927              -8.4898
        97        0.0009           -0.2999468              -8.1620
        98        0.0000           -0.1896687              -5.1611
        99        0.0000           -0.1893841              -5.1534
       100                         -0.1196772              -3.2566
       101                         -0.0643171              -1.7502
       ...                                ...                  ...
       171                          0.5748957              15.6437
      -------------------------------------------------------------
                  HL-Gap            0.0509290 Eh            1.3858 eV

     #   Z          covCN         q      C6AA      α(0)
     1   7 N        1.774    -0.265    27.708     7.795
     2   6 C        2.828     0.104    25.695     8.306
     3   6 C        3.909     0.011    20.339     6.410
     4   6 C        2.974     0.007    27.861     8.658
     5   6 C        2.920    -0.076    29.904     8.968
     6   6 C        2.862     0.131    25.127     8.216
     7   8 O        1.706    -0.226    17.755     5.689
     8   6 C        3.644     0.027    20.452     6.500
     9   6 C        2.864     0.132    25.117     8.215
    10   8 O        1.706    -0.223    17.700     5.680
    11   6 C        3.645     0.026    20.476     6.503
    12   6 C        2.913    -0.069    29.714     8.939
    13   6 C        2.922    -0.046    29.151     8.854
    14   6 C        3.817    -0.061    21.656     6.623
    15   6 C        2.890    -0.044    29.093     8.843
    16   6 C        2.851    -0.016    28.397     8.734
    17   7 N        2.733     0.062    20.163     6.669
    18   6 C        3.769    -0.019    20.958     6.524
    19   6 C        3.808    -0.069    21.810     6.648
    20   6 C        2.969     0.003    27.963     8.674
    21   6 C        2.921    -0.046    29.153     8.854
    22   6 C        2.913    -0.066    29.650     8.929
    23   6 C        2.865     0.135    25.053     8.205
    24   8 O        1.706    -0.218    17.621     5.668
    25   6 C        3.645     0.024    20.508     6.509
    26   6 C        2.862     0.134    25.060     8.205
    27   8 O        1.706    -0.221    17.671     5.676
    28   6 C        3.645     0.026    20.470     6.503
    29   6 C        2.919    -0.079    29.972     8.978
    30   6 C        2.803    -0.070    29.728     8.932
    31   6 C        3.852    -0.007    20.670     6.466
    32   6 C        3.756    -0.118    22.815     6.810
    33   6 C        3.755    -0.119    22.834     6.814
    34   1 H        0.926     0.053     2.281     2.362
    35   1 H        0.924     0.055     2.257     2.349
    36   1 H        0.925     0.082     1.960     2.189
    37   1 H        0.924     0.049     2.337     2.391
    38   1 H        0.924     0.057     2.230     2.335
    39   1 H        0.925     0.082     1.956     2.187
    40   1 H        0.924     0.052     2.300     2.372
    41   1 H        0.926     0.057     2.234     2.337
    42   1 H        0.926     0.045     2.378     2.411
    43   1 H        0.924     0.067     2.116     2.275
    44   1 H        0.924     0.054     2.267     2.354
    45   1 H        0.926     0.051     2.312     2.378
    46   1 H        0.806    -0.008     3.258     2.835
    47   1 H        0.923     0.009     2.903     2.665
    48   1 H        0.926     0.060     2.204     2.322
    49   1 H        0.924     0.072     2.065     2.247
    50   1 H        0.924     0.071     2.073     2.251
    51   1 H        0.924     0.057     2.229     2.335
    52   1 H        0.924     0.058     2.224     2.332
    53   1 H        0.926     0.050     2.324     2.384
    54   1 H        0.926     0.061     2.190     2.314
    55   1 H        0.924     0.056     2.241     2.341
    56   1 H        0.924     0.058     2.228     2.334
    57   1 H        0.925     0.084     1.940     2.178
    58   1 H        0.925     0.083     1.946     2.181
    59   1 H        0.924     0.050     2.316     2.380
    60   1 H        0.924     0.054     2.270     2.356
    61   1 H        0.926     0.049     2.335     2.390
    62   1 H        0.806     0.008     2.972     2.708
    63   1 H        0.927     0.076     2.024     2.225
    64   1 H        0.926     0.076     2.022     2.224
    65   1 H        0.924     0.038     2.470     2.458
    66   1 H        0.925     0.070     2.087     2.259
    67   1 H        0.925     0.036     2.503     2.474
    68   1 H        0.925     0.052     2.294     2.368
    69   1 H        0.925     0.064     2.151     2.294
    70   1 H        0.925     0.036     2.508     2.477
    71   1 H        0.925     0.055     2.259     2.350
    72   1 H        0.860     0.160     1.335     1.810

Wiberg/Mayer (AO) data.
largest (>0.10) Wiberg bond orders for each atom

     #   Z sym  total        # sym  WBO       # sym  WBO       # sym  WBO
 ---------------------------------------------------------------------------
     1   7 N    3.012 --     2 C    1.957    72 H    0.940
     2   6 C    3.941 --     1 N    1.957     3 C    0.991    47 H    0.929
     3   6 C    3.959 --     2 C    0.991     4 C    0.973    31 C    0.950
                            14 C    0.922
     4   6 C    3.936 --    13 C    1.405     5 C    1.373     3 C    0.973
     5   6 C    3.956 --     6 C    1.397     4 C    1.373    34 H    0.957
     6   6 C    3.893 --     5 C    1.397     9 C    1.216     7 O    1.102
     7   8 O    2.248 --     6 C    1.102     8 C    0.978
     8   6 C    3.930 --     7 O    0.978    36 H    0.976    35 H    0.973
                            37 H    0.973
     9   6 C    3.888 --    12 C    1.384     6 C    1.216    10 O    1.107
    10   8 O    2.249 --     9 C    1.107    11 C    0.977
    11   6 C    3.928 --    39 H    0.977    10 O    0.977    40 H    0.973
                            38 H    0.972
    12   6 C    3.956 --    13 C    1.414     9 C    1.384    41 H    0.963
    13   6 C    3.943 --    12 C    1.414     4 C    1.405    42 H    0.962
    14   6 C    3.986 --    15 C    1.045    44 H    0.970    43 H    0.948
                             3 C    0.922
    15   6 C    3.814 --    16 C    1.709    14 C    1.045    45 H    0.956
    16   6 C    3.929 --    15 C    1.709    17 N    1.122    48 H    0.956
    17   7 N    3.574 --    30 C    1.412    16 C    1.122    18 C    0.979
    18   6 C    3.953 --    17 N    0.979    19 C    0.970    50 H    0.968
                            49 H    0.966
    19   6 C    3.978 --    20 C    1.009    51 H    0.973    18 C    0.970
                            52 H    0.968
    20   6 C    3.938 --    21 C    1.407    29 C    1.379    19 C    1.009
    21   6 C    3.943 --    22 C    1.417    20 C    1.407    53 H    0.967
    22   6 C    3.955 --    21 C    1.417    23 C    1.381    54 H    0.963
    23   6 C    3.888 --    22 C    1.381    26 C    1.213    24 O    1.115
    24   8 O    2.254 --    23 C    1.115    25 C    0.975
    25   6 C    3.926 --    57 H    0.976    24 O    0.975    56 H    0.972
                            55 H    0.972
    26   6 C    3.892 --    29 C    1.394    23 C    1.213    27 O    1.108
    27   8 O    2.253 --    26 C    1.108    28 C    0.978
    28   6 C    3.930 --    27 O    0.978    58 H    0.976    59 H    0.973
                            60 H    0.973
    29   6 C    3.956 --    26 C    1.394    20 C    1.379    61 H    0.962
    30   6 C    3.505 --    17 N    1.412    64 H    0.972    63 H    0.968
    31   6 C    3.972 --    33 C    1.008    32 C    1.006    65 H    0.958
                             3 C    0.950
    32   6 C    3.973 --    31 C    1.006    67 H    0.981    68 H    0.981
                            66 H    0.972
    33   6 C    3.978 --    31 C    1.008    70 H    0.982    71 H    0.979
                            69 H    0.974
    34   1 H    0.996 --     5 C    0.957
    35   1 H    0.992 --     8 C    0.973
    36   1 H    0.993 --     8 C    0.976
    37   1 H    0.992 --     8 C    0.973
    38   1 H    0.991 --    11 C    0.972
    39   1 H    0.992 --    11 C    0.977
    40   1 H    0.992 --    11 C    0.973
    41   1 H    0.995 --    12 C    0.963
    42   1 H    0.997 --    13 C    0.962
    43   1 H    0.987 --    14 C    0.948
    44   1 H    0.996 --    14 C    0.970
    45   1 H    0.997 --    15 C    0.956
    46   1 H    0.999 --    62 H    0.998
    47   1 H    0.979 --     2 C    0.929
    48   1 H    0.996 --    16 C    0.956
    49   1 H    0.991 --    18 C    0.966
    50   1 H    0.993 --    18 C    0.968
    51   1 H    0.996 --    19 C    0.973
    52   1 H    0.995 --    19 C    0.968
    53   1 H    0.997 --    21 C    0.967
    54   1 H    0.994 --    22 C    0.963
    55   1 H    0.990 --    25 C    0.972
    56   1 H    0.991 --    25 C    0.972
    57   1 H    0.992 --    25 C    0.976
    58   1 H    0.992 --    28 C    0.976
    59   1 H    0.992 --    28 C    0.973
    60   1 H    0.992 --    28 C    0.973
    61   1 H    0.996 --    29 C    0.962
    62   1 H    0.999 --    46 H    0.998
    63   1 H    0.994 --    30 C    0.968
    64   1 H    0.994 --    30 C    0.972
    65   1 H    0.990 --    31 C    0.958
    66   1 H    0.989 --    32 C    0.972
    67   1 H    0.996 --    32 C    0.981
    68   1 H    0.993 --    32 C    0.981
    69   1 H    0.991 --    33 C    0.974
    70   1 H    0.996 --    33 C    0.982
    71   1 H    0.993 --    33 C    0.979
    72   1 H    0.967 --     1 N    0.940
 ---------------------------------------------------------------------------

molecular dipole:
                 x           y           z       tot (Debye)
 q only:        1.008      -0.235      -0.063
   full:        1.228      -0.457       0.011       3.330

           -------------------------------------------------
          | TOTAL ENERGY              -99.340486881726 Eh   |
          | GRADIENT NORM               0.001509391597 Eh/α |
          | HOMO-LUMO GAP               1.385847528410 eV   |
           -------------------------------------------------

 * finished run on 2024/04/06 at 11:12:07.693
