   * xtb version 6.6.1 (8d0f1dd) compiled by 'conda@1efc2f54142f' on 2023-08-01
          program call               : xtb struc.xyz --opt loose --input .xc1 --gfn2

   ID    Z sym.   atoms
    1    7 N      1, 17
    2    6 C      2-6, 8, 9, 11-16, 18-23, 25, 26, 28-33
    3    8 O      7, 10, 24, 27
    4    1 H      34-72
constraining bond 20 53 to    4.1400000 Å, actual value:    2.1394549 Å

          :  Hamiltonian                  GFN2-xTB          :
 * total energy  :   -98.6895287 Eh     change       -0.4035485E-08 Eh
 * total energy  :   -98.8984601 Eh     change       -0.2089314E+00 Eh
 * total energy  :   -99.0339198 Eh     change       -0.1354597E+00 Eh
 * total energy  :   -99.1068106 Eh     change       -0.7289073E-01 Eh
 * total energy  :   -99.1459633 Eh     change       -0.3915274E-01 Eh
 * total energy  :   -99.1693279 Eh     change       -0.2336461E-01 Eh
 * total energy  :   -99.1845919 Eh     change       -0.1526403E-01 Eh
 * total energy  :   -99.2059934 Eh     change       -0.2140146E-01 Eh
 * total energy  :   -99.2268740 Eh     change       -0.2088062E-01 Eh
 * total energy  :   -99.2320857 Eh     change       -0.5211691E-02 Eh
 * total energy  :   -99.2452606 Eh     change        0.1380604E-02 Eh
 * total energy  :   -99.2481125 Eh     change       -0.2851891E-02 Eh
 * total energy  :   -99.2485312 Eh     change       -0.4186470E-03 Eh
 * total energy  :   -99.2487146 Eh     change       -0.1834073E-03 Eh
 * total energy  :   -99.2487278 Eh     change       -0.1316350E-04 Eh
 * total energy  :   -99.2489961 Eh     change       -0.2683835E-03 Eh
 * total energy  :   -99.2491366 Eh     change       -0.1404353E-03 Eh
 * total energy  :   -99.2492699 Eh     change       -0.1333444E-03 Eh
 * total energy  :   -99.2493077 Eh     change       -0.3781670E-04 Eh
   *** GEOMETRY OPTIMIZATION CONVERGED AFTER 44 ITERATIONS ***

 final structure:
================
72
 xtb: 6.6.1 (8d0f1dd)
N           -1.84117174959120        2.87403836005862        2.18273864030337
C           -1.77855731818907        2.21623603240408        1.12553369441347
C           -2.93475759399766        1.97510391005540        0.19360198086444
C           -3.39148174132225        0.52862412106262        0.29532552150429
C           -4.30142564702266        0.02558630739402       -0.63673594783933
C           -4.77199257125539       -1.27502105380059       -0.56004037035853
O           -5.65106686985124       -1.83659170174090       -1.41237426155525
C           -6.23796429882844       -1.04755371934198       -2.42112317518016
C           -4.31820247649661       -2.12269874940754        0.48840478853211
O           -4.83075921296316       -3.36738005562490        0.48792517591188
C           -4.51687031624917       -4.24065577231840        1.54783018441641
C           -3.41270541299754       -1.61699408106580        1.40846959489698
C           -2.95599850755743       -0.30839288040699        1.31186042410665
C           -2.39312983609932        2.26757244069177       -1.22972684676464
C           -1.47485349160631        1.16747290005740       -1.79436617173889
C           -0.14869098723659        1.10960854395511       -1.14522568355324
N            0.46123672236071        0.02574368439508       -0.72982187421256
C            1.83257011630101        0.09227029502271       -0.27051880926649
C            2.78777770388834       -0.65662183324643       -1.21213210143373
C            4.20824217271188       -0.39508645820958       -0.80250202327807
C            4.79712875022117        0.83188701234035       -0.93140565080739
C            6.07097634426106        1.16262638756728       -0.59205853749337
C            6.87964547049064        0.16068609311534       -0.04489573023367
O            8.15383542665823        0.30939280519452        0.34108325325487
C            8.78396992977088        1.56220535123135        0.19809509356449
C            6.32579133976023       -1.14054086975799        0.12879807322606
O            7.17199759172584       -2.04288794240883        0.66610744976630
C            6.73363583063786       -3.36458007236735        0.87518293108382
C            5.01393676388891       -1.39590254265745       -0.24459342951185
C           -0.17458972296467       -1.27330184260839       -0.70340257694605
C           -4.16390337152581        2.88512011614393        0.49870861942238
C           -4.79174213923709        2.54278725104335        1.84788299465326
C           -3.83532892521000        4.37365915257763        0.44582786497055
H           -4.65953619578917        0.66669561682317       -1.42487721279970
H           -6.77473612958393       -0.19271795032753       -1.99929485400932
H           -6.94449160544801       -1.70141719507345       -2.92844245979741
H           -5.49285742214240       -0.69475043875347       -3.14158997710071
H           -4.81035084741501       -3.81907853033473        2.51357201770043
H           -5.09046561845144       -5.14603954969466        1.35953613926861
H           -3.44998298163144       -4.48528178843279        1.56429023910839
H           -3.06186311362423       -2.23240401501794        2.22080721752540
H           -2.27323999497571        0.05947668074038        2.06190577789824
H           -3.23341145182605        2.38967592779843       -1.91216166264045
H           -1.84448409313150        3.20986683225149       -1.20976015663401
H           -1.98712981063262        0.20617670483172       -1.77037472091287
H           -1.29019835631207        1.42590179310702       -2.84457326373705
H           -0.84306520264939        1.77135772234013        0.73329824388858
H            0.44724586252704        2.02868888024730       -1.11442892993914
H            1.89657925309687       -0.32995733209151        0.73643652131373
H            2.13387067188682        1.14967286144000       -0.23241307460877
H            2.63585324003107       -0.28772608086875       -2.22873753793208
H            2.58696981938038       -1.72841064636752       -1.19472970124476
H            1.84614732235317        2.99620500817521       -0.53059982388427
H            6.44778078635515        2.16143058848184       -0.74004466502880
H            8.27590149074586        2.33386431840618        0.78421339195263
H            8.83008444387351        1.86831202670758       -0.85132828567481
H            9.79423352425940        1.42533359418177        0.57922375967169
H            7.58291772927881       -3.88731498433406        1.31110298230585
H            5.89028906473203       -3.40195973945214        1.57186872641651
H            6.45565053387133       -3.84860409894531       -0.06619470872290
H            4.59611997355778       -2.38327581683571       -0.12089312684459
H           -0.26876613001022       -1.68356680898621       -1.71067029443725
H           -1.16761987690752       -1.20399591543148       -0.25441876781048
H            0.42735879979314       -1.95307398001082       -0.10535779121935
H           -4.90549153117481        2.67354109316346       -0.28037733510323
H           -4.08390486447016        2.73782930249407        2.64733199366776
H           -5.09394530740291        1.49912991739912        1.89026142189093
H           -5.67205447389510        3.15993562525304        2.00682479908064
H           -3.08672266125871        4.62308607843830        1.19181770243479
H           -3.47820006677609        4.67682435794539       -0.53467530361576
H           -4.73397303831775        4.94468692740439        0.66485755736522
H           -0.98954811731555        3.00961134637447        2.71740691016772

          :  Hamiltonian                  GFN2-xTB          :
         :: total energy             -99.249307739495 Eh    ::
         :: gradient norm              0.001352346280 Eh/a0 ::
         :: HOMO-LUMO gap              0.326606605355 eV    ::
         :: SCC energy              -100.618273701606 Eh    ::
         :: -> dispersion             -0.077760740708 Eh    ::
         :: repulsion energy           1.367634987363 Eh    ::

    * Orbital Energies and Occupations

         #    Occupation            Energy/Eh            Energy/eV
      -------------------------------------------------------------
         1        2.0000           -0.8166740             -22.2228
       ...           ...                  ...                  ...
        78        1.9978           -0.5351847             -14.5631
        79        1.9977           -0.5343830             -14.5413
        80        1.9973           -0.5319159             -14.4742
        81        1.9966           -0.5284364             -14.3795
        82        1.9941           -0.5197880             -14.1442
        83        1.9929           -0.5168868             -14.0652
        84        1.9916           -0.5141851             -13.9917
        85        1.9765           -0.4977391             -13.5442
        86        1.9729           -0.4954134             -13.4809
        87        1.9093           -0.4757797             -12.9466
        88        1.8425           -0.4664824             -12.6936
        89        1.7914           -0.4615863             -12.5604
        90        1.3315           -0.4384497             -11.9308 (HOMO)
        91        0.9655           -0.4264471             -11.6042 (LUMO)
        92        0.2358           -0.3956752             -10.7669
        93        0.0098           -0.3434688              -9.3463
        94        0.0029           -0.3240964              -8.8191
        95        0.0027           -0.3226392              -8.7795
        96        0.0024           -0.3211460              -8.7388
        97        0.0011           -0.3090789              -8.4105
        98        0.0000           -0.1986519              -5.4056
        99        0.0000           -0.1912612              -5.2045
       100                         -0.1382690              -3.7625
       101                         -0.0723498              -1.9687
       ...                                ...                  ...
       171                          0.5642223              15.3533
      -------------------------------------------------------------
                  HL-Gap            0.0120026 Eh            0.3266 eV

     #   Z          covCN         q      C6AA      α(0)
     1   7 N        1.774    -0.256    27.468     7.761
     2   6 C        2.827     0.103    25.715     8.309
     3   6 C        3.907     0.007    20.404     6.421
     4   6 C        2.974     0.004    27.934     8.669
     5   6 C        2.920    -0.080    30.002     8.982
     6   6 C        2.862     0.131    25.138     8.218
     7   8 O        1.706    -0.226    17.745     5.687
     8   6 C        3.644     0.026    20.475     6.504
     9   6 C        2.864     0.130    25.158     8.222
    10   8 O        1.706    -0.224    17.718     5.683
    11   6 C        3.645     0.025    20.482     6.504
    12   6 C        2.913    -0.074    29.840     8.958
    13   6 C        2.921    -0.052    29.301     8.877
    14   6 C        3.813    -0.065    21.742     6.637
    15   6 C        3.802    -0.069    21.817     6.650
    16   6 C        2.845     0.023    27.482     8.592
    17   7 N        2.729     0.032    20.681     6.754
    18   6 C        3.759    -0.026    21.080     6.546
    19   6 C        3.807    -0.064    21.722     6.635
    20   6 C        2.964     0.018    27.609     8.619
    21   6 C        2.026    -0.055    32.498     9.207
    22   6 C        2.908    -0.055    29.354     8.884
    23   6 C        2.875     0.139    24.961     8.190
    24   8 O        1.706    -0.208    17.458     5.641
    25   6 C        3.645     0.022    20.532     6.512
    26   6 C        2.859     0.130    25.156     8.221
    27   8 O        1.706    -0.221    17.661     5.674
    28   6 C        3.644     0.025    20.492     6.507
    29   6 C        2.933    -0.075    29.874     8.964
    30   6 C        3.700    -0.075    22.101     6.723
    31   6 C        3.853    -0.007    20.661     6.465
    32   6 C        3.756    -0.120    22.850     6.816
    33   6 C        3.755    -0.119    22.836     6.814
    34   1 H        0.926     0.055     2.264     2.353
    35   1 H        0.924     0.056     2.246     2.344
    36   1 H        0.925     0.084     1.943     2.180
    37   1 H        0.924     0.049     2.326     2.385
    38   1 H        0.924     0.057     2.231     2.336
    39   1 H        0.925     0.083     1.944     2.181
    40   1 H        0.924     0.050     2.316     2.380
    41   1 H        0.926     0.055     2.260     2.351
    42   1 H        0.926     0.042     2.421     2.433
    43   1 H        0.925     0.063     2.167     2.302
    44   1 H        0.924     0.062     2.171     2.304
    45   1 H        0.925     0.065     2.136     2.286
    46   1 H        0.924     0.091     1.868     2.138
    47   1 H        0.922     0.017     2.776     2.606
    48   1 H        0.924     0.116     1.650     2.009
    49   1 H        0.924     0.067     2.122     2.278
    50   1 H        0.923     0.106     1.733     2.059
    51   1 H        0.924     0.067     2.122     2.278
    52   1 H        0.924     0.053     2.280     2.361
    53   1 H        0.000    -0.301    56.721    13.771
    54   1 H        0.926     0.081     1.968     2.194
    55   1 H        0.924     0.061     2.183     2.311
    56   1 H        0.924     0.062     2.177     2.307
    57   1 H        0.925     0.087     1.906     2.159
    58   1 H        0.925     0.085     1.925     2.170
    59   1 H        0.924     0.053     2.289     2.366
    60   1 H        0.924     0.055     2.255     2.348
    61   1 H        0.926     0.061     2.185     2.311
    62   1 H        0.924     0.080     1.977     2.199
    63   1 H        0.924     0.081     1.970     2.195
    64   1 H        0.925     0.083     1.952     2.185
    65   1 H        0.924     0.040     2.452     2.449
    66   1 H        0.925     0.072     2.063     2.246
    67   1 H        0.925     0.036     2.499     2.472
    68   1 H        0.925     0.054     2.269     2.356
    69   1 H        0.925     0.062     2.171     2.304
    70   1 H        0.925     0.039     2.467     2.456
    71   1 H        0.925     0.057     2.235     2.338
    72   1 H        0.860     0.167     1.292     1.781

Wiberg/Mayer (AO) data.
largest (>0.10) Wiberg bond orders for each atom

     #   Z sym  total        # sym  WBO       # sym  WBO       # sym  WBO
 ---------------------------------------------------------------------------
     1   7 N    3.048 --     2 C    1.966    72 H    0.937
     2   6 C    3.933 --     1 N    1.966     3 C    0.992    47 H    0.892
     3   6 C    3.972 --     2 C    0.992     4 C    0.970    14 C    0.959
                            31 C    0.938
     4   6 C    3.943 --    13 C    1.408     5 C    1.369     3 C    0.970
     5   6 C    3.959 --     6 C    1.398     4 C    1.369    34 H    0.958
     6   6 C    3.900 --     5 C    1.398     9 C    1.216     7 O    1.105
     7   8 O    2.255 --     6 C    1.105     8 C    0.976
     8   6 C    3.929 --     7 O    0.976    36 H    0.976    35 H    0.973
                            37 H    0.973
     9   6 C    3.895 --    12 C    1.388     6 C    1.216    10 O    1.107
    10   8 O    2.253 --     9 C    1.107    11 C    0.976
    11   6 C    3.928 --    39 H    0.976    10 O    0.976    38 H    0.973
                            40 H    0.973
    12   6 C    3.959 --    13 C    1.404     9 C    1.388    41 H    0.963
    13   6 C    3.948 --     4 C    1.408    12 C    1.404    42 H    0.963
    14   6 C    3.973 --    15 C    0.978    44 H    0.971    43 H    0.968
                             3 C    0.959
    15   6 C    3.984 --    16 C    1.062    14 C    0.978    45 H    0.960
                            46 H    0.923
    16   6 C    3.666 --    17 N    1.490    15 C    1.062    48 H    0.903
    17   7 N    3.563 --    16 C    1.490    30 C    0.991    18 C    0.979
    18   6 C    3.912 --    17 N    0.979    19 C    0.972    49 H    0.960
                            50 H    0.928
    19   6 C    3.971 --    20 C    1.003    52 H    0.972    18 C    0.972
                            51 H    0.964
    20   6 C    3.894 --    21 C    1.415    29 C    1.332    19 C    1.003
    21   6 C    3.062 --    22 C    1.472    20 C    1.415
    22   6 C    3.926 --    21 C    1.472    23 C    1.316    54 H    0.944
    23   6 C    3.834 --    22 C    1.316    26 C    1.216    24 O    1.122
    24   8 O    2.259 --    23 C    1.122    25 C    0.970
    25   6 C    3.919 --    57 H    0.975    56 H    0.971    55 H    0.971
                            24 O    0.970
    26   6 C    3.885 --    29 C    1.394    23 C    1.216    27 O    1.104
    27   8 O    2.241 --    26 C    1.104    28 C    0.977
    28   6 C    3.927 --    27 O    0.977    58 H    0.976    59 H    0.972
                            60 H    0.972
    29   6 C    3.900 --    26 C    1.394    20 C    1.332    61 H    0.951
    30   6 C    3.950 --    17 N    0.991    64 H    0.977    62 H    0.965
                            63 H    0.960
    31   6 C    3.967 --    33 C    1.009    32 C    1.008    65 H    0.958
                             3 C    0.938
    32   6 C    3.973 --    31 C    1.008    67 H    0.981    68 H    0.980
                            66 H    0.971
    33   6 C    3.978 --    31 C    1.009    70 H    0.982    71 H    0.979
                            69 H    0.975
    34   1 H    0.996 --     5 C    0.958
    35   1 H    0.992 --     8 C    0.973
    36   1 H    0.992 --     8 C    0.976
    37   1 H    0.993 --     8 C    0.973
    38   1 H    0.992 --    11 C    0.973
    39   1 H    0.992 --    11 C    0.976
    40   1 H    0.992 --    11 C    0.973
    41   1 H    0.995 --    12 C    0.963
    42   1 H    0.997 --    13 C    0.963
    43   1 H    0.995 --    14 C    0.968
    44   1 H    0.995 --    14 C    0.971
    45   1 H    0.993 --    15 C    0.960
    46   1 H    0.976 --    15 C    0.923
    47   1 H    0.981 --     2 C    0.892
    48   1 H    0.986 --    16 C    0.903
    49   1 H    0.990 --    18 C    0.960
    50   1 H    0.989 --    18 C    0.928
    51   1 H    0.991 --    19 C    0.964
    52   1 H    0.995 --    19 C    0.972
    53   1 H    0.095
    54   1 H    0.975 --    22 C    0.944
    55   1 H    0.989 --    25 C    0.971
    56   1 H    0.989 --    25 C    0.971
    57   1 H    0.991 --    25 C    0.975
    58   1 H    0.992 --    28 C    0.976
    59   1 H    0.991 --    28 C    0.972
    60   1 H    0.991 --    28 C    0.972
    61   1 H    0.983 --    29 C    0.951
    62   1 H    0.987 --    30 C    0.965
    63   1 H    0.989 --    30 C    0.960
    64   1 H    0.993 --    30 C    0.977
    65   1 H    0.990 --    31 C    0.958
    66   1 H    0.989 --    32 C    0.971
    67   1 H    0.996 --    32 C    0.981
    68   1 H    0.993 --    32 C    0.980
    69   1 H    0.991 --    33 C    0.975
    70   1 H    0.996 --    33 C    0.982
    71   1 H    0.992 --    33 C    0.979
    72   1 H    0.965 --     1 N    0.937
 ---------------------------------------------------------------------------

molecular dipole:
                 x           y           z       tot (Debye)
 q only:        0.284      -1.320      -0.606
   full:        0.630      -1.450      -0.723       4.418

           -------------------------------------------------
          | TOTAL ENERGY              -99.249307739495 Eh   |
          | GRADIENT NORM               0.001352346280 Eh/α |
          | HOMO-LUMO GAP               0.326606605355 eV   |
           -------------------------------------------------

 * finished run on 2024/04/06 at 11:13:58.448
