   * xtb version 6.6.1 (8d0f1dd) compiled by 'conda@1efc2f54142f' on 2023-08-01
          program call               : xtb xtbopt.xyz --opt crude --input .xc2 --gfn2

   ID    Z sym.   atoms
    1    6 C      1, 3, 5-7, 10, 11, 14
    2    7 N      2, 4, 9, 13
    3    8 O      8, 12
    4    1 H      15-25

          :  Hamiltonian                  GFN2-xTB          :
 * total energy  :   -42.0320399 Eh     change       -0.4756373E-10 Eh
   *** GEOMETRY OPTIMIZATION CONVERGED AFTER 1 ITERATIONS ***

 final structure:
================
25
 xtb: 6.6.1 (8d0f1dd)
C            3.41099001775873        1.29171114470972        0.03138316520048
N            2.47103551189087        0.20365509974944       -0.02456837630879
C            2.75460323364208       -1.09544541752141       -0.04263140756415
N            1.61811458535859       -1.81660743531531       -0.06810199907030
C            0.56219173084658       -0.94161434322158       -0.06522941559870
C            1.10235292901312        0.33716551238229       -0.03853757878387
C            0.27385025256193        1.51982662037007       -0.03041458390941
O            0.64263968270494        2.67234810382217       -0.03729659379152
N           -1.09958875173197        1.15355892923660       -0.00658573850718
C           -2.03072440107295        2.27066873630395        0.01712797499119
C           -1.61060322721848       -0.05711643323860       -0.01870794627718
O           -4.12594517168870       -3.08510705420712        0.33673516975001
N           -0.79167691052008       -1.16922254226194       -0.06252404095248
C           -1.33931566383483       -2.38561417974160       -0.09143864635832
H            3.96786785138735        1.26118236781508        0.96872994430757
H            4.11596115381178        1.22841298757093       -0.79721024166813
H            2.86354521281815        2.23188822334638       -0.02854430297136
H            3.74335933747023       -1.51127666161455       -0.03685877328713
H           -1.58983212359120        3.08972095973514        0.58350682563896
H           -2.21879074906230        2.61615031835202       -1.00026210065592
H           -2.96574966792116        1.94630123931088        0.46446940980471
H           -2.41834897202506       -2.48511391024292       -0.03440313877771
H           -0.71130755771001       -3.25618701592063       -0.13549864886943
H           -5.03332396013839       -3.37513092494613        0.23389206745857
H            1.56912717136041       -2.82591578284692       -0.08585940589634

          :  Hamiltonian                  GFN2-xTB          :
         :: total energy             -42.032039852063 Eh    ::
         :: gradient norm              0.001336160666 Eh/a0 ::
         :: HOMO-LUMO gap              0.715867346690 eV    ::
         :: SCC energy               -42.544924110222 Eh    ::
         :: -> dispersion             -0.021377539508 Eh    ::
         :: repulsion energy           0.512842177940 Eh    ::

    * Orbital Energies and Occupations

         #    Occupation            Energy/Eh            Energy/eV
      -------------------------------------------------------------
         1        2.0000           -0.9222438             -25.0955
       ...           ...                  ...                  ...
        25        1.9999           -0.6566708             -17.8689
        26        1.9999           -0.6535853             -17.7850
        27        1.9998           -0.6400174             -17.4158
        28        1.9998           -0.6344017             -17.2629
        29        1.9996           -0.6254843             -17.0203
        30        1.9985           -0.6040136             -16.4360
        31        1.9980           -0.5989171             -16.2974
        32        1.9966           -0.5908440             -16.0777
        33        1.9950           -0.5846910             -15.9103
        34        1.9930           -0.5793447             -15.7648
        35        1.7673           -0.5218797             -14.2011
        36        1.6241           -0.5129502             -13.9581
        37        1.6186           -0.5126676             -13.9504 (HOMO)
        38        0.8924           -0.4863599             -13.2345 (LUMO)
        39        0.0966           -0.4425767             -12.0431
        40        0.0182           -0.4155211             -11.3069
        41        0.0025           -0.3840156             -10.4496
        42        0.0000           -0.2938275              -7.9955
        43                         -0.2084181              -5.6713
        44                         -0.1930571              -5.2534
        45                         -0.1410676              -3.8386
        46                         -0.1226468              -3.3374
        47                         -0.0652487              -1.7755
        48                         -0.0391618              -1.0656
       ...                                ...                  ...
        67                          0.5243894              14.2694
      -------------------------------------------------------------
                  HL-Gap            0.0263076 Eh            0.7159 eV

     #   Z          covCN         q      C6AA      α(0)
     1   6 C        3.691    -0.094    22.483     6.785
     2   7 N        2.832     0.078    19.890     6.624
     3   6 C        3.054     0.059    26.635     8.464
     4   7 N        2.791    -0.053    22.264     7.008
     5   6 C        3.059     0.088    25.995     8.361
     6   6 C        3.115    -0.003    27.932     8.657
     7   6 C        2.769     0.254    22.733     7.809
     8   8 O        0.857    -0.357    20.838     6.120
     9   7 N        2.746     0.023    20.844     6.781
    10   6 C        3.719    -0.076    22.076     6.711
    11   6 C        1.918    -0.064    32.835     9.254
    12   8 O        0.806    -0.514    24.129     6.585
    13   7 N        2.740     0.097    19.571     6.570
    14   6 C        2.814    -0.055    29.359     8.878
    15   1 H        0.924     0.109     1.705     2.042
    16   1 H        0.925     0.108     1.714     2.048
    17   1 H        0.925     0.137     1.486     1.906
    18   1 H        0.926     0.128     1.549     1.946
    19   1 H        0.925     0.110     1.694     2.035
    20   1 H        0.924     0.103     1.757     2.073
    21   1 H        0.925     0.110     1.700     2.039
    22   1 H        0.925     0.198     1.110     1.648
    23   1 H        0.926     0.089     1.890     2.150
    24   1 H        0.806     0.294     0.738     1.350
    25   1 H        0.860     0.232     0.955     1.531

Wiberg/Mayer (AO) data.
largest (>0.10) Wiberg bond orders for each atom

     #   Z sym  total        # sym  WBO       # sym  WBO       # sym  WBO
 ---------------------------------------------------------------------------
     1   6 C    3.913 --     2 N    0.985    17 H    0.961    16 H    0.960
                            15 H    0.957
     2   7 N    3.668 --     3 C    1.383     6 C    1.160     1 C    0.985
     3   6 C    3.856 --     2 N    1.383     4 N    1.303    18 H    0.951
     4   7 N    3.573 --     3 C    1.303     5 C    1.173    25 H    0.916
     5   6 C    3.879 --     6 C    1.364     4 N    1.173    13 N    1.120
     6   6 C    3.890 --     5 C    1.364     2 N    1.160     7 C    1.086
     7   6 C    3.884 --     8 O    1.682     6 C    1.086     9 N    1.022
     8   8 O    1.956 --     7 C    1.682     9 N    0.111
     9   7 N    3.654 --    11 C    1.468     7 C    1.022    10 C    0.974
                             8 O    0.111
    10   6 C    3.915 --     9 N    0.974    21 H    0.971    19 H    0.965
                            20 H    0.956
    11   6 C    2.787 --     9 N    1.468    13 N    1.123
    12   8 O    0.950 --    24 H    0.904
    13   7 N    3.700 --    14 C    1.334    11 C    1.123     5 C    1.120
    14   6 C    3.335 --    13 N    1.334    23 H    0.969    22 H    0.908
    15   1 H    0.984 --     1 C    0.957
    16   1 H    0.985 --     1 C    0.960
    17   1 H    0.981 --     1 C    0.961
    18   1 H    0.982 --     3 C    0.951
    19   1 H    0.985 --    10 C    0.965
    20   1 H    0.984 --    10 C    0.956
    21   1 H    0.986 --    10 C    0.971
    22   1 H    0.959 --    14 C    0.908
    23   1 H    0.991 --    14 C    0.969
    24   1 H    0.912 --    12 O    0.904
    25   1 H    0.945 --     4 N    0.916
 ---------------------------------------------------------------------------

molecular dipole:
                 x           y           z       tot (Debye)
 q only:        2.920      -0.919      -0.236
   full:        3.293      -1.511      -0.276       9.235

           -------------------------------------------------
          | TOTAL ENERGY              -42.032039852063 Eh   |
          | GRADIENT NORM               0.001336160666 Eh/α |
          | HOMO-LUMO GAP               0.715867346690 eV   |
           -------------------------------------------------

 * finished run on 2024/06/05 at 19:59:20.196
