   * xtb version 6.6.1 (8d0f1dd) compiled by 'conda@1efc2f54142f' on 2023-08-01
          program call               : xtb xtbopt.xyz --opt crude --input .xc2 --gfn2

   ID    Z sym.   atoms
    1    6 C      1, 3, 5-7, 10, 11, 14
    2    7 N      2, 4, 9, 13
    3    8 O      8, 12
    4    1 H      15-25
########################################################################
[WARNING] Please study the warnings concerning your input carefully
-1- readin_getIntValue: could not parse ''
########################################################################

          :  Hamiltonian                  GFN2-xTB          :
 * total energy  :   -40.3742643 Eh     change       -0.8455459E-12 Eh
 * total energy  :   -42.0883831 Eh     change       -0.1714119E+01 Eh
 * total energy  :   -42.1017385 Eh     change       -0.1335536E-01 Eh
 * total energy  :   -42.1042377 Eh     change       -0.2499245E-02 Eh
 * total energy  :   -42.1076118 Eh     change       -0.3374104E-02 Eh
 * total energy  :   -42.1084439 Eh     change       -0.8321331E-03 Eh
 * total energy  :   -42.1091391 Eh     change       -0.6951504E-03 Eh
 * total energy  :   -42.1095136 Eh     change       -0.3745078E-03 Eh
 * total energy  :   -42.1098237 Eh     change       -0.3100855E-03 Eh
 * total energy  :   -42.1100401 Eh     change       -0.2164174E-03 Eh
   *** GEOMETRY OPTIMIZATION CONVERGED AFTER 10 ITERATIONS ***

 final structure:
================
25
 xtb: 6.6.1 (8d0f1dd)
C            4.41780419456861        1.55042446883461        0.32391017562955
N            3.60149762119230        0.42339981937751        0.43656652549134
C            2.04161274489672       -1.19052620129467       -0.26623419910309
N            0.84421175712279       -1.66922955885599       -0.24733119961547
C           -0.31449032139508       -0.95378786123152       -0.12267417002195
C            2.76868571432531       -0.05047368635116       -0.41131802575616
C           -0.45272389019365        0.50247257294994       -0.19006184243963
O            0.40352436387278        1.34017469063443       -0.37554058397107
N           -1.80478146727366        0.72062338638550       -0.00349064919609
C           -2.43114825291218        2.02073226260051       -0.01289036609111
C           -2.49500629036875       -0.45782611168089        0.16592125155572
O           -3.66327346434808       -0.62775104480647        0.34683081382327
N           -1.53021687754269       -1.49577658776019        0.08577677739879
C           -1.88212200727344       -2.88079991510169        0.23293984862988
H            4.41698062656499        2.06613977719069        1.28835075519589
H            5.44775120784780        1.22071453319935        0.13836591827027
H            4.10619309793006        2.24601819288237       -0.46478387288180
H            2.68275999625497        0.39445007237388       -1.41346368139126
H           -1.64353725715164        2.77167245454698       -0.01853478994486
H           -3.05476150467144        2.13253440367218       -0.90123125763756
H           -3.05846304158153        2.13436675090104        0.87082926427864
H           -1.36287286386617       -3.32759859100370        1.08321026532419
H           -1.65744349944611       -3.44215855755968       -0.67621830408724
H           -2.95659296345237       -2.91868098274515        0.41409273842857
H            0.73684389100254       -2.69087574555733       -0.25184977399236

          :  Hamiltonian                  GFN2-xTB          :
         :: total energy             -42.110040111191 Eh    ::
         :: gradient norm              0.008852562837 Eh/a0 ::
         :: HOMO-LUMO gap              0.302740855043 eV    ::
         :: SCC energy               -42.645192972919 Eh    ::
         :: -> dispersion             -0.020339730939 Eh    ::
         :: repulsion energy           0.535123243187 Eh    ::

    * Orbital Energies and Occupations

         #    Occupation            Energy/Eh            Energy/eV
      -------------------------------------------------------------
         1        2.0000           -0.8930344             -24.3007
       ...           ...                  ...                  ...
        25        1.9999           -0.6685182             -18.1913
        26        1.9999           -0.6658928             -18.1199
        27        1.9995           -0.6405603             -17.4305
        28        1.9994           -0.6362081             -17.3121
        29        1.9988           -0.6255033             -17.0208
        30        1.9975           -0.6136087             -16.6971
        31        1.9973           -0.6126642             -16.6714
        32        1.9957           -0.6052215             -16.4689
        33        1.9885           -0.5894930             -16.0409
        34        1.9624           -0.5705507             -15.5255
        35        1.9500           -0.5659271             -15.3997
        36        1.7303           -0.5373560             -14.6222
        37        1.3448           -0.5193058             -14.1310 (HOMO)
        38        1.0082           -0.5081803             -13.8283 (LUMO)
        39        0.0276           -0.4403245             -11.9818
        40        0.0003           -0.3672803              -9.9942
        41        0.0001           -0.3480443              -9.4708
        42        0.0000           -0.3276101              -8.9147
        43                         -0.1885690              -5.1312
        44                         -0.1816532              -4.9430
        45                         -0.1183654              -3.2209
        46                         -0.0588017              -1.6001
        47                         -0.0521003              -1.4177
        48                         -0.0244057              -0.6641
       ...                                ...                  ...
        67                          0.5705994              15.5268
      -------------------------------------------------------------
                  HL-Gap            0.0111255 Eh            0.3027 eV

     #   Z          covCN         q      C6AA      α(0)
     1   6 C        3.695    -0.051    21.671     6.660
     2   7 N        1.832    -0.093    23.799     7.229
     3   6 C        1.927     0.014    30.722     8.951
     4   7 N        2.683     0.017    20.962     6.800
     5   6 C        2.960     0.058    26.690     8.474
     6   6 C        2.829     0.083    26.144     8.379
     7   6 C        2.842     0.258    22.668     7.803
     8   8 O        0.857    -0.367    21.034     6.149
     9   7 N        2.803    -0.078    22.759     7.085
    10   6 C        3.690    -0.058    21.805     6.683
    11   6 C        2.834     0.316    21.643     7.624
    12   8 O        0.857    -0.324    20.219     6.029
    13   7 N        2.786    -0.044    22.088     6.980
    14   6 C        3.688    -0.072    22.078     6.725
    15   1 H        0.924     0.120     1.610     1.984
    16   1 H        0.924     0.121     1.609     1.983
    17   1 H        0.924     0.093     1.851     2.128
    18   1 H        0.923     0.140     1.459     1.889
    19   1 H        0.925     0.108     1.710     2.045
    20   1 H        0.924     0.100     1.783     2.088
    21   1 H        0.925     0.103     1.753     2.071
    22   1 H        0.924     0.092     1.858     2.132
    23   1 H        0.924     0.092     1.860     2.133
    24   1 H        0.924     0.127     1.560     1.953
    25   1 H        0.859     0.243     0.912     1.496

Wiberg/Mayer (AO) data.
largest (>0.10) Wiberg bond orders for each atom

     #   Z sym  total        # sym  WBO       # sym  WBO       # sym  WBO
 ---------------------------------------------------------------------------
     1   6 C    3.889 --     2 N    1.091    17 H    0.930    15 H    0.925
                            16 H    0.908
     2   7 N    2.780 --     6 C    1.573     1 C    1.091
     3   6 C    3.137 --     4 N    1.480     6 C    1.425
     4   7 N    3.656 --     3 C    1.480     5 C    1.148    25 H    0.888
     5   6 C    3.648 --    13 N    1.249     4 N    1.148     7 C    1.047
     6   6 C    3.935 --     2 N    1.573     3 C    1.425    18 H    0.830
     7   6 C    3.917 --     8 O    1.650     9 N    1.118     5 C    1.047
     8   8 O    1.928 --     7 C    1.650     9 N    0.134
     9   7 N    3.534 --     7 C    1.118    11 C    1.116    10 C    0.978
                             8 O    0.134    12 O    0.121
    10   6 C    3.907 --     9 N    0.978    19 H    0.970    21 H    0.961
                            20 H    0.957
    11   6 C    3.923 --    12 O    1.720     9 N    1.116    13 N    1.005
    12   8 O    2.006 --    11 C    1.720     9 N    0.121
    13   7 N    3.459 --     5 C    1.249    11 C    1.005    14 C    0.990
    14   6 C    3.922 --    13 N    0.990    24 H    0.964    22 H    0.960
                            23 H    0.959
    15   1 H    0.947 --     1 C    0.925
    16   1 H    0.937 --     1 C    0.908
    17   1 H    0.938 --     1 C    0.930
    18   1 H    0.894 --     6 C    0.830
    19   1 H    0.985 --    10 C    0.970
    20   1 H    0.977 --    10 C    0.957
    21   1 H    0.979 --    10 C    0.961
    22   1 H    0.979 --    14 C    0.960
    23   1 H    0.978 --    14 C    0.959
    24   1 H    0.983 --    14 C    0.964
    25   1 H    0.924 --     4 N    0.888
 ---------------------------------------------------------------------------

molecular dipole:
                 x           y           z       tot (Debye)
 q only:        1.863      -1.282      -0.264
   full:        1.797      -1.399      -0.509       5.931

           -------------------------------------------------
          | TOTAL ENERGY              -42.110040111191 Eh   |
          | GRADIENT NORM               0.008852562837 Eh/α |
          | HOMO-LUMO GAP               0.302740855043 eV   |
           -------------------------------------------------

 * finished run on 2024/06/05 at 20:00:19.751
