   * xtb version 6.6.1 (8d0f1dd) compiled by 'conda@1efc2f54142f' on 2023-08-01
          program call               : xtb struc.xyz --opt loose --input .xc1 --gfn2

   ID    Z sym.   atoms
    1    6 C      1, 3, 5-7, 10, 11, 14
    2    7 N      2, 4, 9, 13
    3    8 O      8, 12
    4    1 H      15-25
constraining bond 6 11 to    6.0000000 Å, actual value:    2.7841340 Å

          :  Hamiltonian                  GFN2-xTB          :
 * total energy  :   -23.7796777 Eh     change       -0.6633627E-10 Eh
 * total energy  :   -29.4328136 Eh     change       -0.5653136E+01 Eh
 * total energy  :   -33.1985102 Eh     change       -0.3765697E+01 Eh
 * total energy  :   -36.2387524 Eh     change       -0.3040242E+01 Eh
 * total energy  :   -38.7190105 Eh     change       -0.2480258E+01 Eh
 * total energy  :   -40.3021577 Eh     change       -0.1583147E+01 Eh
 * total energy  :   -40.9998472 Eh     change       -0.6976896E+00 Eh
 * total energy  :   -41.4172657 Eh     change       -0.4174185E+00 Eh
 * total energy  :   -41.5495384 Eh     change       -0.1322727E+00 Eh
 * total energy  :   -41.6000535 Eh     change       -0.5051511E-01 Eh
 * total energy  :   -41.9553894 Eh     change       -0.1640321E-03 Eh
 * total energy  :   -41.9555873 Eh     change       -0.1979246E-03 Eh
 * total energy  :   -41.9555805 Eh     change        0.6742797E-05 Eh
 * total energy  :   -41.9556602 Eh     change       -0.7965324E-04 Eh
 * total energy  :   -41.9557207 Eh     change       -0.6052359E-04 Eh
 * total energy  :   -41.9557858 Eh     change       -0.6504723E-04 Eh
 * total energy  :   -41.9558758 Eh     change       -0.8998857E-04 Eh
 * total energy  :   -41.9559411 Eh     change       -0.6536258E-04 Eh
 * total energy  :   -41.9559825 Eh     change       -0.4140169E-04 Eh
   *** GEOMETRY OPTIMIZATION CONVERGED AFTER 75 ITERATIONS ***

 final structure:
================
25
 xtb: 6.6.1 (8d0f1dd)
C            3.85165539782717        0.69181021869564       -0.32893076542582
N            3.28821026719113       -0.61389518600100       -0.04146966865280
C            3.59864518831952       -1.82330238467472        0.32784500913703
N            2.58934373479294       -2.78844302550832        0.50134550587884
C            1.34547862148170       -2.61936213856304        0.27236418849664
C            2.44283096623405        0.28023354910746       -0.45533522366295
C           -1.45624979296788        1.69721018416092        0.10140947803395
O           -0.55263417865018        0.95967981488004        0.05373091171365
N           -2.48319958821166        2.26093023212880        0.22936778684719
C           -3.33121527422895        3.38171964194763        0.11936842034049
C           -3.52809550926800       -0.13084071569089       -0.01391566408179
O           -4.59789614502554        0.22246563310805        0.03806970563917
N            0.19307638827795       -2.37408305377796        0.36177436367999
C           -1.03321450997904       -2.29305408829859       -0.30309524580753
H            4.20987417740250        1.26146759700013        0.52430779701953
H            4.46753420314869        0.78408237711768       -1.21726747062170
H            1.42562036463862        0.54858515403485       -0.33533177348442
H            4.61287641396958       -2.13227868786724        0.47968987218425
H           -2.78277000663813        4.30668886516099        0.30126093673922
H           -3.77903004970765        3.41133968926670       -0.87586712294801
H           -4.12095280245122        3.27607472697102        0.86386196479536
H           -1.74948353366738       -2.91181097999815        0.23911447383213
H           -0.97575691230147       -2.60398779558725       -1.34764438919475
H           -1.37908238879816       -1.25692229754811       -0.23394697303982
H            2.90486648273547       -3.71606878880140        0.77046550052997

          :  Hamiltonian                  GFN2-xTB          :
         :: total energy             -41.955982518497 Eh    ::
         :: gradient norm              0.003079123180 Eh/a0 ::
         :: HOMO-LUMO gap              1.923721902530 eV    ::
         :: SCC energy               -42.615752692853 Eh    ::
         :: -> dispersion             -0.016932513584 Eh    ::
         :: repulsion energy           0.659767270137 Eh    ::

    * Orbital Energies and Occupations

         #    Occupation            Energy/Eh            Energy/eV
      -------------------------------------------------------------
         1        2.0000           -0.8816992             -23.9923
       ...           ...                  ...                  ...
        25        2.0000           -0.6530596             -17.7707
        26        2.0000           -0.6414599             -17.4550
        27        2.0000           -0.6161630             -16.7666
        28        2.0000           -0.6140283             -16.7086
        29        2.0000           -0.6092521             -16.5786
        30        2.0000           -0.6023119             -16.3897
        31        2.0000           -0.6018284             -16.3766
        32        2.0000           -0.5850885             -15.9211
        33        2.0000           -0.5766396             -15.6912
        34        2.0000           -0.5619958             -15.2927
        35        2.0000           -0.5300108             -14.4223
        36        2.0000           -0.5260498             -14.3145
        37        1.9745           -0.4723373             -12.8530 (HOMO)
        38        0.0203           -0.4016418             -10.9292 (LUMO)
        39        0.0048           -0.3901849             -10.6175
        40        0.0003           -0.3678653             -10.0101
        41        0.0002           -0.3637445              -9.8980
        42        0.0000           -0.3320195              -9.0347
        43                         -0.2944995              -8.0137
        44                         -0.2764490              -7.5226
        45                         -0.2342639              -6.3746
        46                         -0.1666240              -4.5341
        47                         -0.0986923              -2.6856
        48                         -0.0757850              -2.0622
       ...                                ...                  ...
        67                          1.2428701              33.8202
      -------------------------------------------------------------
                  HL-Gap            0.0706955 Eh            1.9237 eV

     #   Z          covCN         q      C6AA      α(0)
     1   6 C        3.736    -0.010    20.848     6.516
     2   7 N        2.733     0.083    19.796     6.608
     3   6 C        2.768    -0.026    28.625     8.762
     4   7 N        2.686    -0.030    21.820     6.938
     5   6 C        1.846     0.145    27.626     8.491
     6   6 C        2.819    -0.063    29.549     8.907
     7   6 C        1.769     0.304    24.363     7.980
     8   8 O        0.856    -0.327    20.283     6.038
     9   7 N        1.820    -0.157    25.178     7.435
    10   6 C        3.685    -0.027    21.268     6.602
    11   6 C        0.856     0.025    34.329     9.777
    12   8 O        0.856    -0.042    15.680     5.309
    13   7 N        1.821    -0.002    21.987     6.948
    14   6 C        3.688    -0.073    22.094     6.728
    15   1 H        0.925     0.066     2.134     2.284
    16   1 H        0.925     0.074     2.037     2.232
    17   1 H        0.927     0.122     1.595     1.975
    18   1 H        0.926     0.088     1.898     2.154
    19   1 H        0.924     0.077     2.007     2.216
    20   1 H        0.924     0.079     1.992     2.207
    21   1 H        0.924     0.088     1.900     2.156
    22   1 H        0.924     0.120     1.614     1.987
    23   1 H        0.924     0.095     1.831     2.116
    24   1 H        0.924     0.149     1.396     1.847
    25   1 H        0.860     0.240     0.925     1.506

Wiberg/Mayer (AO) data.
largest (>0.10) Wiberg bond orders for each atom

     #   Z sym  total        # sym  WBO       # sym  WBO       # sym  WBO
 ---------------------------------------------------------------------------
     1   6 C    3.878 --     6 C    0.980    16 H    0.970    15 H    0.969
                             2 N    0.901
     2   7 N    3.703 --     6 C    1.367     3 C    1.361     1 C    0.901
     3   6 C    3.815 --     2 N    1.361     4 N    1.020    18 H    0.955
                             6 C    0.344
     4   7 N    3.589 --     5 C    1.427     3 C    1.020    25 H    0.888
                            13 N    0.170
     5   6 C    3.935 --    13 N    2.206     4 N    1.427
     6   6 C    3.824 --     2 N    1.367     1 C    0.980    17 H    0.939
                             3 C    0.344
     7   6 C    3.951 --     9 N    2.055     8 O    1.802
     8   8 O    2.254 --     7 C    1.802     9 N    0.378
     9   7 N    3.482 --     7 C    2.055    10 C    1.012     8 O    0.378
    10   6 C    3.948 --     9 N    1.012    21 H    0.967    20 H    0.964
                            19 H    0.963
    11   6 C    2.653 --    12 O    2.599
    12   8 O    2.616 --    11 C    2.599
    13   7 N    3.550 --     5 C    2.206    14 C    1.030     4 N    0.170
    14   6 C    3.927 --    13 N    1.030    23 H    0.957    22 H    0.941
                            24 H    0.914
    15   1 H    0.994 --     1 C    0.969
    16   1 H    0.993 --     1 C    0.970
    17   1 H    0.985 --     6 C    0.939
    18   1 H    0.991 --     3 C    0.955
    19   1 H    0.994 --    10 C    0.963
    20   1 H    0.994 --    10 C    0.964
    21   1 H    0.992 --    10 C    0.967
    22   1 H    0.983 --    14 C    0.941
    23   1 H    0.990 --    14 C    0.957
    24   1 H    0.976 --    14 C    0.914
    25   1 H    0.941 --     4 N    0.888
 ---------------------------------------------------------------------------

molecular dipole:
                 x           y           z       tot (Debye)
 q only:        1.897      -2.224       0.120
   full:        1.765      -2.258       0.168       7.297

           -------------------------------------------------
          | TOTAL ENERGY              -41.955982518497 Eh   |
          | GRADIENT NORM               0.003079123180 Eh/α |
          | HOMO-LUMO GAP               1.923721902530 eV   |
           -------------------------------------------------

 * finished run on 2024/06/05 at 19:58:01.327
