   * xtb version 6.6.1 (8d0f1dd) compiled by 'conda@1efc2f54142f' on 2023-08-01
          program call               : xtb xtbopt.xyz --opt crude --input .xc2 --gfn2

   ID    Z sym.   atoms
    1    6 C      1, 3, 5-7, 10, 11, 14
    2    7 N      2, 4, 9, 13
    3    8 O      8, 12
    4    1 H      15-25

          :  Hamiltonian                  GFN2-xTB          :
 * total energy  :   -41.9559856 Eh     change        0.8526513E-13 Eh
 * total energy  :   -41.9562533 Eh     change       -0.2676684E-03 Eh
   *** GEOMETRY OPTIMIZATION CONVERGED AFTER 2 ITERATIONS ***

 final structure:
================
25
 xtb: 6.6.1 (8d0f1dd)
C            3.86298351828491        0.69110088462549       -0.32837278139654
N            3.29657389449775       -0.61363753827401       -0.04182210448349
C            3.60368274175256       -1.82345579863634        0.32881833250662
N            2.59345172296146       -2.78804509907874        0.50180084352266
C            1.34971204293874       -2.61837167345788        0.27170127917753
C            2.45522159435956        0.28154654163938       -0.45944854361324
C           -1.45597510390839        1.70075920660758        0.09904375320350
O           -0.55231913888411        0.96344929446850        0.05542389829938
N           -2.47988406412391        2.26723366441348        0.23407603576258
C           -3.32923056997454        3.38646307118702        0.12091481921165
C           -3.59025013608107       -0.15543046436416       -0.01554452088663
O           -4.64779380162344        0.23453560274022        0.04051725710639
N            0.19613399138411       -2.37838950234336        0.36154591160495
C           -1.03054005889649       -2.29802199124637       -0.30343281496395
H            4.21674559165046        1.26265562736589        0.52511949873568
H            4.47968516740396        0.78356872854668       -1.21577141990630
H            1.43775291612134        0.55170844976757       -0.34235349993453
H            4.61716326951816       -2.13375395047618        0.48133873700947
H           -2.78254078425235        4.31211986399876        0.30337800961220
H           -3.77394256525778        3.41460359811499       -0.87538888198247
H           -4.12054685372232        3.28091147144813        0.86317830318380
H           -1.74694091259253       -2.91436631053440        0.24022981754614
H           -0.97393838404558       -2.61140275655141       -1.34684582209658
H           -1.37454368471580       -1.26180755727737       -0.23717752285911
H            2.90977112132937       -3.71573482142024        0.77024303358810

          :  Hamiltonian                  GFN2-xTB          :
         :: total energy             -41.956253284124 Eh    ::
         :: gradient norm              0.004054485706 Eh/a0 ::
         :: HOMO-LUMO gap              1.921469399151 eV    ::
         :: SCC energy               -42.616583691042 Eh    ::
         :: -> dispersion             -0.016852549271 Eh    ::
         :: repulsion energy           0.660330431491 Eh    ::

    * Orbital Energies and Occupations

         #    Occupation            Energy/Eh            Energy/eV
      -------------------------------------------------------------
         1        2.0000           -0.8818665             -23.9968
       ...           ...                  ...                  ...
        25        2.0000           -0.6532413             -17.7756
        26        2.0000           -0.6407928             -17.4369
        27        2.0000           -0.6159099             -16.7598
        28        2.0000           -0.6135270             -16.6949
        29        2.0000           -0.6090330             -16.5726
        30        2.0000           -0.6025082             -16.3951
        31        2.0000           -0.6018356             -16.3768
        32        2.0000           -0.5852958             -15.9267
        33        2.0000           -0.5768201             -15.6961
        34        2.0000           -0.5627435             -15.3130
        35        2.0000           -0.5293642             -14.4047
        36        2.0000           -0.5252988             -14.2941
        37        1.9744           -0.4725190             -12.8579 (HOMO)
        38        0.0204           -0.4019063             -10.9364 (LUMO)
        39        0.0048           -0.3903344             -10.6215
        40        0.0003           -0.3684356             -10.0256
        41        0.0002           -0.3651582              -9.9365
        42        0.0000           -0.3321693              -9.0388
        43                         -0.2933079              -7.9813
        44                         -0.2752626              -7.4903
        45                         -0.2345531              -6.3825
        46                         -0.1668659              -4.5407
        47                         -0.0984269              -2.6783
        48                         -0.0747492              -2.0340
       ...                                ...                  ...
        67                          1.2463675              33.9154
      -------------------------------------------------------------
                  HL-Gap            0.0706127 Eh            1.9215 eV

     #   Z          covCN         q      C6AA      α(0)
     1   6 C        3.736    -0.010    20.846     6.516
     2   7 N        2.733     0.084    19.792     6.607
     3   6 C        2.768    -0.026    28.627     8.763
     4   7 N        2.686    -0.029    21.819     6.938
     5   6 C        1.846     0.145    27.620     8.490
     6   6 C        2.819    -0.062    29.536     8.905
     7   6 C        1.769     0.304    24.374     7.982
     8   8 O        0.856    -0.329    20.319     6.043
     9   7 N        1.820    -0.158    25.208     7.439
    10   6 C        3.685    -0.027    21.264     6.602
    11   6 C        0.856     0.026    34.293     9.772
    12   8 O        0.856    -0.040    15.654     5.305
    13   7 N        1.821    -0.002    21.989     6.948
    14   6 C        3.688    -0.072    22.083     6.726
    15   1 H        0.925     0.066     2.131     2.283
    16   1 H        0.925     0.075     2.035     2.231
    17   1 H        0.927     0.122     1.600     1.978
    18   1 H        0.926     0.088     1.899     2.155
    19   1 H        0.924     0.077     2.011     2.218
    20   1 H        0.924     0.078     1.998     2.210
    21   1 H        0.925     0.088     1.902     2.157
    22   1 H        0.924     0.121     1.608     1.983
    23   1 H        0.924     0.095     1.828     2.114
    24   1 H        0.924     0.149     1.400     1.850
    25   1 H        0.860     0.240     0.924     1.506

Wiberg/Mayer (AO) data.
largest (>0.10) Wiberg bond orders for each atom

     #   Z sym  total        # sym  WBO       # sym  WBO       # sym  WBO
 ---------------------------------------------------------------------------
     1   6 C    3.878 --     6 C    0.981    16 H    0.970    15 H    0.969
                             2 N    0.901
     2   7 N    3.703 --     6 C    1.368     3 C    1.361     1 C    0.901
     3   6 C    3.815 --     2 N    1.361     4 N    1.020    18 H    0.955
                             6 C    0.344
     4   7 N    3.589 --     5 C    1.427     3 C    1.020    25 H    0.888
                            13 N    0.170
     5   6 C    3.935 --    13 N    2.207     4 N    1.427
     6   6 C    3.825 --     2 N    1.368     1 C    0.981    17 H    0.940
                             3 C    0.344
     7   6 C    3.951 --     9 N    2.060     8 O    1.800
     8   8 O    2.252 --     7 C    1.800     9 N    0.379
     9   7 N    3.481 --     7 C    2.060    10 C    1.012     8 O    0.379
    10   6 C    3.949 --     9 N    1.012    21 H    0.968    20 H    0.964
                            19 H    0.964
    11   6 C    2.648 --    12 O    2.604
    12   8 O    2.618 --    11 C    2.604
    13   7 N    3.550 --     5 C    2.207    14 C    1.029     4 N    0.170
    14   6 C    3.927 --    13 N    1.029    23 H    0.957    22 H    0.941
                            24 H    0.916
    15   1 H    0.994 --     1 C    0.969
    16   1 H    0.993 --     1 C    0.970
    17   1 H    0.985 --     6 C    0.940
    18   1 H    0.991 --     3 C    0.955
    19   1 H    0.994 --    10 C    0.964
    20   1 H    0.994 --    10 C    0.964
    21   1 H    0.992 --    10 C    0.968
    22   1 H    0.983 --    14 C    0.941
    23   1 H    0.990 --    14 C    0.957
    24   1 H    0.976 --    14 C    0.916
    25   1 H    0.941 --     4 N    0.888
 ---------------------------------------------------------------------------

molecular dipole:
                 x           y           z       tot (Debye)
 q only:        1.905      -2.254       0.114
   full:        1.772      -2.278       0.158       7.345

           -------------------------------------------------
          | TOTAL ENERGY              -41.956253284124 Eh   |
          | GRADIENT NORM               0.004054485706 Eh/α |
          | HOMO-LUMO GAP               1.921469399151 eV   |
           -------------------------------------------------

 * finished run on 2024/06/05 at 19:58:01.481
