   * xtb version 6.6.1 (8d0f1dd) compiled by 'conda@1efc2f54142f' on 2023-08-01
          program call               : xtb xtbopt.xyz --opt crude --input .xc2 --gfn2

   ID    Z sym.   atoms
    1    6 C      1, 3, 5-7, 10, 11, 14
    2    7 N      2, 4, 9, 13
    3    8 O      8, 12
    4    1 H      15-25

          :  Hamiltonian                  GFN2-xTB          :
 * total energy  :   -42.1327149 Eh     change       -0.4440892E-11 Eh
   *** GEOMETRY OPTIMIZATION CONVERGED AFTER 1 ITERATIONS ***

 final structure:
================
25
 xtb: 6.6.1 (8d0f1dd)
C            3.40456604016661        1.82077889670253        0.01371282888051
N            2.56248193094209        0.65313400468056        0.01797552343108
C            2.95932801999039       -0.61254498403272        0.02674438466157
N            1.89668858263986       -1.43518740378891        0.02646255621896
C            0.75912557350615       -0.66772665499341        0.01683452084769
C            1.19603223876139        0.66477560385885        0.01174131427092
C            0.22664862918051        1.73983747282749        0.00207681029493
O            0.49526186926208        2.92519084631896        0.00079386722133
N           -1.06726580495167        1.25162459385764       -0.00560874872942
C           -2.15238687200960        2.21079683796562       -0.02013823055072
C           -1.45644014085987       -0.11601934333974       -0.00115740349408
O           -2.63264955500528       -0.38860288740970       -0.01014013922485
N           -0.48467271344739       -1.06780686761536        0.01201707110952
C           -3.00215926203386       -4.87071603712201       -0.02278603302018
H            4.04049652901063        1.83212088965775        0.89906518269366
H            4.03752428255455        1.82748752446554       -0.87388857002975
H            2.77024685063764        2.70714184757989        0.01219403430445
H            3.98288531375739       -0.93574365371424        0.03250826209958
H           -1.72523055097114        3.21206800287682       -0.02956633834182
H           -2.77428257444738        2.05331894268893       -0.90282841811020
H           -2.78107051292223        2.07380851237736        0.86120973490006
H           -2.99927610596191       -5.42796492419658        0.89319673368730
H           -2.96757593326742       -5.38819105280498       -0.96165525166467
H           -3.04328087675250       -3.79818813745031       -0.00076402120503
H            1.91543655633046       -2.44515348778661        0.03317194765642

          :  Hamiltonian                  GFN2-xTB          :
         :: total energy             -42.132714918377 Eh    ::
         :: gradient norm              0.002057761596 Eh/a0 ::
         :: HOMO-LUMO gap              1.069736214080 eV    ::
         :: SCC energy               -42.660855157691 Eh    ::
         :: -> dispersion             -0.020065435950 Eh    ::
         :: repulsion energy           0.528118976746 Eh    ::

    * Orbital Energies and Occupations

         #    Occupation            Energy/Eh            Energy/eV
      -------------------------------------------------------------
         1        2.0000           -0.9019853             -24.5443
       ...           ...                  ...                  ...
        25        1.9998           -0.6500530             -17.6888
        26        1.9993           -0.6327899             -17.2191
        27        1.9993           -0.6324286             -17.2093
        28        1.9983           -0.6195636             -16.8592
        29        1.9982           -0.6182704             -16.8240
        30        1.9979           -0.6161754             -16.7670
        31        1.9969           -0.6094081             -16.5828
        32        1.9933           -0.5974601             -16.2577
        33        1.9626           -0.5699209             -15.5083
        34        1.9031           -0.5543708             -15.0852
        35        1.8870           -0.5517972             -15.0152
        36        1.8315           -0.5449932             -14.8300
        37        1.7277           -0.5364698             -14.5981 (HOMO)
        38        0.6926           -0.4971578             -13.5284 (LUMO)
        39        0.0118           -0.4260912             -11.5945
        40        0.0009           -0.3852150             -10.4822
        41        0.0001           -0.3524148              -9.5897
        42        0.0000           -0.2660276              -7.2390
        43                         -0.1836862              -4.9984
        44                         -0.1639809              -4.4621
        45                         -0.1215225              -3.3068
        46                         -0.0728927              -1.9835
        47                         -0.0259564              -0.7063
        48                         -0.0218781              -0.5953
       ...                                ...                  ...
        67                          0.5456878              14.8489
      -------------------------------------------------------------
                  HL-Gap            0.0393121 Eh            1.0697 eV

     #   Z          covCN         q      C6AA      α(0)
     1   6 C        3.692    -0.093    22.461     6.782
     2   7 N        2.827     0.087    19.729     6.597
     3   6 C        3.063     0.064    26.509     8.443
     4   7 N        2.794    -0.055    22.311     7.015
     5   6 C        3.065     0.149    24.717     8.152
     6   6 C        3.131    -0.021    28.314     8.711
     7   6 C        2.767     0.277    22.323     7.738
     8   8 O        0.858    -0.365    20.990     6.143
     9   7 N        2.747    -0.083    22.861     7.101
    10   6 C        3.704    -0.056    21.733     6.665
    11   6 C        2.754     0.338    21.253     7.549
    12   8 O        0.860    -0.333    20.388     6.054
    13   7 N        1.832    -0.256    27.522     7.774
    14   6 C        2.779    -0.077    29.898     8.956
    15   1 H        0.925     0.107     1.719     2.051
    16   1 H        0.925     0.107     1.719     2.050
    17   1 H        0.925     0.136     1.490     1.909
    18   1 H        0.926     0.125     1.574     1.962
    19   1 H        0.925     0.114     1.667     2.019
    20   1 H        0.924     0.106     1.727     2.055
    21   1 H        0.924     0.106     1.728     2.056
    22   1 H        0.926     0.127     1.558     1.952
    23   1 H        0.926     0.127     1.559     1.953
    24   1 H        0.926     0.134     1.507     1.920
    25   1 H        0.860     0.235     0.944     1.522

Wiberg/Mayer (AO) data.
largest (>0.10) Wiberg bond orders for each atom

     #   Z sym  total        # sym  WBO       # sym  WBO       # sym  WBO
 ---------------------------------------------------------------------------
     1   6 C    3.911 --     2 N    0.983    17 H    0.961    15 H    0.959
                            16 H    0.959
     2   7 N    3.711 --     3 C    1.394     6 C    1.183     1 C    0.983
     3   6 C    3.875 --     2 N    1.394     4 N    1.314    18 H    0.951
     4   7 N    3.592 --     3 C    1.314     5 C    1.151    25 H    0.917
     5   6 C    3.948 --    13 N    1.384     6 C    1.257     4 N    1.151
     6   6 C    3.804 --     5 C    1.257     2 N    1.183     7 C    1.075
     7   6 C    3.953 --     8 O    1.639     9 N    1.143     6 C    1.075
     8   8 O    1.941 --     7 C    1.639     9 N    0.139
     9   7 N    3.467 --     7 C    1.143    11 C    1.028    10 C    0.988
                             8 O    0.139
    10   6 C    3.884 --     9 N    0.988    19 H    0.960    20 H    0.947
                            21 H    0.947
    11   6 C    3.943 --    12 O    1.663    13 N    1.169     9 N    1.028
    12   8 O    1.920 --    11 C    1.663
    13   7 N    2.825 --     5 C    1.384    11 C    1.169
    14   6 C    2.942 --    23 H    0.981    22 H    0.981    24 H    0.979
    15   1 H    0.986 --     1 C    0.959
    16   1 H    0.986 --     1 C    0.959
    17   1 H    0.980 --     1 C    0.961
    18   1 H    0.983 --     3 C    0.951
    19   1 H    0.978 --    10 C    0.960
    20   1 H    0.965 --    10 C    0.947
    21   1 H    0.965 --    10 C    0.947
    22   1 H    0.983 --    14 C    0.981
    23   1 H    0.983 --    14 C    0.981
    24   1 H    0.981 --    14 C    0.979
    25   1 H    0.944 --     4 N    0.917
 ---------------------------------------------------------------------------

molecular dipole:
                 x           y           z       tot (Debye)
 q only:        2.175      -2.394       0.011
   full:        2.582      -2.547       0.015       9.219

           -------------------------------------------------
          | TOTAL ENERGY              -42.132714918377 Eh   |
          | GRADIENT NORM               0.002057761596 Eh/α |
          | HOMO-LUMO GAP               1.069736214080 eV   |
           -------------------------------------------------

 * finished run on 2024/06/05 at 19:59:19.765
