   * xtb version 6.6.1 (8d0f1dd) compiled by 'conda@1efc2f54142f' on 2023-08-01
          program call               : xtb xtbopt.xyz --opt crude --input .xc2 --gfn2

   ID    Z sym.   atoms
    1    6 C      1, 3, 5-7, 10, 11, 14
    2    7 N      2, 4, 9, 13
    3    8 O      8, 12
    4    1 H      15-25
########################################################################
[WARNING] Please study the warnings concerning your input carefully
-1- readin_getIntValue: could not parse ''
########################################################################

          :  Hamiltonian                  GFN2-xTB          :
 * total energy  :   -40.4371630 Eh     change       -0.1911360E-11 Eh
 * total energy  :   -42.1512048 Eh     change       -0.1714042E+01 Eh
 * total energy  :   -42.1685023 Eh     change       -0.1729750E-01 Eh
 * total energy  :   -42.1725721 Eh     change       -0.4069714E-02 Eh
 * total energy  :   -42.1733135 Eh     change       -0.7413900E-03 Eh
 * total energy  :   -42.1739090 Eh     change       -0.5955582E-03 Eh
 * total energy  :   -42.1745231 Eh     change       -0.6141140E-03 Eh
 * total energy  :   -42.1750594 Eh     change       -0.5362566E-03 Eh
 * total energy  :   -42.1753388 Eh     change       -0.2794482E-03 Eh
   *** GEOMETRY OPTIMIZATION CONVERGED AFTER 9 ITERATIONS ***

 final structure:
================
25
 xtb: 6.6.1 (8d0f1dd)
C            3.27376554111082        1.13886912227318        0.02966252274140
N            2.41692764506877        0.14515244425032        0.01095869274978
C            2.57210773202006       -1.09797068190097       -0.49477901428043
N            1.41025865422866       -1.80660655308316       -0.37680161229898
C            0.47312389033590       -1.07519185237616        0.23895497613620
C            1.06946598436545        0.24279609739618        0.55769723408622
C            0.18097240378135        1.34364569986824       -0.10600186914688
O            0.65060656900822        2.31810271511448       -0.62015958739395
N           -1.14825171336095        1.06335472222451        0.01807543341016
C           -2.10294605038093        2.13269653461105       -0.27121836441374
C           -1.72493898288919       -0.16792984741208        0.34112960025636
O           -2.89698615986600       -0.29933336946203        0.55024796955697
N           -0.85587566176877       -1.27479430168932        0.30934967929936
C           -1.43620694910774       -2.60391671468500        0.22643113734098
H            1.08339781947352        0.50527101713219        1.62396820118301
H            4.24110120997741        1.00824018019537       -0.41821975685818
H            2.98925476651967        2.08206895137777        0.45132042169242
H            3.46988473882767       -1.47511302799898       -0.93473077048390
H           -1.56531342028287        3.07610743449760       -0.30480598801674
H           -2.59261759759880        1.95457705124259       -1.22774301957509
H           -2.85803904607022        2.14901132180659        0.51310550696500
H           -0.91617200938887       -3.28097379843116        0.90185834891987
H           -1.39182646351855       -2.98416408754891       -0.79566783097961
H           -2.48060681954960       -2.52442496016970        0.52533807846251
H            1.29934543316493       -2.75123555563233       -0.71679837145097

          :  Hamiltonian                  GFN2-xTB          :
         :: total energy             -42.175338830815 Eh    ::
         :: gradient norm              0.007766797272 Eh/a0 ::
         :: HOMO-LUMO gap              1.591821095049 eV    ::
         :: SCC energy               -42.691759798015 Eh    ::
         :: -> dispersion             -0.023053959034 Eh    ::
         :: repulsion energy           0.516256221669 Eh    ::

    * Orbital Energies and Occupations

         #    Occupation            Energy/Eh            Energy/eV
      -------------------------------------------------------------
         1        2.0000           -0.9066468             -24.6711
       ...           ...                  ...                  ...
        25        2.0000           -0.6771944             -18.4274
        26        2.0000           -0.6728183             -18.3083
        27        2.0000           -0.6644700             -18.0811
        28        2.0000           -0.6605065             -17.9733
        29        1.9999           -0.6369554             -17.3324
        30        1.9999           -0.6328870             -17.2217
        31        1.9998           -0.6283084             -17.0971
        32        1.9993           -0.6076526             -16.5351
        33        1.9991           -0.6040322             -16.4366
        34        1.9974           -0.5870392             -15.9742
        35        1.9953           -0.5775967             -15.7172
        36        1.9921           -0.5694330             -15.4951
        37        1.7250           -0.5110243             -13.9057 (HOMO)
        38        0.2699           -0.4525260             -12.3139 (LUMO)
        39        0.0178           -0.4073280             -11.0840
        40        0.0045           -0.3853162             -10.4850
        41        0.0003           -0.3422342              -9.3127
        42                         -0.2119661              -5.7679
        43                         -0.1911634              -5.2018
        44                         -0.1581067              -4.3023
        45                         -0.1487311              -4.0472
        46                         -0.1069764              -2.9110
        47                         -0.0781098              -2.1255
        48                         -0.0602415              -1.6393
       ...                                ...                  ...
        67                          0.5340565              14.5324
      -------------------------------------------------------------
                  HL-Gap            0.0584983 Eh            1.5918 eV

     #   Z          covCN         q      C6AA      α(0)
     1   6 C        2.789    -0.071    29.756     8.935
     2   7 N        2.780     0.107    19.401     6.542
     3   6 C        2.951    -0.002    28.073     8.690
     4   7 N        2.743    -0.047    22.157     6.991
     5   6 C        2.974     0.090    26.005     8.365
     6   6 C        3.901    -0.009    20.677     6.464
     7   6 C        2.762     0.271    22.419     7.754
     8   8 O        0.857    -0.327    20.273     6.037
     9   7 N        2.736    -0.088    22.962     7.117
    10   6 C        3.708    -0.062    21.840     6.680
    11   6 C        2.723     0.314    21.666     7.620
    12   8 O        0.859    -0.341    20.529     6.075
    13   7 N        2.735    -0.059    22.381     7.026
    14   6 C        3.697    -0.073    22.062     6.718
    15   1 H        0.923     0.121     1.603     1.980
    16   1 H        0.926     0.109     1.706     2.042
    17   1 H        0.926     0.119     1.619     1.990
    18   1 H        0.927     0.115     1.655     2.012
    19   1 H        0.925     0.105     1.736     2.061
    20   1 H        0.925     0.095     1.836     2.119
    21   1 H        0.925     0.108     1.717     2.049
    22   1 H        0.925     0.086     1.914     2.163
    23   1 H        0.924     0.084     1.942     2.179
    24   1 H        0.925     0.127     1.557     1.951
    25   1 H        0.860     0.228     0.975     1.547

Wiberg/Mayer (AO) data.
largest (>0.10) Wiberg bond orders for each atom

     #   Z sym  total        # sym  WBO       # sym  WBO       # sym  WBO
 ---------------------------------------------------------------------------
     1   6 C    3.659 --     2 N    1.427    17 H    0.964    16 H    0.964
                             3 C    0.166
     2   7 N    3.715 --     1 C    1.427     3 C    1.236     6 C    0.977
     3   6 C    3.703 --     2 N    1.236     4 N    1.187    18 H    0.956
                             1 C    0.166     5 C    0.100
     4   7 N    3.558 --     5 C    1.281     3 C    1.187    25 H    0.918
     5   6 C    3.763 --     4 N    1.281    13 N    1.219     6 C    1.017
                             3 C    0.100
     6   6 C    3.964 --     5 C    1.017     2 N    0.977    15 H    0.913
                             7 C    0.867
     7   6 C    3.920 --     8 O    1.765     9 N    1.185     6 C    0.867
     8   8 O    2.108 --     7 C    1.765     9 N    0.158
     9   7 N    3.552 --     7 C    1.185    11 C    1.071    10 C    0.955
                             8 O    0.158    12 O    0.113
    10   6 C    3.913 --    19 H    0.973    20 H    0.969    21 H    0.967
                             9 N    0.955
    11   6 C    3.919 --    12 O    1.720     9 N    1.071    13 N    1.040
    12   8 O    2.041 --    11 C    1.720     9 N    0.113    13 N    0.113
    13   7 N    3.513 --     5 C    1.219    11 C    1.040    14 C    0.968
                            12 O    0.113
    14   6 C    3.921 --    22 H    0.974    13 N    0.968    23 H    0.968
                            24 H    0.964
    15   1 H    0.965 --     6 C    0.913
    16   1 H    0.987 --     1 C    0.964
    17   1 H    0.986 --     1 C    0.964
    18   1 H    0.986 --     3 C    0.956
    19   1 H    0.988 --    10 C    0.973
    20   1 H    0.988 --    10 C    0.969
    21   1 H    0.986 --    10 C    0.967
    22   1 H    0.989 --    14 C    0.974
    23   1 H    0.988 --    14 C    0.968
    24   1 H    0.983 --    14 C    0.964
    25   1 H    0.948 --     4 N    0.918
 ---------------------------------------------------------------------------

molecular dipole:
                 x           y           z       tot (Debye)
 q only:        2.024      -1.649       0.054
   full:        2.286      -1.978       0.061       7.686

           -------------------------------------------------
          | TOTAL ENERGY              -42.175338830815 Eh   |
          | GRADIENT NORM               0.007766797272 Eh/α |
          | HOMO-LUMO GAP               1.591821095049 eV   |
           -------------------------------------------------

 * finished run on 2024/06/05 at 19:58:32.511
