   * xtb version 6.6.1 (8d0f1dd) compiled by 'conda@1efc2f54142f' on 2023-08-01
          program call               : xtb xtbopt.xyz --opt crude --input .xc2 --gfn2

   ID    Z sym.   atoms
    1    6 C      1, 3, 5-7, 10, 11, 14
    2    7 N      2, 4, 9, 13
    3    8 O      8, 12
    4    1 H      15-25
########################################################################
[WARNING] Please study the warnings concerning your input carefully
-1- readin_getIntValue: could not parse ''
########################################################################

          :  Hamiltonian                  GFN2-xTB          :
 * total energy  :   -42.1659037 Eh     change       -0.7105427E-14 Eh
   *** GEOMETRY OPTIMIZATION CONVERGED AFTER 1 ITERATIONS ***

 final structure:
================
25
 xtb: 6.6.1 (8d0f1dd)
C            3.47815500944369        1.33095938867253        0.03395838930996
N            3.00237877970718       -0.01723683140336        0.06259917969036
C            3.57350778325162       -1.23616060657282        0.08134810134422
N            2.38441335800115       -1.88660884818055        0.07928780611857
C            1.74146770713246       -0.64010468212590        0.06265268723385
C            0.44342601985865       -0.25530552160019        0.03004067630884
C           -0.11072359383780        1.13280673984628        0.00773309163585
O            0.45647521769124        2.19562218333660        0.00703727516879
N           -1.47921276098675        0.91876974004458       -0.02042654934272
C           -2.49024384771769        1.94398048683292       -0.04003786928680
C           -1.68966287452362       -0.43259232958791       -0.02042025481853
O           -2.88947461981151       -0.91869550346213       -0.05746490397314
N           -0.58427332170564       -1.14156312114316        0.01112497570236
C           -2.95828534391557       -2.34252755280844       -0.08415509693386
H            4.00389550086934        1.56917401021381        0.96084593714685
H            4.16413524882401        1.47035027382283       -0.80324793722306
H            2.62796008932398        2.00340702610889       -0.07480659270768
H            4.59045026614048       -1.56980113285893        0.09072451617204
H           -1.98539240070703        2.90673358635697       -0.10396909459341
H           -3.14416673877478        1.80814373893319       -0.90142501316139
H           -3.08840700560309        1.90133274249303        0.87095507689623
H           -2.46970406047564       -2.76482030263791        0.79462127817393
H           -2.47220301383050       -2.72736499819935       -0.98252866555133
H           -4.01613582793540       -2.59035563639643       -0.09127304978484
H            2.07205194367960       -2.83990430808664        0.11799765437528

          :  Hamiltonian                  GFN2-xTB          :
         :: total energy             -42.165903717891 Eh    ::
         :: gradient norm              0.006267588124 Eh/a0 ::
         :: HOMO-LUMO gap              2.031687444446 eV    ::
         :: SCC energy               -42.677263492528 Eh    ::
         :: -> dispersion             -0.020279461607 Eh    ::
         :: repulsion energy           0.511345835858 Eh    ::

    * Orbital Energies and Occupations

         #    Occupation            Energy/Eh            Energy/eV
      -------------------------------------------------------------
         1        2.0000           -0.8982190             -24.4418
       ...           ...                  ...                  ...
        25        1.9999           -0.6525547             -17.7569
        26        1.9999           -0.6521808             -17.7467
        27        1.9999           -0.6500335             -17.6883
        28        1.9997           -0.6384607             -17.3734
        29        1.9987           -0.6158632             -16.7585
        30        1.9985           -0.6139852             -16.7074
        31        1.9978           -0.6076972             -16.5363
        32        1.9976           -0.6058585             -16.4862
        33        1.9917           -0.5864911             -15.9592
        34        1.9784           -0.5711381             -15.5415
        35        1.9710           -0.5664593             -15.4141
        36        1.9021           -0.5466174             -14.8742
        37        1.8921           -0.5449892             -14.8299 (HOMO)
        38        0.2715           -0.4703260             -12.7982 (LUMO)
        39        0.0013           -0.3838986             -10.4464
        40        0.0001           -0.3403721              -9.2620
        41        0.0000           -0.2880653              -7.8387
        42                         -0.2098029              -5.7090
        43                         -0.1846801              -5.0254
        44                         -0.1537045              -4.1825
        45                         -0.1150199              -3.1299
        46                         -0.0894652              -2.4345
        47                         -0.0525437              -1.4298
        48                         -0.0199430              -0.5427
       ...                                ...                  ...
        67                          0.6332749              17.2323
      -------------------------------------------------------------
                  HL-Gap            0.0746631 Eh            2.0317 eV

     #   Z          covCN         q      C6AA      α(0)
     1   6 C        3.683    -0.087    22.376     6.773
     2   7 N        3.057     0.022    20.863     6.784
     3   6 C        3.387     0.084    22.780     7.415
     4   7 N        3.010    -0.084    22.871     7.103
     5   6 C        3.448     0.109    21.107     6.955
     6   6 C        3.135     0.054    26.567     8.437
     7   6 C        2.881     0.264    22.553     7.786
     8   8 O        0.856    -0.339    20.497     6.070
     9   7 N        2.795    -0.069    22.574     7.057
    10   6 C        3.688    -0.059    21.834     6.688
    11   6 C        3.075     0.307    21.738     7.644
    12   8 O        1.705    -0.177    16.981     5.564
    13   7 N        1.871    -0.293    28.458     7.908
    14   6 C        3.681     0.006    20.690     6.515
    15   1 H        0.924     0.101     1.775     2.083
    16   1 H        0.924     0.100     1.783     2.088
    17   1 H        0.925     0.126     1.564     1.956
    18   1 H        0.927     0.121     1.604     1.981
    19   1 H        0.925     0.110     1.699     2.038
    20   1 H        0.925     0.094     1.838     2.120
    21   1 H        0.924     0.094     1.842     2.122
    22   1 H        0.924     0.092     1.857     2.131
    23   1 H        0.924     0.092     1.864     2.135
    24   1 H        0.925     0.111     1.688     2.031
    25   1 H        0.860     0.220     1.010     1.574

Wiberg/Mayer (AO) data.
largest (>0.10) Wiberg bond orders for each atom

     #   Z sym  total        # sym  WBO       # sym  WBO       # sym  WBO
 ---------------------------------------------------------------------------
     1   6 C    3.918 --     2 N    0.997    16 H    0.959    17 H    0.956
                            15 H    0.955
     2   7 N    3.593 --     3 C    1.311     5 C    1.063     1 C    0.997
                             4 N    0.166
     3   6 C    3.750 --     2 N    1.311     4 N    1.270    18 H    0.954
     4   7 N    3.509 --     3 C    1.270     5 C    1.074    25 H    0.925
                             2 N    0.166
     5   6 C    3.835 --     6 C    1.472     4 N    1.074     2 N    1.063
     6   6 C    3.880 --     5 C    1.472    13 N    1.228     7 C    0.967
     7   6 C    3.894 --     8 O    1.711     9 N    1.116     6 C    0.967
     8   8 O    1.999 --     7 C    1.711     9 N    0.127
     9   7 N    3.542 --    11 C    1.150     7 C    1.116    10 C    0.981
                             8 O    0.127
    10   6 C    3.919 --     9 N    0.981    19 H    0.970    20 H    0.964
                            21 H    0.962
    11   6 C    3.879 --    13 N    1.380    12 O    1.223     9 N    1.150
    12   8 O    2.352 --    11 C    1.223    14 C    0.930
    13   7 N    2.906 --    11 C    1.380     6 C    1.228
    14   6 C    3.875 --    24 H    0.974    22 H    0.969    23 H    0.969
                            12 O    0.930
    15   1 H    0.982 --     1 C    0.955
    16   1 H    0.984 --     1 C    0.959
    17   1 H    0.983 --     1 C    0.956
    18   1 H    0.985 --     3 C    0.954
    19   1 H    0.985 --    10 C    0.970
    20   1 H    0.983 --    10 C    0.964
    21   1 H    0.983 --    10 C    0.962
    22   1 H    0.985 --    14 C    0.969
    23   1 H    0.985 --    14 C    0.969
    24   1 H    0.986 --    14 C    0.974
    25   1 H    0.952 --     4 N    0.925
 ---------------------------------------------------------------------------

molecular dipole:
                 x           y           z       tot (Debye)
 q only:        1.419      -1.505       0.025
   full:        1.410      -1.598       0.043       5.419

           -------------------------------------------------
          | TOTAL ENERGY              -42.165903717891 Eh   |
          | GRADIENT NORM               0.006267588124 Eh/α |
          | HOMO-LUMO GAP               2.031687444446 eV   |
           -------------------------------------------------

 * finished run on 2024/06/05 at 20:00:12.244
