   * xtb version 6.6.1 (8d0f1dd) compiled by 'conda@1efc2f54142f' on 2023-08-01
          program call               : xtb struc.xyz --opt loose --input .xc1 --gfn2

   ID    Z sym.   atoms
    1    7 N      1, 17
    2    6 C      2-6, 8, 9, 11-16, 18-23, 25, 26, 28-33
    3    8 O      7, 10, 24, 27
    4    1 H      34-72
constraining bond 4 14 to    5.0000000 Å, actual value:    2.5096760 Å

          :  Hamiltonian                  GFN2-xTB          :
 * total energy  :   -98.2967950 Eh     change       -0.4035485E-08 Eh
 * total energy  :   -98.5989451 Eh     change       -0.3021500E+00 Eh
 * total energy  :   -98.7805571 Eh     change       -0.1816120E+00 Eh
 * total energy  :   -98.8997186 Eh     change       -0.1191615E+00 Eh
 * total energy  :   -98.9825089 Eh     change       -0.8279037E-01 Eh
 * total energy  :   -99.0390798 Eh     change       -0.5657091E-01 Eh
 * total energy  :   -99.0733449 Eh     change       -0.3426511E-01 Eh
 * total energy  :   -99.0979369 Eh     change       -0.2459195E-01 Eh
 * total energy  :   -99.1235271 Eh     change       -0.2559016E-01 Eh
 * total energy  :   -99.1507342 Eh     change       -0.2720716E-01 Eh
 * total energy  :   -99.3150489 Eh     change       -0.2192221E-03 Eh
 * total energy  :   -99.3152402 Eh     change       -0.1913079E-03 Eh
 * total energy  :   -99.3153771 Eh     change       -0.1368419E-03 Eh
 * total energy  :   -99.3154814 Eh     change       -0.1043240E-03 Eh
 * total energy  :   -99.3155978 Eh     change       -0.1163616E-03 Eh
 * total energy  :   -99.3157182 Eh     change       -0.1204665E-03 Eh
 * total energy  :   -99.3158158 Eh     change       -0.9754491E-04 Eh
 * total energy  :   -99.3158833 Eh     change       -0.6749099E-04 Eh
 * total energy  :   -99.3159283 Eh     change       -0.4502619E-04 Eh
   *** GEOMETRY OPTIMIZATION CONVERGED AFTER 44 ITERATIONS ***

 final structure:
================
72
 xtb: 6.6.1 (8d0f1dd)
N           -1.57987934145059        2.96151469685008        1.80101252019530
C           -1.98875505633397        1.77114903071715        1.53910588259526
C           -3.25178453239674        1.48077427710467        0.97606589299716
C           -3.65463256717570        0.10600862671607        0.81475869530005
C           -4.58609847855235       -0.27607447932233       -0.17391247973372
C           -4.99587171607059       -1.58466076729123       -0.32491944057376
O           -5.88301809102837       -2.02724792811850       -1.24010803274795
C           -6.56780182598452       -1.09622119442254       -2.04480436243698
C           -4.46574286529250       -2.59455458393708        0.52890007283976
O           -4.91990829907757       -3.83906919597343        0.30479859676043
C           -4.49981024330349       -4.89050004333840        1.14370441872915
C           -3.54897241393832       -2.22450724678643        1.50593509300937
C           -3.14895604159108       -0.91017694056776        1.64371202581774
C           -1.48208678921941        3.05997009527508       -2.56986684209467
C           -1.27598979942888        1.76090313379225       -1.90919854228687
C            0.03399719050017        1.61437603225485       -1.25029585746948
N            0.47115714597301        0.48368321594672       -0.72092210433773
C            1.82088883670218        0.38349008851154       -0.21831091804214
C            2.76923817919888       -0.21977141187989       -1.27510813372270
C            4.20026345250869       -0.07820812471062       -0.83836757480004
C            4.88441503467030        1.10510475745130       -1.07004123530484
C            6.19777572887228        1.25927201886607       -0.65708798563946
C            6.85683393200878        0.22956615684370       -0.00000456247410
O            8.12633522453205        0.26884336528534        0.44329881303029
C            8.88472821010550        1.44148781967035        0.25222518992896
C            6.16466729220997       -0.99023630875004        0.23928977215538
O            6.88111846591667       -1.94006483128156        0.87145609970417
C            6.29557627395158       -3.19557891812660        1.12106113810241
C            4.84849851269227       -1.11859328490817       -0.17837172496536
C           -0.30325649302293       -0.72889125462674       -0.81176855743709
C           -4.24880371103690        2.58829617293416        0.75398588801356
C           -4.74411198058934        3.04097318387432        2.13736717042335
C           -3.70251581874761        3.79205293252189       -0.01150710299647
H           -4.96865922639276        0.47347796874840       -0.84724762035325
H           -7.11474801099187       -0.36889641726866       -1.43739548956532
H           -7.27465386617321       -1.68161419396345       -2.62972998212269
H           -5.88762083109285       -0.57056149795390       -2.72253398626107
H           -4.77322320572955       -4.70380538099697        2.18626658389663
H           -5.02263059001876       -5.77547750619283        0.78646693684311
H           -3.41997980414159       -5.05417617191574        1.07221541382528
H           -3.15569524447080       -2.96313664369112        2.18572954714662
H           -2.48263683401321       -0.66161160448444        2.45410875080528
H           -2.25789601230833        3.17049718841882       -3.29956947013428
H           -0.91816703504127        3.92240672130847       -2.27801805293089
H           -2.05351195532857        1.61523484281445       -1.12116438663840
H           -1.45227238543129        0.94002745001664       -2.61700857525904
H           -1.33242214352998        0.90539775842866        1.70540594984204
H            0.66656206515075        2.48193652181280       -1.15380565929690
H            1.82765837163128       -0.23676224663941        0.68116630250013
H            2.17726744736650        1.38003097997288        0.04859970165842
H            2.62092643457393        0.31699254255079       -2.21433935861373
H            2.52427980815791       -1.27027391934239       -1.43470413568199
H            4.39837345651467        1.91638157815487       -1.59049461515922
H            6.70512408182157        2.18802398751167       -0.85950454117828
H            8.42889559036850        2.29885387584121        0.75662445808249
H            9.01227801745668        1.66729999834614       -0.81066611323302
H            9.85677634108205        1.23641206682503        0.69640469409442
H            7.06432098573090       -3.78237037919218        1.62006555790581
H            5.42426476563623       -3.10912053450143        1.77799531028552
H            6.00622630963866       -3.69475314062619        0.19099753024246
H            4.31668597194979       -2.04099962784034       -0.00518199916770
H           -0.39624023454004       -1.06120854148336       -1.84893844402365
H           -1.30755877690274       -0.57400314047131       -0.41135886988486
H            0.18260797796641       -1.51447726557401       -0.23881105340110
H           -5.11340269135312        2.19195871291075        0.21403139760352
H           -3.91678251696924        3.46400082228277        2.69966203967764
H           -5.15698908797658        2.20009290415926        2.69016239709806
H           -5.51663920181454        3.79669192653595        2.02338985225602
H           -2.83606108832477        4.19140633174522        0.50764381065678
H           -3.41372818183645        3.52599846375393       -1.02752901374591
H           -4.46574183431063        4.56403497818846       -0.06616903310587
H           -0.65596868497473        3.04712102371954        2.20641719544231

          :  Hamiltonian                  GFN2-xTB          :
         :: total energy             -99.315928303104 Eh    ::
         :: gradient norm              0.001808948583 Eh/a0 ::
         :: HOMO-LUMO gap              0.176712585605 eV    ::
         :: SCC energy              -100.705650175681 Eh    ::
         :: -> dispersion             -0.071290049868 Eh    ::
         :: repulsion energy           1.388413790782 Eh    ::

    * Orbital Energies and Occupations

         #    Occupation            Energy/Eh            Energy/eV
      -------------------------------------------------------------
         1        2.0000           -0.8122190             -22.1016
       ...           ...                  ...                  ...
        78        1.9982           -0.5301091             -14.4250
        79        1.9979           -0.5280784             -14.3697
        80        1.9978           -0.5269714             -14.3396
        81        1.9968           -0.5212996             -14.1853
        82        1.9958           -0.5169271             -14.0663
        83        1.9943           -0.5121385             -13.9360
        84        1.9930           -0.5086868             -13.8421
        85        1.9842           -0.4958317             -13.4923
        86        1.9774           -0.4900737             -13.3356
        87        1.9110           -0.4678231             -12.7301
        88        1.8452           -0.4585064             -12.4766
        89        1.8334           -0.4572374             -12.4421
        90        1.1867           -0.4252451             -11.5715 (HOMO)
        91        0.9839           -0.4187511             -11.3948 (LUMO)
        92        0.3020           -0.3919188             -10.6647
        93        0.0044           -0.3224673              -8.7748
        94        0.0027           -0.3146510              -8.5621
        95        0.0025           -0.3137258              -8.5369
        96        0.0023           -0.3117799              -8.4840
        97        0.0001           -0.2629998              -7.1566
        98        0.0000           -0.1890420              -5.1441
        99        0.0000           -0.1840756              -5.0090
       100                         -0.1350013              -3.6736
       101                         -0.0658105              -1.7908
       ...                                ...                  ...
       171                          0.5784912              15.7415
      -------------------------------------------------------------
                  HL-Gap            0.0064941 Eh            0.1767 eV

     #   Z          covCN         q      C6AA      α(0)
     1   7 N        1.779    -0.307    28.772     7.944
     2   6 C        2.823     0.073    26.361     8.413
     3   6 C        2.964    -0.018    28.467     8.751
     4   6 C        2.968    -0.003    28.093     8.694
     5   6 C        2.919    -0.082    30.057     8.990
     6   6 C        2.859     0.131    25.125     8.216
     7   8 O        1.706    -0.231    17.837     5.702
     8   6 C        3.644     0.028    20.448     6.500
     9   6 C        2.864     0.133    25.094     8.211
    10   8 O        1.706    -0.219    17.643     5.671
    11   6 C        3.645     0.025    20.484     6.505
    12   6 C        2.910    -0.070    29.748     8.944
    13   6 C        2.922    -0.050    29.251     8.869
    14   6 C        2.837    -0.113    30.846     9.102
    15   6 C        3.803    -0.055    21.555     6.610
    16   6 C        2.851     0.008    27.832     8.647
    17   7 N        2.730     0.021    20.890     6.788
    18   6 C        3.756    -0.019    20.966     6.529
    19   6 C        3.808    -0.071    21.850     6.654
    20   6 C        2.968     0.000    28.016     8.682
    21   6 C        2.922    -0.049    29.209     8.863
    22   6 C        2.914    -0.067    29.668     8.932
    23   6 C        2.865     0.134    25.067     8.207
    24   8 O        1.706    -0.220    17.654     5.673
    25   6 C        3.645     0.024    20.499     6.507
    26   6 C        2.863     0.134    25.075     8.208
    27   8 O        1.706    -0.223    17.699     5.680
    28   6 C        3.645     0.027    20.463     6.502
    29   6 C        2.919    -0.079    29.967     8.977
    30   6 C        3.702    -0.073    22.054     6.715
    31   6 C        3.853    -0.005    20.626     6.459
    32   6 C        3.760    -0.107    22.592     6.776
    33   6 C        3.755    -0.121    22.875     6.820
    34   1 H        0.926     0.052     2.300     2.371
    35   1 H        0.924     0.054     2.269     2.356
    36   1 H        0.925     0.081     1.966     2.193
    37   1 H        0.924     0.048     2.347     2.396
    38   1 H        0.924     0.058     2.225     2.333
    39   1 H        0.925     0.083     1.949     2.183
    40   1 H        0.924     0.051     2.303     2.373
    41   1 H        0.926     0.053     2.278     2.360
    42   1 H        0.926     0.047     2.364     2.404
    43   1 H        0.926     0.060     2.202     2.320
    44   1 H        0.926     0.060     2.199     2.319
    45   1 H        0.920     0.112     1.676     2.025
    46   1 H        0.923     0.086     1.922     2.168
    47   1 H        0.923    -0.005     3.151     2.776
    48   1 H        0.926     0.083     1.949     2.183
    49   1 H        0.924     0.069     2.094     2.263
    50   1 H        0.924     0.073     2.053     2.240
    51   1 H        0.924     0.057     2.233     2.337
    52   1 H        0.924     0.055     2.256     2.349
    53   1 H        0.926     0.046     2.369     2.407
    54   1 H        0.926     0.060     2.203     2.321
    55   1 H        0.924     0.055     2.257     2.349
    56   1 H        0.924     0.057     2.236     2.339
    57   1 H        0.925     0.083     1.947     2.182
    58   1 H        0.925     0.083     1.953     2.186
    59   1 H        0.924     0.050     2.324     2.384
    60   1 H        0.924     0.053     2.281     2.362
    61   1 H        0.926     0.048     2.339     2.391
    62   1 H        0.924     0.078     2.004     2.214
    63   1 H        0.924     0.081     1.973     2.197
    64   1 H        0.925     0.081     1.966     2.193
    65   1 H        0.924     0.040     2.448     2.447
    66   1 H        0.925     0.063     2.168     2.302
    67   1 H        0.925     0.038     2.471     2.458
    68   1 H        0.925     0.053     2.282     2.363
    69   1 H        0.925     0.077     2.012     2.218
    70   1 H        0.925     0.033     2.550     2.497
    71   1 H        0.925     0.051     2.305     2.374
    72   1 H        0.860     0.139     1.482     1.907

Wiberg/Mayer (AO) data.
largest (>0.10) Wiberg bond orders for each atom

     #   Z sym  total        # sym  WBO       # sym  WBO       # sym  WBO
 ---------------------------------------------------------------------------
     1   7 N    2.719 --     2 C    1.663    72 H    0.951
     2   6 C    3.928 --     1 N    1.663     3 C    1.267    47 H    0.927
     3   6 C    3.615 --     2 C    1.267     4 C    1.185    31 C    1.009
     4   6 C    3.960 --    13 C    1.311     5 C    1.294     3 C    1.185
     5   6 C    3.912 --     6 C    1.432     4 C    1.294    34 H    0.956
     6   6 C    3.905 --     5 C    1.432     9 C    1.203     7 O    1.098
     7   8 O    2.251 --     6 C    1.098     8 C    0.978
     8   6 C    3.931 --     7 O    0.978    36 H    0.977    35 H    0.974
                            37 H    0.973
     9   6 C    3.842 --    12 C    1.359     6 C    1.203    10 O    1.116
    10   8 O    2.250 --     9 C    1.116    11 C    0.975
    11   6 C    3.929 --    39 H    0.977    10 O    0.975    40 H    0.973
                            38 H    0.972
    12   6 C    3.961 --    13 C    1.454     9 C    1.359    41 H    0.963
    13   6 C    3.880 --    12 C    1.454     4 C    1.311    42 H    0.964
    14   6 C    3.124 --    15 C    1.094    43 H    0.982    44 H    0.981
    15   6 C    3.979 --    14 C    1.094    16 C    1.068    46 H    0.920
                            45 H    0.847
    16   6 C    3.601 --    17 N    1.427    15 C    1.068    48 H    0.956
    17   7 N    3.494 --    16 C    1.427    30 C    1.001    18 C    0.987
    18   6 C    3.953 --    17 N    0.987    50 H    0.967    19 C    0.965
                            49 H    0.965
    19   6 C    3.977 --    20 C    1.008    52 H    0.973    51 H    0.970
                            18 C    0.965
    20   6 C    3.942 --    21 C    1.404    29 C    1.383    19 C    1.008
    21   6 C    3.948 --    22 C    1.420    20 C    1.404    53 H    0.968
    22   6 C    3.958 --    21 C    1.420    23 C    1.380    54 H    0.963
    23   6 C    3.893 --    22 C    1.380    26 C    1.219    24 O    1.112
    24   8 O    2.255 --    23 C    1.112    25 C    0.975
    25   6 C    3.927 --    57 H    0.977    24 O    0.975    55 H    0.972
                            56 H    0.972
    26   6 C    3.896 --    29 C    1.392    23 C    1.219    27 O    1.106
    27   8 O    2.254 --    26 C    1.106    28 C    0.978
    28   6 C    3.931 --    27 O    0.978    58 H    0.977    59 H    0.973
                            60 H    0.973
    29   6 C    3.958 --    26 C    1.392    20 C    1.383    61 H    0.962
    30   6 C    3.957 --    17 N    1.001    64 H    0.978    63 H    0.962
                            62 H    0.962
    31   6 C    3.970 --     3 C    1.009    33 C    0.997    32 C    0.966
                            65 H    0.954
    32   6 C    3.949 --    67 H    0.986    66 H    0.980    68 H    0.978
                            31 C    0.966
    33   6 C    3.953 --    31 C    0.997    71 H    0.980    70 H    0.973
                            69 H    0.965
    34   1 H    0.996 --     5 C    0.956
    35   1 H    0.993 --     8 C    0.974
    36   1 H    0.993 --     8 C    0.977
    37   1 H    0.993 --     8 C    0.973
    38   1 H    0.991 --    11 C    0.972
    39   1 H    0.992 --    11 C    0.977
    40   1 H    0.992 --    11 C    0.973
    41   1 H    0.995 --    12 C    0.963
    42   1 H    0.997 --    13 C    0.964
    43   1 H    0.996 --    14 C    0.982
    44   1 H    0.996 --    14 C    0.981
    45   1 H    0.928 --    15 C    0.847
    46   1 H    0.968 --    15 C    0.920
    47   1 H    0.970 --     2 C    0.927
    48   1 H    0.993 --    16 C    0.956
    49   1 H    0.991 --    18 C    0.965
    50   1 H    0.994 --    18 C    0.967
    51   1 H    0.995 --    19 C    0.970
    52   1 H    0.996 --    19 C    0.973
    53   1 H    0.997 --    21 C    0.968
    54   1 H    0.995 --    22 C    0.963
    55   1 H    0.991 --    25 C    0.972
    56   1 H    0.991 --    25 C    0.972
    57   1 H    0.992 --    25 C    0.977
    58   1 H    0.992 --    28 C    0.977
    59   1 H    0.993 --    28 C    0.973
    60   1 H    0.992 --    28 C    0.973
    61   1 H    0.996 --    29 C    0.962
    62   1 H    0.984 --    30 C    0.962
    63   1 H    0.988 --    30 C    0.962
    64   1 H    0.993 --    30 C    0.978
    65   1 H    0.989 --    31 C    0.954
    66   1 H    0.992 --    32 C    0.980
    67   1 H    0.996 --    32 C    0.986
    68   1 H    0.990 --    32 C    0.978
    69   1 H    0.988 --    33 C    0.965
    70   1 H    0.996 --    33 C    0.973
    71   1 H    0.993 --    33 C    0.980
    72   1 H    0.971 --     1 N    0.951
 ---------------------------------------------------------------------------

molecular dipole:
                 x           y           z       tot (Debye)
 q only:        0.704      -0.348      -0.960
   full:        0.747      -0.617      -0.769       3.143

           -------------------------------------------------
          | TOTAL ENERGY              -99.315928303104 Eh   |
          | GRADIENT NORM               0.001808948583 Eh/α |
          | HOMO-LUMO GAP               0.176712585605 eV   |
           -------------------------------------------------

 * finished run on 2024/04/06 at 11:12:16.233
