   * xtb version 6.6.1 (8d0f1dd) compiled by 'conda@1efc2f54142f' on 2023-08-01
          program call               : xtb struc.xyz --opt loose --input .xc1 --gfn2

   ID    Z sym.   atoms
    1    6 C      1, 3, 5-7, 10, 11, 14
    2    7 N      2, 4, 9, 13
    3    8 O      8, 12
    4    1 H      15-25
constraining bond 10 13 to    5.9200000 Å, actual value:    3.6911810 Å

          :  Hamiltonian                  GFN2-xTB          :
 * total energy  :   -33.3754133 Eh     change       -0.6633627E-10 Eh
 * total energy  :   -37.1200605 Eh     change       -0.3744647E+01 Eh
 * total energy  :   -39.7382110 Eh     change       -0.2618151E+01 Eh
 * total energy  :   -41.2029305 Eh     change       -0.1464719E+01 Eh
 * total energy  :   -41.7142918 Eh     change       -0.5113613E+00 Eh
 * total energy  :   -41.8007290 Eh     change       -0.8643720E-01 Eh
 * total energy  :   -41.8535392 Eh     change       -0.5281020E-01 Eh
 * total energy  :   -41.9229613 Eh     change       -0.6942206E-01 Eh
 * total energy  :   -41.9607446 Eh     change       -0.3778334E-01 Eh
 * total energy  :   -41.9831195 Eh     change       -0.2237485E-01 Eh
 * total energy  :   -42.1496761 Eh     change       -0.5885794E-02 Eh
 * total energy  :   -42.1541692 Eh     change       -0.4493055E-02 Eh
 * total energy  :   -42.1566211 Eh     change       -0.2451858E-02 Eh
 * total energy  :   -42.1604311 Eh     change       -0.3810033E-02 Eh
 * total energy  :   -42.1614954 Eh     change       -0.1064297E-02 Eh
 * total energy  :   -42.1619899 Eh     change       -0.4945598E-03 Eh
 * total energy  :   -42.1618914 Eh     change        0.9857999E-04 Eh
 * total energy  :   -42.1622380 Eh     change       -0.3466629E-03 Eh
 * total energy  :   -42.1622740 Eh     change       -0.3596280E-04 Eh
   *** GEOMETRY OPTIMIZATION CONVERGED AFTER 67 ITERATIONS ***

 final structure:
================
25
 xtb: 6.6.1 (8d0f1dd)
C            2.40050645412950        1.49419700588062        0.00587055958354
N            1.76051306002020        0.20514800888468       -0.02075852778835
C            2.39251938397782       -0.95104627567207       -0.03658700121588
N            1.50010078524896       -1.95794409949813       -0.02523081256565
C            0.23023828235993       -1.43794881467138       -0.00035708574082
C            0.40025205751535       -0.01816585344165        0.00340667675397
C           -0.74244232761864        0.90909242042730        0.01413843407988
O           -0.45932137843254        2.22900826343772        0.00080625583982
N           -1.86598732416661        0.24213029164281        0.03092412153478
C           -1.04491121841173        3.74586945270249        0.00822792779382
C           -2.09122530966262       -1.10879713329390        0.03577428294950
O           -3.17346863787777       -1.59577824635607        0.04821056071964
N           -0.90961595269095       -2.13798390159401        0.01996162838865
C           -1.12320272639188       -3.54951969654922       -0.00485013999912
H            2.62159584083014        1.78202213522322        1.03575252924061
H            3.32986305252010        1.45933838497543       -0.55887141860536
H            1.73005982576460        2.23381187592950       -0.42412606471830
H            3.45746529257419       -1.07798427064019       -0.05789705474457
H           -0.11533219998648        4.29325539149414        0.04952195019596
H           -1.59772441019197        3.86969916243522       -0.91314468777033
H           -1.65992478182167        3.84398647060919        0.89241452156810
H           -0.74984409128118       -4.01703793662699        0.90841298630522
H           -0.65099916458083       -4.00106091848358       -0.87866452904985
H           -2.20335915724683       -3.69352907161269       -0.06215901232133
H            1.72467615952147       -2.94252410360445       -0.03960448253656

          :  Hamiltonian                  GFN2-xTB          :
         :: total energy             -42.162273993129 Eh    ::
         :: gradient norm              0.002854849874 Eh/a0 ::
         :: HOMO-LUMO gap              2.646880120615 eV    ::
         :: SCC energy               -42.663647212813 Eh    ::
         :: -> dispersion             -0.021508177823 Eh    ::
         :: repulsion energy           0.499166266014 Eh    ::

    * Orbital Energies and Occupations

         #    Occupation            Energy/Eh            Energy/eV
      -------------------------------------------------------------
         1        2.0000           -0.9041940             -24.6044
       ...           ...                  ...                  ...
        25        2.0000           -0.6532518             -17.7759
        26        2.0000           -0.6521927             -17.7471
        27        2.0000           -0.6455562             -17.5665
        28        2.0000           -0.6376759             -17.3520
        29        2.0000           -0.6334035             -17.2358
        30        2.0000           -0.6181672             -16.8212
        31        2.0000           -0.6074654             -16.5300
        32        2.0000           -0.6052472             -16.4696
        33        2.0000           -0.5996650             -16.3177
        34        2.0000           -0.5659440             -15.4001
        35        1.9998           -0.5527816             -15.0420
        36        1.9982           -0.5343301             -14.5399
        37        1.9966           -0.5295046             -14.4086 (HOMO)
        38        0.0054           -0.4322335             -11.7617 (LUMO)
        39        0.0000           -0.3945242             -10.7355
        40        0.0000           -0.3640398              -9.9060
        41                         -0.3385643              -9.2128
        42                         -0.2812370              -7.6528
        43                         -0.2205540              -6.0016
        44                         -0.1875024              -5.1022
        45                         -0.1539093              -4.1881
        46                         -0.0917805              -2.4975
        47                         -0.0733389              -1.9957
        48                         -0.0590648              -1.6072
       ...                                ...                  ...
        67                          0.5709827              15.5372
      -------------------------------------------------------------
                  HL-Gap            0.0972711 Eh            2.6469 eV

     #   Z          covCN         q      C6AA      α(0)
     1   6 C        3.694    -0.092    22.437     6.777
     2   7 N        2.829     0.081    19.829     6.614
     3   6 C        3.020     0.057    26.706     8.477
     4   7 N        2.791    -0.068    22.556     7.054
     5   6 C        3.008     0.124    25.264     8.245
     6   6 C        3.101    -0.022    28.416     8.735
     7   6 C        2.756     0.271    22.419     7.754
     8   8 O        1.617    -0.285    18.772     5.848
     9   7 N        1.854    -0.259    27.600     7.786
    10   6 C        3.539     0.007    21.567     6.808
    11   6 C        2.703     0.330    21.391     7.570
    12   8 O        0.859    -0.300    19.787     5.964
    13   7 N        2.715    -0.096    23.120     7.141
    14   6 C        3.685    -0.058    21.823     6.688
    15   1 H        0.924     0.108     1.711     2.046
    16   1 H        0.925     0.102     1.769     2.080
    17   1 H        0.925     0.123     1.586     1.970
    18   1 H        0.926     0.121     1.606     1.982
    19   1 H        0.926     0.119     1.624     1.993
    20   1 H        0.925     0.117     1.639     2.002
    21   1 H        0.925     0.117     1.636     2.000
    22   1 H        0.924     0.078     1.998     2.210
    23   1 H        0.924     0.075     2.034     2.231
    24   1 H        0.924     0.122     1.599     1.978
    25   1 H        0.860     0.228     0.972     1.545

Wiberg/Mayer (AO) data.
largest (>0.10) Wiberg bond orders for each atom

     #   Z sym  total        # sym  WBO       # sym  WBO       # sym  WBO
 ---------------------------------------------------------------------------
     1   6 C    3.925 --     2 N    0.986    16 H    0.971    17 H    0.962
                            15 H    0.956
     2   7 N    3.724 --     3 C    1.422     6 C    1.158     1 C    0.986
     3   6 C    3.925 --     2 N    1.422     4 N    1.283    18 H    0.952
                             6 C    0.104
     4   7 N    3.602 --     3 C    1.283     5 C    1.168    25 H    0.920
     5   6 C    3.956 --    13 N    1.316     6 C    1.291     4 N    1.168
     6   6 C    3.920 --     5 C    1.291     2 N    1.158     7 C    1.093
                             3 C    0.104
     7   6 C    3.948 --     9 N    1.498     8 O    1.205     6 C    1.093
     8   8 O    2.292 --     7 C    1.205    10 C    0.834     9 N    0.133
     9   7 N    3.121 --     7 C    1.498    11 C    1.201     8 O    0.133
    10   6 C    3.826 --    21 H    0.978    20 H    0.978    19 H    0.977
                             8 O    0.834
    11   6 C    3.945 --    12 O    1.821     9 N    1.201    13 N    0.830
    12   8 O    2.166 --    11 C    1.821    13 N    0.135
    13   7 N    3.556 --     5 C    1.316    14 C    0.997    11 C    0.830
                            12 O    0.135
    14   6 C    3.936 --    13 N    0.997    23 H    0.966    22 H    0.965
                            24 H    0.961
    15   1 H    0.988 --     1 C    0.956
    16   1 H    0.989 --     1 C    0.971
    17   1 H    0.985 --     1 C    0.962
    18   1 H    0.984 --     3 C    0.952
    19   1 H    0.985 --    10 C    0.977
    20   1 H    0.985 --    10 C    0.978
    21   1 H    0.985 --    10 C    0.978
    22   1 H    0.993 --    14 C    0.965
    23   1 H    0.993 --    14 C    0.966
    24   1 H    0.985 --    14 C    0.961
    25   1 H    0.947 --     4 N    0.920
 ---------------------------------------------------------------------------

molecular dipole:
                 x           y           z       tot (Debye)
 q only:        3.167       0.083      -0.043
   full:        3.741      -0.260      -0.045       9.533

           -------------------------------------------------
          | TOTAL ENERGY              -42.162273993129 Eh   |
          | GRADIENT NORM               0.002854849874 Eh/α |
          | HOMO-LUMO GAP               2.646880120615 eV   |
           -------------------------------------------------

 * finished run on 2024/06/05 at 19:58:05.943
