   * xtb version 6.6.1 (8d0f1dd) compiled by 'conda@1efc2f54142f' on 2023-08-01
          program call               : xtb xtbopt.xyz --opt crude --input .xc2 --gfn2

   ID    Z sym.   atoms
    1    6 C      1, 3, 5-7, 10, 11, 14
    2    7 N      2, 4, 9, 13
    3    8 O      8, 12
    4    1 H      15-25
########################################################################
[WARNING] Please study the warnings concerning your input carefully
-1- readin_getIntValue: could not parse ''
########################################################################

          :  Hamiltonian                  GFN2-xTB          :
 * total energy  :   -42.1644090 Eh     change       -0.3694822E-12 Eh
 * total energy  :   -42.1876407 Eh     change       -0.2323168E-01 Eh
 * total energy  :   -42.2038785 Eh     change       -0.1623786E-01 Eh
 * total energy  :   -42.2100777 Eh     change       -0.6199224E-02 Eh
 * total energy  :   -42.2148561 Eh     change       -0.4778387E-02 Eh
 * total energy  :   -42.2182373 Eh     change       -0.3381181E-02 Eh
 * total energy  :   -42.2205451 Eh     change       -0.2307792E-02 Eh
 * total energy  :   -42.2222018 Eh     change       -0.1656699E-02 Eh
 * total energy  :   -42.2228758 Eh     change       -0.6739702E-03 Eh
 * total energy  :   -42.2231263 Eh     change       -0.2505404E-03 Eh
   *** GEOMETRY OPTIMIZATION CONVERGED AFTER 10 ITERATIONS ***

 final structure:
================
25
 xtb: 6.6.1 (8d0f1dd)
C            2.70000363345175        1.42049185462725       -0.00874336857816
N            1.97807470344142        0.17732962478700       -0.02427716237905
C            2.48851057971424       -1.03946947439988       -0.04133189234176
N            1.49908370003019       -1.95828701999354       -0.02960767976206
C            0.30183374490939       -1.29524179439541       -0.00382362456140
C            0.60892906206317        0.06722298813120        0.00148586038919
C           -0.49869848993839        0.98375230931764        0.01495682536185
O           -0.25878388135093        2.27447973674098        0.01613362809576
N           -1.70143080938366        0.50988445446281        0.02525900391355
C           -1.38720600167245        3.14864166251275        0.02854902647189
C           -2.04003315576372       -0.80372308608452        0.02469524051117
O           -3.15508160500194       -1.21961579518393        0.03610344860391
N           -0.93649173159698       -1.76814349447663        0.00723183775710
C           -1.24419198082840       -3.18342219470382       -0.00049082780577
H            2.81335202680151        1.77564490383104        1.01720286471729
H            3.68595630098220        1.28898406537340       -0.45059804102337
H            2.13769129770080        2.16896156311117       -0.56596158734387
H            3.53480835714940       -1.27563813619817       -0.06291627561453
H           -0.97861037331370        4.15857904800687        0.07246943789226
H           -1.98450740150365        3.00786482280865       -0.87326602633984
H           -2.01266126893488        2.94250853769203        0.89576554453425
H           -0.86530279425543       -3.66747130251028        0.90056473690968
H           -0.83087234230431       -3.66495720055800       -0.88753201920300
H           -2.33107365645206       -3.27074009509735       -0.02056474046070
H            1.63713360015704       -2.95939743620332       -0.04013259184713

          :  Hamiltonian                  GFN2-xTB          :
         :: total energy             -42.223126317791 Eh    ::
         :: gradient norm              0.007678797497 Eh/a0 ::
         :: HOMO-LUMO gap              2.679530204973 eV    ::
         :: SCC energy               -42.749637218917 Eh    ::
         :: -> dispersion             -0.022136241096 Eh    ::
         :: repulsion energy           0.526414298078 Eh    ::

    * Orbital Energies and Occupations

         #    Occupation            Energy/Eh            Energy/eV
      -------------------------------------------------------------
         1        2.0000           -0.9164892             -24.9389
       ...           ...                  ...                  ...
        25        2.0000           -0.6577004             -17.8969
        26        2.0000           -0.6548685             -17.8199
        27        2.0000           -0.6489717             -17.6594
        28        2.0000           -0.6411068             -17.4454
        29        2.0000           -0.6346477             -17.2696
        30        2.0000           -0.6235521             -16.9677
        31        2.0000           -0.6136998             -16.6996
        32        2.0000           -0.6048867             -16.4598
        33        2.0000           -0.5973262             -16.2541
        34        1.9999           -0.5643090             -15.3556
        35        1.9995           -0.5537755             -15.0690
        36        1.9988           -0.5458529             -14.8534
        37        1.9968           -0.5384144             -14.6510 (HOMO)
        38        0.0050           -0.4399435             -11.9715 (LUMO)
        39        0.0000           -0.3988447             -10.8531
        40        0.0000           -0.3652852              -9.9399
        41                         -0.2701452              -7.3510
        42                         -0.2021355              -5.5004
        43                         -0.1808422              -4.9210
        44                         -0.1486140              -4.0440
        45                         -0.1203311              -3.2744
        46                         -0.0916987              -2.4952
        47                         -0.0649049              -1.7662
        48                         -0.0400601              -1.0901
       ...                                ...                  ...
        67                          0.5807596              15.8033
      -------------------------------------------------------------
                  HL-Gap            0.0984709 Eh            2.6795 eV

     #   Z          covCN         q      C6AA      α(0)
     1   6 C        3.692    -0.090    22.415     6.774
     2   7 N        2.831     0.086    19.756     6.601
     3   6 C        3.057     0.059    26.626     8.462
     4   7 N        2.796    -0.064    22.483     7.042
     5   6 C        3.036     0.127    25.181     8.231
     6   6 C        3.125    -0.024    28.400     8.726
     7   6 C        2.820     0.255    22.722     7.810
     8   8 O        1.705    -0.203    17.375     5.628
     9   7 N        1.839    -0.279    28.096     7.855
    10   6 C        3.657     0.005    20.783     6.544
    11   6 C        2.721     0.339    21.244     7.545
    12   8 O        0.859    -0.331    20.343     6.047
    13   7 N        2.735    -0.077    22.734     7.081
    14   6 C        3.694    -0.069    21.998     6.710
    15   1 H        0.924     0.114     1.659     2.014
    16   1 H        0.925     0.105     1.737     2.061
    17   1 H        0.925     0.123     1.593     1.973
    18   1 H        0.926     0.126     1.565     1.956
    19   1 H        0.924     0.099     1.796     2.096
    20   1 H        0.924     0.092     1.857     2.131
    21   1 H        0.925     0.094     1.843     2.123
    22   1 H        0.924     0.077     2.007     2.215
    23   1 H        0.924     0.076     2.024     2.225
    24   1 H        0.924     0.127     1.556     1.951
    25   1 H        0.860     0.232     0.956     1.532

Wiberg/Mayer (AO) data.
largest (>0.10) Wiberg bond orders for each atom

     #   Z sym  total        # sym  WBO       # sym  WBO       # sym  WBO
 ---------------------------------------------------------------------------
     1   6 C    3.923 --     2 N    0.987    16 H    0.972    17 H    0.963
                            15 H    0.953
     2   7 N    3.726 --     3 C    1.425     6 C    1.155     1 C    0.987
     3   6 C    3.920 --     2 N    1.425     4 N    1.283    18 H    0.951
     4   7 N    3.603 --     3 C    1.283     5 C    1.171    25 H    0.918
     5   6 C    3.964 --     6 C    1.312    13 N    1.297     4 N    1.171
     6   6 C    3.930 --     5 C    1.312     2 N    1.155     7 C    1.111
     7   6 C    3.956 --     9 N    1.503     8 O    1.197     6 C    1.111
     8   8 O    2.366 --     7 C    1.197    10 C    0.933     9 N    0.124
     9   7 N    3.091 --     7 C    1.503    11 C    1.173     8 O    0.124
    10   6 C    3.888 --    19 H    0.977    21 H    0.970    20 H    0.970
                             8 O    0.933
    11   6 C    3.951 --    12 O    1.769     9 N    1.173    13 N    0.926
    12   8 O    2.114 --    11 C    1.769    13 N    0.130
    13   7 N    3.577 --     5 C    1.297    14 C    0.979    11 C    0.926
                            12 O    0.130
    14   6 C    3.932 --    13 N    0.979    23 H    0.971    22 H    0.970
                            24 H    0.963
    15   1 H    0.987 --     1 C    0.953
    16   1 H    0.988 --     1 C    0.972
    17   1 H    0.985 --     1 C    0.963
    18   1 H    0.983 --     3 C    0.951
    19   1 H    0.990 --    10 C    0.977
    20   1 H    0.991 --    10 C    0.970
    21   1 H    0.990 --    10 C    0.970
    22   1 H    0.993 --    14 C    0.970
    23   1 H    0.993 --    14 C    0.971
    24   1 H    0.983 --    14 C    0.963
    25   1 H    0.946 --     4 N    0.918
 ---------------------------------------------------------------------------

molecular dipole:
                 x           y           z       tot (Debye)
 q only:        3.413      -0.607      -0.038
   full:        4.030      -1.062      -0.040      10.594

           -------------------------------------------------
          | TOTAL ENERGY              -42.223126317791 Eh   |
          | GRADIENT NORM               0.007678797497 Eh/α |
          | HOMO-LUMO GAP               2.679530204973 eV   |
           -------------------------------------------------

 * finished run on 2024/06/05 at 19:58:06.355
