   * xtb version 6.6.1 (8d0f1dd) compiled by 'conda@1efc2f54142f' on 2023-08-01
          program call               : xtb struc.xyz --opt loose --input .xc1 --gfn2

   ID    Z sym.   atoms
    1    6 C      1, 3, 5-7, 10, 11, 14
    2    7 N      2, 4, 9, 13
    3    8 O      8, 12
    4    1 H      15-25
constraining bond 11 22 to    3.7133300 Å, actual value:    3.1884051 Å

          :  Hamiltonian                  GFN2-xTB          :
 * total energy  :   -42.7372799 Eh     change       -0.6633627E-10 Eh
 * total energy  :   -44.9059313 Eh     change       -0.2168651E+01 Eh
 * total energy  :   -48.7283595 Eh     change       -0.3822428E+01 Eh
 * total energy  :   -54.3752496 Eh     change       -0.5646890E+01 Eh
 * total energy  :   -58.1437778 Eh     change       -0.3768528E+01 Eh
 * total energy  :   -57.9054793 Eh     change        0.2382985E+00 Eh
 * total energy  :   -58.8935830 Eh     change       -0.9881037E+00 Eh
 * total energy  :   -58.0860179 Eh     change        0.8075651E+00 Eh
 * total energy  :   -59.2596057 Eh     change       -0.1173588E+01 Eh
 * total energy  :   -59.3394399 Eh     change       -0.7983411E-01 Eh
 * total energy  :   -59.7326643 Eh     change       -0.4680178E-05 Eh
 * total energy  :   -59.7327501 Eh     change       -0.8577651E-04 Eh
 * total energy  :   -59.7327845 Eh     change       -0.3439797E-04 Eh
 * total energy  :   -59.7328343 Eh     change       -0.4974841E-04 Eh
 * total energy  :   -59.7328578 Eh     change       -0.2350746E-04 Eh
 * total energy  :   -59.7328725 Eh     change       -0.1475264E-04 Eh
 * total energy  :   -59.7328896 Eh     change       -0.1703226E-04 Eh
 * total energy  :   -59.7329076 Eh     change       -0.1801516E-04 Eh
 * total energy  :   -59.7329191 Eh     change       -0.1149061E-04 Eh
   *** GEOMETRY OPTIMIZATION CONVERGED AFTER 64 ITERATIONS ***

 final structure:
================
25
 xtb: 6.6.1 (8d0f1dd)
C            2.93971477189185        1.09852292173869        0.22984148269089
N            2.14198579945295       -0.08492148430155        0.05307372631375
C            2.60129395939236       -1.31960602103277       -0.03125358423567
N            1.57503292845086       -2.16259792029195       -0.20422437126349
C            0.40315116563006       -1.44048790310222       -0.19710319989246
C            0.76865920100438       -0.11398917592549       -0.00848629796424
C           -0.05272346642073        1.12969504055212       -0.17922760323505
O            0.40462943515699        2.06811012778114       -0.78886303144046
N           -1.31445140515654        1.07755723996346        0.33263404628935
C           -2.26042471457629        2.12351629511795       -0.00653715264096
C           -1.68975912668153        0.06767248026128        1.32491888066098
O           -2.85965612687768        0.14236287942004        1.68545413110164
N           -0.84094658086256       -1.96513768821854       -0.22098590538821
C           -1.32356115516438       -2.81561518513179       -1.01348365983180
H            2.79484945091854        1.50355149326357        1.23246143161962
H            3.99008080725132        0.85838559198862        0.08616054569719
H            2.62647043112275        1.85736076918637       -0.48907426775095
H            3.63287228465468       -1.60945059691312        0.03319027316735
H           -1.73584374668412        2.92511220335992       -0.51919946251409
H           -3.03894823102527        1.71302655778765       -0.64862518069858
H           -2.72511492654693        2.49268265743936        0.90613596559722
H           -1.37559238926754       -0.19228411026087        1.44252299654637
H           -0.81252534651305       -3.21400150526571       -1.89044637075458
H           -2.33236166102096       -3.15236229864562       -0.82099695937687
H            1.64360015597021       -3.16886382717122       -0.27671481479654

          :  Hamiltonian                  GFN2-xTB          :
         :: total energy             -59.732919062448 Eh    ::
         :: gradient norm              0.002664432669 Eh/a0 ::
         :: HOMO-LUMO gap              2.475007098230 eV    ::
         :: SCC energy               -42.699783604653 Eh    ::
         :: -> dispersion             -0.022332700471 Eh    ::
         :: repulsion energy           2.280953045853 Eh    ::

    * Orbital Energies and Occupations

         #    Occupation            Energy/Eh            Energy/eV
      -------------------------------------------------------------
         1        2.0000           -0.9168651             -24.9492
       ...           ...                  ...                  ...
        25        2.0000           -0.6686361             -18.1945
        26        2.0000           -0.6579777             -17.9045
        27        2.0000           -0.6544385             -17.8082
        28        2.0000           -0.6456055             -17.5678
        29        2.0000           -0.6413935             -17.4532
        30        2.0000           -0.6219158             -16.9232
        31        2.0000           -0.6166270             -16.7793
        32        2.0000           -0.6067393             -16.5102
        33        2.0000           -0.5893152             -16.0361
        34        1.9997           -0.5676448             -15.4464
        35        1.9989           -0.5576937             -15.1756
        36        1.9964           -0.5480911             -14.9143
        37        1.9955           -0.5464127             -14.8686 (HOMO)
        38        0.0091           -0.4554578             -12.3936 (LUMO)
        39        0.0005           -0.4321183             -11.7585
        40        0.0000           -0.4058427             -11.0435
        41        0.0000           -0.3772147             -10.2645
        42                         -0.3271815              -8.9031
        43                         -0.1909665              -5.1965
        44                         -0.1749206              -4.7598
        45                         -0.1359351              -3.6990
        46                         -0.0854081              -2.3241
        47                         -0.0592308              -1.6118
        48                         -0.0493128              -1.3419
       ...                                ...                  ...
        67                         10.6091146             288.6887
      -------------------------------------------------------------
                  HL-Gap            0.0909548 Eh            2.4750 eV

     #   Z          covCN         q      C6AA      α(0)
     1   6 C        3.693    -0.094    22.492     6.786
     2   7 N        2.852     0.093    19.625     6.580
     3   6 C        3.036     0.060    26.612     8.461
     4   7 N        2.810    -0.056    22.322     7.017
     5   6 C        3.026     0.124    25.254     8.243
     6   6 C        3.097    -0.019    28.366     8.729
     7   6 C        2.762     0.276    22.339     7.740
     8   8 O        0.859    -0.365    20.991     6.143
     9   7 N        2.739    -0.101    23.212     7.156
    10   6 C        3.696    -0.061    21.846     6.686
    11   6 C        2.702     0.190    23.939     8.008
    12   8 O        0.867    -0.311    19.969     5.992
    13   7 N        1.824    -0.144    24.908     7.395
    14   6 C        2.790     0.051    26.842     8.487
    15   1 H        0.924     0.111     1.684     2.029
    16   1 H        0.925     0.102     1.764     2.077
    17   1 H        0.924     0.142     1.450     1.883
    18   1 H        0.926     0.127     1.561     1.954
    19   1 H        0.925     0.100     1.784     2.089
    20   1 H        0.925     0.089     1.886     2.148
    21   1 H        0.925     0.098     1.806     2.102
    22   1 H        0.946     0.159     1.328     1.801
    23   1 H        0.924     0.076     2.020     2.223
    24   1 H        0.926     0.124     1.580     1.965
    25   1 H        0.860     0.228     0.972     1.545

Wiberg/Mayer (AO) data.
largest (>0.10) Wiberg bond orders for each atom

     #   Z sym  total        # sym  WBO       # sym  WBO       # sym  WBO
 ---------------------------------------------------------------------------
     1   6 C    3.916 --     2 N    0.986    16 H    0.974    15 H    0.955
                            17 H    0.948
     2   7 N    3.735 --     3 C    1.410     6 C    1.188     1 C    0.986
     3   6 C    3.941 --     2 N    1.410     4 N    1.316    18 H    0.950
     4   7 N    3.623 --     3 C    1.316     5 C    1.164    25 H    0.920
     5   6 C    3.954 --     6 C    1.408    13 N    1.191     4 N    1.164
     6   6 C    3.927 --     5 C    1.408     2 N    1.188     7 C    0.973
     7   6 C    3.965 --     8 O    1.705     9 N    1.195     6 C    0.973
     8   8 O    2.079 --     7 C    1.705     9 N    0.159
     9   7 N    3.580 --     7 C    1.195    11 C    1.043    10 C    0.980
                            12 O    0.164     8 O    0.159
    10   6 C    3.933 --     9 N    0.980    19 H    0.972    21 H    0.968
                            20 H    0.964
    11   6 C    3.926 --    12 O    1.848     9 N    1.043    22 H    0.961
    12   8 O    2.109 --    11 C    1.848     9 N    0.164
    13   7 N    3.256 --    14 C    1.878     5 C    1.191
    14   6 C    3.909 --    13 N    1.878    24 H    0.956    23 H    0.951
    15   1 H    0.987 --     1 C    0.955
    16   1 H    0.989 --     1 C    0.974
    17   1 H    0.980 --     1 C    0.948
    18   1 H    0.983 --     3 C    0.950
    19   1 H    0.990 --    10 C    0.972
    20   1 H    0.990 --    10 C    0.964
    21   1 H    0.989 --    10 C    0.968
    22   1 H    0.974 --    11 C    0.961
    23   1 H    0.993 --    14 C    0.951
    24   1 H    0.984 --    14 C    0.956
    25   1 H    0.947 --     4 N    0.920
 ---------------------------------------------------------------------------

molecular dipole:
                 x           y           z       tot (Debye)
 q only:        2.647      -2.277      -0.259
   full:        3.057      -2.869      -0.475      10.725

           -------------------------------------------------
          | TOTAL ENERGY              -59.732919062448 Eh   |
          | GRADIENT NORM               0.002664432669 Eh/α |
          | HOMO-LUMO GAP               2.475007098230 eV   |
           -------------------------------------------------

 * finished run on 2024/06/05 at 19:58:14.923
