   * xtb version 6.6.1 (8d0f1dd) compiled by 'conda@1efc2f54142f' on 2023-08-01
          program call               : xtb xtbopt.xyz --opt crude --input .xc2 --gfn2

   ID    Z sym.   atoms
    1    6 C      1, 3, 5-7, 10, 11, 14
    2    7 N      2, 4, 9, 13
    3    8 O      8, 12
    4    1 H      15-25
########################################################################
[WARNING] Please study the warnings concerning your input carefully
-1- readin_getIntValue: could not parse ''
########################################################################

          :  Hamiltonian                  GFN2-xTB          :
 * total energy  :   -40.4186214 Eh     change       -0.9237056E-13 Eh
 * total energy  :   -42.1105837 Eh     change       -0.1691962E+01 Eh
 * total energy  :   -42.1405830 Eh     change       -0.2999933E-01 Eh
 * total energy  :   -42.1475745 Eh     change       -0.6991479E-02 Eh
 * total energy  :   -42.1508237 Eh     change       -0.3249231E-02 Eh
 * total energy  :   -42.1514832 Eh     change       -0.6595142E-03 Eh
 * total energy  :   -42.1522170 Eh     change       -0.7337215E-03 Eh
 * total energy  :   -42.1527389 Eh     change       -0.5219615E-03 Eh
 * total energy  :   -42.1532961 Eh     change       -0.5571432E-03 Eh
 * total energy  :   -42.1534313 Eh     change       -0.1352770E-03 Eh
   *** GEOMETRY OPTIMIZATION CONVERGED AFTER 10 ITERATIONS ***

 final structure:
================
25
 xtb: 6.6.1 (8d0f1dd)
C            2.88085733032666        1.09965850741005        0.27667616383345
N            2.10654835130759       -0.09451479432798        0.06893406002839
C            2.58573844544033       -1.32050573931579       -0.03510829929366
N            1.57307333942828       -2.17308681117353       -0.24019256472214
C            0.39017320751928       -1.46795182420740       -0.23538031425324
C            0.73500340880656       -0.14084028994935       -0.01081325362887
C           -0.08811118190653        1.09739597503024       -0.20658920493721
O            0.35515555231088        1.98661287527835       -0.89563819213266
N           -1.32838890867977        1.11176168078476        0.35941751124008
C           -2.26090391805902        2.15130615979858       -0.05066527986491
C           -1.74281704353556        0.27186528401857        1.38307013645230
O           -2.84514935163594        0.29183930676444        1.83323502704847
N           -0.84105578126546       -2.01700740190769       -0.26950704687688
C           -1.31718417098973       -2.84640301865589       -1.08686409084972
H            2.69295413994066        1.50095905299847        1.27373018924809
H            3.93913135406709        0.87486344088983        0.17189180602613
H            2.58526535030184        1.85358190285425       -0.45475848098056
H            3.62024304205302       -1.59544448917450        0.04182710785279
H           -1.71673719887211        2.91896511357395       -0.59511370693046
H           -3.03283921370636        1.72157166883176       -0.68901495511601
H           -2.73658647714041        2.57612902341022        0.83085662296226
H           -0.93534788345708       -0.37159098703997        1.76010239902059
H           -0.81002225324195       -3.20281177783056       -1.98308370413467
H           -2.30618599698555       -3.23195897136589       -0.88055057004880
H            1.65761737207265       -3.17615534509577       -0.33528974204228

          :  Hamiltonian                  GFN2-xTB          :
         :: total energy             -42.153431348659 Eh    ::
         :: gradient norm              0.004225225872 Eh/a0 ::
         :: HOMO-LUMO gap              2.484407258787 eV    ::
         :: SCC energy               -42.700208652023 Eh    ::
         :: -> dispersion             -0.022294282703 Eh    ::
         :: repulsion energy           0.546554767395 Eh    ::

    * Orbital Energies and Occupations

         #    Occupation            Energy/Eh            Energy/eV
      -------------------------------------------------------------
         1        2.0000           -0.9164222             -24.9371
       ...           ...                  ...                  ...
        25        2.0000           -0.6688404             -18.2001
        26        2.0000           -0.6552835             -17.8312
        27        2.0000           -0.6544076             -17.8073
        28        2.0000           -0.6459276             -17.5766
        29        2.0000           -0.6419250             -17.4677
        30        2.0000           -0.6232247             -16.9588
        31        2.0000           -0.6178779             -16.8133
        32        2.0000           -0.6076118             -16.5340
        33        2.0000           -0.5928698             -16.1328
        34        1.9998           -0.5703739             -15.5207
        35        1.9989           -0.5559264             -15.1275
        36        1.9976           -0.5495944             -14.9552
        37        1.9951           -0.5440131             -14.8034 (HOMO)
        38        0.0080           -0.4527128             -12.3189 (LUMO)
        39        0.0005           -0.4312094             -11.7338
        40        0.0000           -0.3996276             -10.8744
        41        0.0000           -0.3646354              -9.9222
        42                         -0.3249738              -8.8430
        43                         -0.1901642              -5.1746
        44                         -0.1743217              -4.7435
        45                         -0.1239925              -3.3740
        46                         -0.0698555              -1.9009
        47                         -0.0600419              -1.6338
        48                         -0.0401376              -1.0922
       ...                                ...                  ...
        67                          0.5412026              14.7269
      -------------------------------------------------------------
                  HL-Gap            0.0913003 Eh            2.4844 eV

     #   Z          covCN         q      C6AA      α(0)
     1   6 C        3.693    -0.094    22.475     6.783
     2   7 N        2.852     0.092    19.656     6.585
     3   6 C        3.032     0.060    26.618     8.463
     4   7 N        2.811    -0.057    22.336     7.019
     5   6 C        3.023     0.127    25.193     8.233
     6   6 C        3.095    -0.017    28.322     8.722
     7   6 C        2.766     0.276    22.336     7.740
     8   8 O        0.859    -0.361    20.921     6.132
     9   7 N        2.733    -0.064    22.485     7.043
    10   6 C        3.707    -0.064    21.880     6.686
    11   6 C        2.711     0.249    22.826     7.820
    12   8 O        0.858    -0.291    19.628     5.940
    13   7 N        1.824    -0.138    24.766     7.374
    14   6 C        2.790     0.050    26.852     8.488
    15   1 H        0.924     0.110     1.696     2.037
    16   1 H        0.925     0.103     1.757     2.073
    17   1 H        0.924     0.139     1.469     1.896
    18   1 H        0.926     0.127     1.560     1.953
    19   1 H        0.925     0.103     1.755     2.072
    20   1 H        0.925     0.089     1.885     2.147
    21   1 H        0.925     0.100     1.789     2.092
    22   1 H        0.923     0.032     2.552     2.498
    23   1 H        0.925     0.077     2.011     2.218
    24   1 H        0.925     0.124     1.580     1.966
    25   1 H        0.860     0.228     0.972     1.544

Wiberg/Mayer (AO) data.
largest (>0.10) Wiberg bond orders for each atom

     #   Z sym  total        # sym  WBO       # sym  WBO       # sym  WBO
 ---------------------------------------------------------------------------
     1   6 C    3.918 --     2 N    0.986    16 H    0.974    15 H    0.956
                            17 H    0.949
     2   7 N    3.733 --     3 C    1.408     6 C    1.187     1 C    0.986
     3   6 C    3.940 --     2 N    1.408     4 N    1.315    18 H    0.950
     4   7 N    3.621 --     3 C    1.315     5 C    1.162    25 H    0.920
     5   6 C    3.955 --     6 C    1.400    13 N    1.198     4 N    1.162
     6   6 C    3.927 --     5 C    1.400     2 N    1.187     7 C    0.972
     7   6 C    3.964 --     8 O    1.711     9 N    1.185     6 C    0.972
     8   8 O    2.081 --     7 C    1.711     9 N    0.158
     9   7 N    3.600 --     7 C    1.185    11 C    1.111    10 C    0.966
                             8 O    0.158    12 O    0.138
    10   6 C    3.928 --    19 H    0.972    21 H    0.971    20 H    0.967
                             9 N    0.966
    11   6 C    3.945 --    12 O    1.858     9 N    1.111    22 H    0.918
    12   8 O    2.129 --    11 C    1.858     9 N    0.138
    13   7 N    3.266 --    14 C    1.883     5 C    1.198
    14   6 C    3.910 --    13 N    1.883    24 H    0.955    23 H    0.951
    15   1 H    0.988 --     1 C    0.956
    16   1 H    0.989 --     1 C    0.974
    17   1 H    0.980 --     1 C    0.949
    18   1 H    0.983 --     3 C    0.950
    19   1 H    0.989 --    10 C    0.972
    20   1 H    0.991 --    10 C    0.967
    21   1 H    0.989 --    10 C    0.971
    22   1 H    0.998 --    11 C    0.918
    23   1 H    0.993 --    14 C    0.951
    24   1 H    0.984 --    14 C    0.955
    25   1 H    0.947 --     4 N    0.920
 ---------------------------------------------------------------------------

molecular dipole:
                 x           y           z       tot (Debye)
 q only:        2.550      -2.118      -0.417
   full:        3.003      -2.729      -0.611      10.430

           -------------------------------------------------
          | TOTAL ENERGY              -42.153431348659 Eh   |
          | GRADIENT NORM               0.004225225872 Eh/α |
          | HOMO-LUMO GAP               2.484407258787 eV   |
           -------------------------------------------------

 * finished run on 2024/06/05 at 19:58:15.334
