   * xtb version 6.6.1 (8d0f1dd) compiled by 'conda@1efc2f54142f' on 2023-08-01
          program call               : xtb xtbopt.xyz --opt crude --input .xc2 --gfn2

   ID    Z sym.   atoms
    1    6 C      1, 3, 5-7, 10, 11, 14
    2    7 N      2, 4, 9, 13
    3    8 O      8, 12
    4    1 H      15-25
########################################################################
[WARNING] Please study the warnings concerning your input carefully
-1- readin_getIntValue: could not parse ''
########################################################################

          :  Hamiltonian                  GFN2-xTB          :
 * total energy  :   -42.1062097 Eh     change       -0.5613288E-11 Eh
   *** GEOMETRY OPTIMIZATION CONVERGED AFTER 1 ITERATIONS ***

 final structure:
================
25
 xtb: 6.6.1 (8d0f1dd)
C            3.42433072940810        0.87883228400678        0.33898559527573
N            2.08604196144998        1.25501871907176        0.32642494725398
C            1.97770234354699       -2.57917891249184       -0.49327816838925
N            1.67114055313841       -1.57383850263073        0.24827555064989
C            0.60348496952282       -0.65876711537716        0.13614027161707
C            0.91908111570969        0.71979334262683        0.22363676715894
C           -0.21135071252715        1.69600389968015        0.15612099139116
O           -0.05215942906800        2.88469248528849        0.26985201399407
N           -1.45884553063574        1.13877484024550       -0.06576631708693
C           -2.59862274959119        2.03536339507410       -0.16389834936185
C           -1.74338781784293       -0.20394715137489       -0.19192223854904
O           -2.86265291735414       -0.60879419690606       -0.38052431166135
N           -0.66796284489748       -1.09384878133151       -0.07094297380693
C           -1.01862125369252       -2.50058149056262       -0.10283570898937
H            3.75399652568019        0.63726244752383        1.35727117078166
H            3.66822617440317        0.05003491745325       -0.33849342523564
H            4.00330494701815        1.75622836731758        0.02852246833709
H            1.37802367475888       -2.88152111635000       -1.33779879319164
H           -2.22875440160639        3.05750247887442       -0.22997313178508
H           -3.19030356976486        1.78050875783222       -1.04404706962497
H           -3.23538179187280        1.93002277226365        0.71704447255321
H           -0.39080770013838       -3.07372500616628        0.57757946470550
H           -0.93300221684345       -2.90031845884939       -1.11609169530505
H           -2.06443381566610       -2.59224282709970        0.19601749836685
H            2.33138527096602       -1.33503660651900        0.99087258880440

          :  Hamiltonian                  GFN2-xTB          :
         :: total energy             -42.106209734551 Eh    ::
         :: gradient norm              0.006201228934 Eh/a0 ::
         :: HOMO-LUMO gap              0.519764609901 eV    ::
         :: SCC energy               -42.617627593227 Eh    ::
         :: -> dispersion             -0.022355912400 Eh    ::
         :: repulsion energy           0.511281908818 Eh    ::

    * Orbital Energies and Occupations

         #    Occupation            Energy/Eh            Energy/eV
      -------------------------------------------------------------
         1        2.0000           -0.8985056             -24.4496
       ...           ...                  ...                  ...
        25        1.9982           -0.6806204             -18.5206
        26        1.9974           -0.6720110             -18.2864
        27        1.9951           -0.6566212             -17.8676
        28        1.9939           -0.6516000             -17.7309
        29        1.9917           -0.6441867             -17.5292
        30        1.9886           -0.6365534             -17.3215
        31        1.9776           -0.6203307             -16.8801
        32        1.9623           -0.6078232             -16.5397
        33        1.9516           -0.6017247             -16.3738
        34        1.9017           -0.5842796             -15.8991
        35        1.8957           -0.5828094             -15.8591
        36        1.6090           -0.5475275             -14.8990
        37        1.4587           -0.5374716             -14.6253 (HOMO)
        38        1.0932           -0.5183706             -14.1056 (LUMO)
        39        0.1502           -0.4542876             -12.3618
        40        0.0316           -0.4157722             -11.3137
        41        0.0107           -0.3897771             -10.6064
        42        0.0003           -0.3053266              -8.3084
        43        0.0000           -0.2130659              -5.7978
        44        0.0000           -0.1739991              -4.7348
        45        0.0000           -0.1569219              -4.2701
        46                         -0.1091664              -2.9706
        47                         -0.0812711              -2.2115
        48                         -0.0336538              -0.9158
       ...                                ...                  ...
        67                          0.5536865              15.0666
      -------------------------------------------------------------
                  HL-Gap            0.0191010 Eh            0.5198 eV

     #   Z          covCN         q      C6AA      α(0)
     1   6 C        3.683    -0.051    21.710     6.672
     2   7 N        1.837    -0.105    24.061     7.269
     3   6 C        1.845    -0.071    33.078     9.291
     4   7 N        2.686    -0.009    21.443     6.877
     5   6 C        2.837     0.077    26.279     8.401
     6   6 C        2.884     0.046    26.957     8.512
     7   6 C        2.778     0.269    22.453     7.761
     8   8 O        0.858    -0.285    19.520     5.924
     9   7 N        2.738    -0.062    22.443     7.036
    10   6 C        3.709    -0.064    21.868     6.684
    11   6 C        2.727     0.314    21.662     7.620
    12   8 O        0.860    -0.338    20.472     6.066
    13   7 N        2.738    -0.028    21.789     6.933
    14   6 C        3.702    -0.069    21.978     6.703
    15   1 H        0.924     0.111     1.690     2.033
    16   1 H        0.924     0.090     1.876     2.142
    17   1 H        0.924     0.135     1.501     1.916
    18   1 H        0.926     0.111     1.689     2.032
    19   1 H        0.925     0.128     1.552     1.948
    20   1 H        0.924     0.120     1.613     1.986
    21   1 H        0.924     0.116     1.644     2.005
    22   1 H        0.925     0.095     1.836     2.119
    23   1 H        0.924     0.105     1.741     2.063
    24   1 H        0.924     0.130     1.534     1.937
    25   1 H        0.860     0.235     0.943     1.521

Wiberg/Mayer (AO) data.
largest (>0.10) Wiberg bond orders for each atom

     #   Z sym  total        # sym  WBO       # sym  WBO       # sym  WBO
 ---------------------------------------------------------------------------
     1   6 C    3.885 --     2 N    1.094    16 H    0.921    17 H    0.917
                            15 H    0.912
     2   7 N    2.714 --     6 C    1.518     1 C    1.094
     3   6 C    2.616 --     4 N    1.597    18 H    0.925
     4   7 N    3.592 --     3 C    1.597     5 C    1.035    25 H    0.889
     5   6 C    3.604 --    13 N    1.210     6 C    1.202     4 N    1.035
     6   6 C    3.875 --     2 N    1.518     5 C    1.202     7 C    0.962
     7   6 C    3.883 --     8 O    1.720     9 N    1.113     6 C    0.962
     8   8 O    1.975 --     7 C    1.720     9 N    0.123
     9   7 N    3.496 --    11 C    1.115     7 C    1.113    10 C    0.973
                             8 O    0.123    12 O    0.114
    10   6 C    3.853 --     9 N    0.973    19 H    0.952    20 H    0.946
                            21 H    0.940
    11   6 C    3.922 --    12 O    1.667     9 N    1.115    13 N    1.056
    12   8 O    1.954 --    11 C    1.667     9 N    0.114    13 N    0.101
    13   7 N    3.467 --     5 C    1.210    11 C    1.056    14 C    0.980
                            12 O    0.101
    14   6 C    3.893 --    13 N    0.980    22 H    0.964    24 H    0.952
                            23 H    0.948
    15   1 H    0.940 --     1 C    0.912
    16   1 H    0.937 --     1 C    0.921
    17   1 H    0.932 --     1 C    0.917
    18   1 H    0.947 --     3 C    0.925
    19   1 H    0.969 --    10 C    0.952
    20   1 H    0.962 --    10 C    0.946
    21   1 H    0.958 --    10 C    0.940
    22   1 H    0.981 --    14 C    0.964
    23   1 H    0.968 --    14 C    0.948
    24   1 H    0.973 --    14 C    0.952
    25   1 H    0.923 --     4 N    0.889
 ---------------------------------------------------------------------------

molecular dipole:
                 x           y           z       tot (Debye)
 q only:        1.511      -1.220       0.300
   full:        1.543      -1.404       0.309       5.359

           -------------------------------------------------
          | TOTAL ENERGY              -42.106209734551 Eh   |
          | GRADIENT NORM               0.006201228934 Eh/α |
          | HOMO-LUMO GAP               0.519764609901 eV   |
           -------------------------------------------------

 * finished run on 2024/06/05 at 19:58:43.475
