   * xtb version 6.6.1 (8d0f1dd) compiled by 'conda@1efc2f54142f' on 2023-08-01
          program call               : xtb struc.xyz --opt loose --input .xc1 --gfn2

   ID    Z sym.   atoms
    1    7 N      1, 17
    2    6 C      2-6, 8, 9, 11-16, 18-23, 25, 26, 28-33
    3    8 O      7, 10, 24, 27
    4    1 H      34-72
constraining bond 22 26 to    5.0000000 Å, actual value:    2.4170030 Å

          :  Hamiltonian                  GFN2-xTB          :
 * total energy  :   -98.2128465 Eh     change       -0.4035485E-08 Eh
 * total energy  :   -98.4665078 Eh     change       -0.2536613E+00 Eh
 * total energy  :   -98.6325900 Eh     change       -0.1660822E+00 Eh
 * total energy  :   -98.7320308 Eh     change       -0.9944084E-01 Eh
 * total energy  :   -98.8024339 Eh     change       -0.7040310E-01 Eh
 * total energy  :   -98.8558801 Eh     change       -0.5344618E-01 Eh
 * total energy  :   -98.8913404 Eh     change       -0.3546033E-01 Eh
 * total energy  :   -98.9121262 Eh     change       -0.2078580E-01 Eh
 * total energy  :   -98.9302680 Eh     change       -0.1814177E-01 Eh
 * total energy  :   -98.9420772 Eh     change       -0.1180922E-01 Eh
 * total energy  :   -99.1998425 Eh     change       -0.1403917E-03 Eh
 * total energy  :   -99.1999681 Eh     change       -0.1255954E-03 Eh
 * total energy  :   -99.2001875 Eh     change       -0.2194630E-03 Eh
 * total energy  :   -99.2003103 Eh     change       -0.1227618E-03 Eh
 * total energy  :   -99.2004708 Eh     change       -0.1605499E-03 Eh
 * total energy  :   -99.2006487 Eh     change       -0.1778528E-03 Eh
 * total energy  :   -99.2007579 Eh     change       -0.1092309E-03 Eh
 * total energy  :   -99.2008373 Eh     change       -0.7939025E-04 Eh
 * total energy  :   -99.2008668 Eh     change       -0.2951781E-04 Eh
   *** GEOMETRY OPTIMIZATION CONVERGED AFTER 105 ITERATIONS ***

 final structure:
================
72
 xtb: 6.6.1 (8d0f1dd)
N           -1.68829547053444        2.80962987595065        2.12946054720796
C           -1.64767520780345        1.99437591136396        1.18358079387334
C           -2.76310218233701        1.76663746607933        0.20120165841943
C           -3.26082205076522        0.33413693604181        0.32530832982244
C           -4.13546018334683       -0.18194411574200       -0.63306015751934
C           -4.63227252399374       -1.47092508718105       -0.54036074540597
O           -5.48562446193828       -2.04253923545125       -1.41696002055885
C           -6.00797582312702       -1.27086012100390       -2.47216336727631
C           -4.24013813093156       -2.29514861287730        0.54782903326938
O           -4.76731342185643       -3.53726702857273        0.55467955323232
C           -4.50152410903599       -4.38651549005654        1.64588216125431
C           -3.37530739954658       -1.77588720102690        1.49739662885964
C           -2.89566320816136       -0.47698599032970        1.38782700709664
C           -2.14697236400495        1.99149211527110       -1.20516220051516
C           -1.18775106841949        0.87846181915159       -1.66148629808567
C            0.12501826374040        0.93661645027097       -0.98257647037933
N            0.82854608835275       -0.11153212558985       -0.57679725863836
C            2.14898538511579        0.06492646885342       -0.02330870920889
C            3.25603682082655       -0.23987272519324       -1.05085866716501
C            4.60046496611719        0.07010753904187       -0.42248977667364
C            5.07179558666267        1.34599621475389       -0.69061858912854
C            6.20351800796051        2.19948773019885       -0.39206862451875
C            7.19352308847064        1.88700352218974        0.45443291447529
O            8.36477501386841        2.30406793357753        0.75281699307340
C            9.12579475665760        3.10227111368906       -0.17252444715259
C            4.61832625524006       -2.27347074443109        0.60110311605787
O            3.48031307858632       -2.88878167036403        0.34296667812298
C            3.51646945735696       -4.31257976847420        0.33401296680681
C            5.09488643761651       -1.02157016330593        0.41954490729283
C            0.33578330668512       -1.46181424543018       -0.69709190269778
C           -3.97448993622456        2.72249707583030        0.40861613632898
C           -4.64640493920880        2.48364743828494        1.75890294303419
C           -3.60955495906762        4.19802692048490        0.26890712358967
H           -4.44432427393559        0.43988386807161       -1.45673792287251
H           -6.54999152658676       -0.39629205553458       -2.09977955042668
H           -6.70029941941726       -1.92592337698924       -2.99730937868860
H           -5.22262867448361       -0.94864047209749       -3.16391698315186
H           -4.84149310918754       -3.94689553297571        2.58827130112838
H           -5.06279998782327       -5.29800004148641        1.44992137916594
H           -3.43580363302021       -4.62669561158355        1.71850431829385
H           -3.07616446978545       -2.37134073085880        2.34466583812574
H           -2.25032907260188       -0.09806374297005        2.16516742473039
H           -2.95593716023488        2.06508532823097       -1.93098907936782
H           -1.61519992053086        2.94354133605439       -1.20848872739860
H           -1.66345568687790       -0.09256194337564       -1.52976258880556
H           -1.01732721961774        1.02177931558602       -2.73669227958519
H           -0.75914658237574        1.38202387801489        0.94009255518522
H            0.60848714382061        1.89953617766815       -0.90954692618331
H            2.26779245986685       -0.59674944621402        0.83674730281438
H            2.26298877638039        1.09673041854299        0.31704047797983
H            3.08454161409595        0.36585857193256       -1.94170899192159
H            3.20494711482532       -1.28856139909585       -1.33883628676805
H            4.39368082598557        1.87941118357058       -1.35204533798127
H            6.13857155853753        3.20103637249445       -0.81416193829206
H            8.75683931005273        4.12943564077964       -0.14565897230438
H            9.03672516086662        2.70492855939270       -1.18474551598206
H           10.15904391269258        3.06699048225149        0.16278104332118
H            4.43314747799565       -4.67785299133516       -0.12649017010967
H            3.44851283283521       -4.69077581624115        1.35472029361311
H            2.65127516986668       -4.64562067558370       -0.23647411259973
H            6.02747118539112       -0.79805062264162        0.92551122703741
H            0.13763706219568       -1.71512920090210       -1.74028975360098
H           -0.58837966348468       -1.58638612808546       -0.12603864420559
H            1.08487183857552       -2.14558937760095       -0.30647510731107
H           -4.70015316186496        2.47719866109636       -0.37546682595191
H           -3.96483515192379        2.73879801529920        2.56387142331006
H           -4.95048214178377        1.44545663283262        1.86816074914531
H           -5.53066661325243        3.10987210800868        1.84217816727437
H           -2.85786241912334        4.47062439169489        1.00298608781051
H           -3.24325911505070        4.43388632266290       -0.72674508834691
H           -4.49500506532112        4.80202084089525        0.44858693776788
H           -0.86236285165802        2.89748237694845        2.71347624082402

          :  Hamiltonian                  GFN2-xTB          :
         :: total energy             -99.200866825791 Eh    ::
         :: gradient norm              0.003763223834 Eh/a0 ::
         :: HOMO-LUMO gap              0.195315538832 eV    ::
         :: SCC energy              -100.561818982022 Eh    ::
         :: -> dispersion             -0.073432934642 Eh    ::
         :: repulsion energy           1.355463552270 Eh    ::

    * Orbital Energies and Occupations

         #    Occupation            Energy/Eh            Energy/eV
      -------------------------------------------------------------
         1        2.0000           -0.8256288             -22.4665
       ...           ...                  ...                  ...
        78        1.9986           -0.5247923             -14.2803
        79        1.9985           -0.5237549             -14.2521
        80        1.9984           -0.5232890             -14.2394
        81        1.9977           -0.5171305             -14.0718
        82        1.9964           -0.5100496             -13.8792
        83        1.9958           -0.5076024             -13.8126
        84        1.9950           -0.5047882             -13.7360
        85        1.9908           -0.4951185             -13.4729
        86        1.9825           -0.4849184             -13.1953
        87        1.9431           -0.4659157             -12.6782
        88        1.8832           -0.4540524             -12.3554
        89        1.8182           -0.4464834             -12.1494
        90        1.0942           -0.4130138             -11.2387 (HOMO)
        91        0.8686           -0.4058361             -11.0434 (LUMO)
        92        0.3936           -0.3877528             -10.5513
        93        0.0293           -0.3433581              -9.3433
        94        0.0156           -0.3333302              -9.0704
        95        0.0038           -0.3107324              -8.4555
        96        0.0031           -0.3074241              -8.3654
        97        0.0003           -0.2689832              -7.3194
        98        0.0000           -0.2194547              -5.9717
        99        0.0000           -0.1847821              -5.0282
       100                         -0.1291880              -3.5154
       101                         -0.0851504              -2.3171
       ...                                ...                  ...
       171                          0.6143101              16.7162
      -------------------------------------------------------------
                  HL-Gap            0.0071777 Eh            0.1953 eV

     #   Z          covCN         q      C6AA      α(0)
     1   7 N        1.774    -0.272    27.884     7.820
     2   6 C        2.827     0.101    25.753     8.316
     3   6 C        3.908     0.006    20.416     6.422
     4   6 C        2.975     0.001    27.997     8.679
     5   6 C        2.921    -0.080    30.003     8.982
     6   6 C        2.862     0.129    25.180     8.225
     7   8 O        1.706    -0.233    17.858     5.706
     8   6 C        3.644     0.029    20.430     6.497
     9   6 C        2.864     0.128    25.197     8.228
    10   8 O        1.706    -0.232    17.838     5.702
    11   6 C        3.645     0.028    20.436     6.497
    12   6 C        2.914    -0.074    29.852     8.959
    13   6 C        2.922    -0.053    29.311     8.878
    14   6 C        3.813    -0.064    21.727     6.635
    15   6 C        3.802    -0.068    21.809     6.649
    16   6 C        2.845     0.006    27.872     8.652
    17   7 N        2.729     0.014    21.017     6.809
    18   6 C        3.758    -0.017    20.933     6.523
    19   6 C        3.815    -0.072    21.862     6.655
    20   6 C        2.942     0.009    27.812     8.649
    21   6 C        2.901    -0.044    29.084     8.843
    22   6 C        2.885    -0.062    29.542     8.911
    23   6 C        1.867     0.074    29.259     8.737
    24   8 O        1.702    -0.155    16.647     5.509
    25   6 C        3.645     0.011    20.736     6.544
    26   6 C        1.874     0.046    29.961     8.841
    27   8 O        1.703    -0.205    17.407     5.633
    28   6 C        3.660     0.022    20.476     6.493
    29   6 C        2.890    -0.067    29.670     8.930
    30   6 C        3.700    -0.071    22.024     6.711
    31   6 C        3.853    -0.007    20.673     6.467
    32   6 C        3.756    -0.118    22.811     6.810
    33   6 C        3.755    -0.119    22.832     6.813
    34   1 H        0.926     0.050     2.315     2.379
    35   1 H        0.924     0.053     2.288     2.365
    36   1 H        0.925     0.080     1.983     2.202
    37   1 H        0.924     0.046     2.374     2.410
    38   1 H        0.924     0.054     2.272     2.357
    39   1 H        0.925     0.079     1.985     2.203
    40   1 H        0.924     0.047     2.363     2.404
    41   1 H        0.926     0.051     2.311     2.377
    42   1 H        0.926     0.038     2.472     2.459
    43   1 H        0.925     0.059     2.209     2.324
    44   1 H        0.924     0.053     2.284     2.363
    45   1 H        0.925     0.067     2.122     2.278
    46   1 H        0.923     0.077     2.009     2.217
    47   1 H        0.922     0.005     2.981     2.700
    48   1 H        0.926     0.068     2.105     2.269
    49   1 H        0.924     0.077     2.014     2.219
    50   1 H        0.924     0.063     2.164     2.301
    51   1 H        0.924     0.045     2.385     2.415
    52   1 H        0.925     0.064     2.157     2.297
    53   1 H        0.925     0.042     2.416     2.431
    54   1 H        0.925     0.065     2.137     2.286
    55   1 H        0.924     0.071     2.074     2.252
    56   1 H        0.924     0.065     2.141     2.288
    57   1 H        0.925     0.088     1.898     2.155
    58   1 H        0.925     0.067     2.117     2.275
    59   1 H        0.924     0.068     2.106     2.269
    60   1 H        0.925     0.067     2.124     2.279
    61   1 H        0.925     0.071     2.070     2.250
    62   1 H        0.924     0.075     2.036     2.231
    63   1 H        0.924     0.075     2.029     2.228
    64   1 H        0.925     0.090     1.879     2.143
    65   1 H        0.924     0.036     2.504     2.475
    66   1 H        0.925     0.067     2.120     2.277
    67   1 H        0.925     0.035     2.520     2.482
    68   1 H        0.925     0.050     2.322     2.383
    69   1 H        0.925     0.062     2.178     2.308
    70   1 H        0.925     0.033     2.539     2.492
    71   1 H        0.925     0.053     2.280     2.361
    72   1 H        0.860     0.155     1.371     1.834

Wiberg/Mayer (AO) data.
largest (>0.10) Wiberg bond orders for each atom

     #   Z sym  total        # sym  WBO       # sym  WBO       # sym  WBO
 ---------------------------------------------------------------------------
     1   7 N    3.036 --     2 C    1.953    72 H    0.943
     2   6 C    3.929 --     1 N    1.953     3 C    0.995    47 H    0.903
     3   6 C    3.977 --     2 C    0.995     4 C    0.970    14 C    0.956
                            31 C    0.944
     4   6 C    3.951 --    13 C    1.417     5 C    1.368     3 C    0.970
     5   6 C    3.964 --     6 C    1.403     4 C    1.368    34 H    0.958
     6   6 C    3.907 --     5 C    1.403     9 C    1.225     7 O    1.095
     7   8 O    2.252 --     6 C    1.095     8 C    0.979
     8   6 C    3.934 --     7 O    0.979    36 H    0.977    35 H    0.974
                            37 H    0.974
     9   6 C    3.904 --    12 C    1.394     6 C    1.225    10 O    1.097
    10   8 O    2.251 --     9 C    1.097    11 C    0.979
    11   6 C    3.933 --    10 O    0.979    39 H    0.977    40 H    0.974
                            38 H    0.974
    12   6 C    3.964 --    13 C    1.405     9 C    1.394    41 H    0.964
    13   6 C    3.957 --     4 C    1.417    12 C    1.405    42 H    0.963
    14   6 C    3.975 --    15 C    0.985    44 H    0.972    43 H    0.968
                             3 C    0.956
    15   6 C    3.988 --    16 C    1.059    14 C    0.985    45 H    0.959
                            46 H    0.928
    16   6 C    3.595 --    17 N    1.408    15 C    1.059    48 H    0.957
    17   7 N    3.484 --    16 C    1.408    30 C    0.998    18 C    0.988
    18   6 C    3.949 --    17 N    0.988    50 H    0.968    19 C    0.965
                            49 H    0.961
    19   6 C    3.972 --    20 C    1.002    51 H    0.972    52 H    0.966
                            18 C    0.965
    20   6 C    3.812 --    21 C    1.549    29 C    1.133    19 C    1.002
    21   6 C    3.877 --    20 C    1.549    22 C    1.211    53 H    0.959
    22   6 C    3.839 --    23 C    1.606    21 C    1.211    54 H    0.903
    23   6 C    3.081 --    22 C    1.606    24 O    1.326
    24   8 O    2.352 --    23 C    1.326    25 C    0.906
    25   6 C    3.865 --    56 H    0.979    57 H    0.979    55 H    0.970
                            24 O    0.906
    26   6 C    2.992 --    29 C    1.669    27 O    1.186
    27   8 O    2.254 --    26 C    1.186    28 C    0.944
    28   6 C    3.905 --    58 H    0.980    60 H    0.979    59 H    0.972
                            27 O    0.944
    29   6 C    3.874 --    26 C    1.669    20 C    1.133    61 H    0.936
    30   6 C    3.957 --    17 N    0.998    64 H    0.974    62 H    0.969
                            63 H    0.964
    31   6 C    3.974 --    33 C    1.009    32 C    1.008    65 H    0.961
                             3 C    0.944
    32   6 C    3.981 --    31 C    1.008    67 H    0.982    68 H    0.982
                            66 H    0.975
    33   6 C    3.984 --    31 C    1.009    70 H    0.983    71 H    0.981
                            69 H    0.976
    34   1 H    0.996 --     5 C    0.958
    35   1 H    0.994 --     8 C    0.974
    36   1 H    0.993 --     8 C    0.977
    37   1 H    0.994 --     8 C    0.974
    38   1 H    0.993 --    11 C    0.974
    39   1 H    0.993 --    11 C    0.977
    40   1 H    0.994 --    11 C    0.974
    41   1 H    0.996 --    12 C    0.964
    42   1 H    0.998 --    13 C    0.963
    43   1 H    0.995 --    14 C    0.968
    44   1 H    0.996 --    14 C    0.972
    45   1 H    0.994 --    15 C    0.959
    46   1 H    0.970 --    15 C    0.928
    47   1 H    0.988 --     2 C    0.903
    48   1 H    0.995 --    16 C    0.957
    49   1 H    0.989 --    18 C    0.961
    50   1 H    0.995 --    18 C    0.968
    51   1 H    0.996 --    19 C    0.972
    52   1 H    0.993 --    19 C    0.966
    53   1 H    0.992 --    21 C    0.959
    54   1 H    0.931 --    22 C    0.903
    55   1 H    0.986 --    25 C    0.970
    56   1 H    0.993 --    25 C    0.979
    57   1 H    0.991 --    25 C    0.979
    58   1 H    0.993 --    28 C    0.980
    59   1 H    0.986 --    28 C    0.972
    60   1 H    0.994 --    28 C    0.979
    61   1 H    0.969 --    29 C    0.936
    62   1 H    0.986 --    30 C    0.969
    63   1 H    0.986 --    30 C    0.964
    64   1 H    0.992 --    30 C    0.974
    65   1 H    0.993 --    31 C    0.961
    66   1 H    0.992 --    32 C    0.975
    67   1 H    0.997 --    32 C    0.982
    68   1 H    0.995 --    32 C    0.982
    69   1 H    0.993 --    33 C    0.976
    70   1 H    0.997 --    33 C    0.983
    71   1 H    0.994 --    33 C    0.981
    72   1 H    0.971 --     1 N    0.943
 ---------------------------------------------------------------------------

molecular dipole:
                 x           y           z       tot (Debye)
 q only:        2.070      -0.104      -1.023
   full:        2.421      -0.086      -1.319       7.011

           -------------------------------------------------
          | TOTAL ENERGY              -99.200866825791 Eh   |
          | GRADIENT NORM               0.003763223834 Eh/α |
          | HOMO-LUMO GAP               0.195315538832 eV   |
           -------------------------------------------------

 * finished run on 2024/04/06 at 11:14:24.388
