   * xtb version 6.6.1 (8d0f1dd) compiled by 'conda@1efc2f54142f' on 2023-08-01
          program call               : xtb xtbopt.xyz --opt crude --input .xc2 --gfn2

   ID    Z sym.   atoms
    1    7 N      1, 17
    2    6 C      2-6, 8, 9, 11-16, 18-23, 25, 26, 28-33
    3    8 O      7, 10, 24, 27
    4    1 H      34-72
########################################################################
[WARNING] Please study the warnings concerning your input carefully
-1- readin_getIntValue: could not parse ''
########################################################################

          :  Hamiltonian                  GFN2-xTB          :
 * total energy  :   -99.2049727 Eh     change       -0.1233502E-10 Eh
 * total energy  :   -99.2103643 Eh     change       -0.5391635E-02 Eh
 * total energy  :   -99.2137445 Eh     change       -0.3380168E-02 Eh
 * total energy  :   -99.2154906 Eh     change       -0.1746169E-02 Eh
 * total energy  :   -99.2170451 Eh     change       -0.1554507E-02 Eh
 * total energy  :   -99.2183670 Eh     change       -0.1321834E-02 Eh
 * total energy  :   -99.2193718 Eh     change       -0.1004846E-02 Eh
 * total energy  :   -99.2200361 Eh     change       -0.6642357E-03 Eh
 * total energy  :   -99.2206805 Eh     change       -0.6444208E-03 Eh
 * total energy  :   -99.2215508 Eh     change       -0.8703685E-03 Eh
 * total energy  :   -99.3009448 Eh     change       -0.1990529E-02 Eh
 * total energy  :   -99.3024815 Eh     change       -0.1536723E-02 Eh
 * total energy  :   -99.3034511 Eh     change       -0.9695332E-03 Eh
 * total energy  :   -99.3042163 Eh     change       -0.7651927E-03 Eh
 * total energy  :   -99.3048253 Eh     change       -0.6089934E-03 Eh
 * total energy  :   -99.3055967 Eh     change       -0.7714706E-03 Eh
 * total energy  :   -99.3063228 Eh     change       -0.7260276E-03 Eh
 * total energy  :   -99.3067414 Eh     change       -0.4186420E-03 Eh
 * total energy  :   -99.3071838 Eh     change       -0.4424412E-03 Eh
   *** GEOMETRY OPTIMIZATION CONVERGED AFTER 33 ITERATIONS ***

 final structure:
================
72
 xtb: 6.6.1 (8d0f1dd)
N           -1.94645302244932        2.93510219316159        2.10745493041936
C           -1.89330659047911        2.14863892298189        1.13886832165050
C           -3.03025716754984        1.86624819609714        0.19644193822712
C           -3.43551878985772        0.40482189262697        0.31620423601703
C           -4.29171213025702       -0.16153070707274       -0.63055526474298
C           -4.71205500100203       -1.47722754160432       -0.52957101516317
O           -5.53913000222959       -2.10178316346247       -1.39449067418542
C           -6.09431177912372       -1.37704703697008       -2.46593520752619
C           -4.26372998244291       -2.27443436408173        0.55782477998628
O           -4.72457956613100       -3.54171166922583        0.57585899280805
C           -4.40178649603143       -4.37185196525117        1.66691435051234
C           -3.41557855264109       -1.70582293713550        1.49435774683938
C           -3.00881441742194       -0.38322387131017        1.37373646798987
C           -2.48039302627177        2.15774253492509       -1.22427091998939
C           -1.47918931329666        1.11026555481327       -1.74174412507352
C           -0.15625500758260        1.19414400055267       -1.08405692428045
N            0.57730725891723        0.15502523285440       -0.70241265757860
C            1.92935023255750        0.35251488311285       -0.23654383118945
C            2.95487490975641        0.17354427883665       -1.37376720561212
C            4.35506551803689        0.20660676786146       -0.80825306079572
C            5.18346804808752        1.24578204567574       -1.08303844202292
C            6.51761821069443        1.50692399916025       -0.63652668949259
C            7.23534802940243        0.68602422395941        0.15968816641562
O            8.46513813526742        0.86281283856567        0.64356112062193
C            9.16402860502625        2.05414957579325        0.32995739887492
C            4.60262090151993       -1.94231716759024        0.62251744106171
O            4.68070746235173       -3.00907003075008        1.35363123118828
C            5.27414837770664       -4.14984667322672        0.75528313794326
C            4.66987699656289       -0.90417967965206       -0.00099352813566
C            0.08096149884263       -1.19835227282177       -0.77556678056277
C           -4.29030934840563        2.74043737518504        0.46713038272536
C           -4.88964803259723        2.44361119327497        1.83967430582094
C           -4.02262515630890        4.23720925032607        0.33463900466011
H           -4.64802761863920        0.44092756632961       -1.44964261271118
H           -6.69676659229061       -0.53493393286108       -2.11226573286733
H           -6.73553950865349       -2.08139134492853       -2.99213795185963
H           -5.32110817551782       -1.01317687329788       -3.15063273165515
H           -4.75345180061564       -3.94670983872242        2.61159386093543
H           -4.91694671671454       -5.31215544534043        1.48056423390691
H           -3.32423857237795       -4.55544879811184        1.72745899829219
H           -3.07328359923444       -2.28087440343962        2.33932137819383
H           -2.37330852060992        0.03375512399849        2.13967535021577
H           -3.31664679223996        2.20432303400770       -1.92093976819298
H           -2.00056720653440        3.13707930204294       -1.22076502707320
H           -1.91081449892164        0.11499171101545       -1.64808856992915
H           -1.33139947947864        1.31128775278430       -2.81112891501225
H           -0.97570353848469        1.60754201185842        0.83678004487240
H            0.31955070238638        2.16284362199651       -1.03875289445419
H            2.14641977683399       -0.36870115332806        0.55496103133320
H            2.02852519647886        1.35852249880465        0.17976398674525
H            2.82092417791609        0.96512392174475       -2.11424495995642
H            2.78020725450969       -0.79212622686214       -1.85895977735956
H            4.78294353000120        2.00661702542870       -1.74246977082976
H            6.93504079035637        2.44597403219782       -0.97422358347574
H            8.62342390213164        2.93431461721728        0.68815729800996
H            9.33236846947741        2.14285869631359       -0.74747417238801
H           10.12296268019368        1.97726536572692        0.84334164854006
H            6.11187078788718       -3.87214832998560        0.11507038059444
H            5.62297184564043       -4.77508432437994        1.57498455699248
H            4.53057393883971       -4.70214453352272        0.16893984756686
H            6.81447089739332       -0.25931964470173        0.48492811088302
H           -0.10818714048805       -1.49458615918860       -1.81001991800759
H           -0.84918301340464       -1.29473217312774       -0.20779499203096
H            0.81876809334417       -1.87512948901596       -0.35050196047359
H           -5.03001823901352        2.45827038137431       -0.29112426564727
H           -4.19016219349805        2.72606838244136        2.61984013579832
H           -5.12964752267838        1.38825818421024        1.94421632544023
H           -5.80363118672016        3.01686467737912        1.96999018065708
H           -3.25593351355442        4.54606165228589        1.03837731177654
H           -3.71764058670411        4.50854729517413       -0.67251933784479
H           -4.93379484195719        4.78328349665384        0.56397687168579
H           -1.10336639072125        3.06881596266605        2.65699260451281

          :  Hamiltonian                  GFN2-xTB          :
         :: total energy             -99.307183850551 Eh    ::
         :: gradient norm              0.009683815754 Eh/a0 ::
         :: HOMO-LUMO gap              1.601894336765 eV    ::
         :: SCC energy              -100.734842687535 Eh    ::
         :: -> dispersion             -0.072860591287 Eh    ::
         :: repulsion energy           1.426321348252 Eh    ::

    * Orbital Energies and Occupations

         #    Occupation            Energy/Eh            Energy/eV
      -------------------------------------------------------------
         1        2.0000           -0.8145508             -22.1651
       ...           ...                  ...                  ...
        78        1.9984           -0.5256714             -14.3042
        79        1.9984           -0.5254824             -14.2991
        80        1.9983           -0.5252183             -14.2919
        81        1.9975           -0.5189974             -14.1226
        82        1.9962           -0.5119348             -13.9305
        83        1.9955           -0.5095334             -13.8651
        84        1.9946           -0.5066449             -13.7865
        85        1.9944           -0.5060001             -13.7690
        86        1.9816           -0.4870566             -13.2535
        87        1.9544           -0.4724421             -12.8558
        88        1.9411           -0.4682808             -12.7426
        89        1.8765           -0.4560142             -12.4088
        90        1.8230           -0.4498579             -12.2413 (HOMO)
        91        0.4001           -0.3909894             -10.6394 (LUMO)
        92        0.0350           -0.3491755              -9.5015
        93        0.0151           -0.3357003              -9.1349
        94        0.0036           -0.3129395              -8.5155
        95        0.0030           -0.3097794              -8.4295
        96        0.0001           -0.2548684              -6.9353
        97        0.0000           -0.2421747              -6.5899
        98        0.0000           -0.1935641              -5.2671
        99        0.0000           -0.1871619              -5.0929
       100                         -0.1335031              -3.6328
       101                         -0.0707505              -1.9252
       ...                                ...                  ...
       171                          1.2919064              35.1546
      -------------------------------------------------------------
                  HL-Gap            0.0588685 Eh            1.6019 eV

     #   Z          covCN         q      C6AA      α(0)
     1   7 N        1.773    -0.270    27.826     7.811
     2   6 C        2.827     0.101    25.755     8.316
     3   6 C        3.908     0.006    20.414     6.422
     4   6 C        2.974     0.001    28.000     8.680
     5   6 C        2.920    -0.080    30.010     8.983
     6   6 C        2.862     0.129    25.177     8.225
     7   8 O        1.706    -0.231    17.837     5.702
     8   6 C        3.644     0.028    20.437     6.498
     9   6 C        2.864     0.128    25.188     8.227
    10   8 O        1.706    -0.230    17.813     5.698
    11   6 C        3.645     0.027    20.448     6.499
    12   6 C        2.914    -0.074    29.849     8.959
    13   6 C        2.922    -0.053    29.313     8.879
    14   6 C        3.813    -0.065    21.728     6.635
    15   6 C        3.802    -0.069    21.822     6.651
    16   6 C        2.845     0.007    27.864     8.651
    17   7 N        2.729     0.010    21.082     6.819
    18   6 C        3.756    -0.018    20.950     6.526
    19   6 C        3.813    -0.069    21.813     6.648
    20   6 C        2.944     0.021    27.540     8.607
    21   6 C        2.904    -0.034    28.856     8.808
    22   6 C        2.888    -0.074    29.840     8.956
    23   6 C        2.791     0.106    25.646     8.295
    24   8 O        1.704    -0.212    17.520     5.651
    25   6 C        3.646     0.020    20.562     6.516
    26   6 C        1.885     0.102    28.595     8.637
    27   8 O        1.704    -0.199    17.321     5.619
    28   6 C        3.671     0.028    20.343     6.465
    29   6 C        1.977    -0.096    33.690     9.373
    30   6 C        3.699    -0.069    21.991     6.707
    31   6 C        3.853    -0.007    20.670     6.466
    32   6 C        3.756    -0.118    22.821     6.811
    33   6 C        3.755    -0.119    22.834     6.813
    34   1 H        0.926     0.051     2.309     2.376
    35   1 H        0.924     0.053     2.280     2.361
    36   1 H        0.925     0.080     1.976     2.198
    37   1 H        0.924     0.046     2.372     2.409
    38   1 H        0.924     0.055     2.263     2.353
    39   1 H        0.925     0.080     1.977     2.199
    40   1 H        0.924     0.048     2.347     2.396
    41   1 H        0.926     0.052     2.294     2.369
    42   1 H        0.926     0.039     2.460     2.453
    43   1 H        0.925     0.060     2.201     2.320
    44   1 H        0.924     0.054     2.273     2.358
    45   1 H        0.925     0.066     2.125     2.280
    46   1 H        0.923     0.078     1.998     2.210
    47   1 H        0.922     0.006     2.952     2.687
    48   1 H        0.926     0.069     2.093     2.262
    49   1 H        0.924     0.073     2.057     2.243
    50   1 H        0.924     0.065     2.139     2.287
    51   1 H        0.924     0.052     2.295     2.369
    52   1 H        0.924     0.055     2.254     2.348
    53   1 H        0.925     0.045     2.385     2.415
    54   1 H        0.925     0.052     2.292     2.367
    55   1 H        0.924     0.059     2.209     2.324
    56   1 H        0.924     0.060     2.197     2.318
    57   1 H        0.924     0.082     1.961     2.190
    58   1 H        0.924     0.055     2.259     2.350
    59   1 H        0.925     0.078     1.999     2.211
    60   1 H        0.924     0.054     2.272     2.357
    61   1 H        0.925     0.074     2.039     2.233
    62   1 H        0.924     0.076     2.025     2.225
    63   1 H        0.924     0.078     2.000     2.212
    64   1 H        0.925     0.081     1.966     2.193
    65   1 H        0.924     0.037     2.495     2.470
    66   1 H        0.925     0.068     2.111     2.272
    67   1 H        0.925     0.035     2.514     2.480
    68   1 H        0.925     0.051     2.312     2.378
    69   1 H        0.925     0.061     2.183     2.310
    70   1 H        0.925     0.034     2.527     2.486
    71   1 H        0.925     0.054     2.270     2.356
    72   1 H        0.860     0.156     1.361     1.828

Wiberg/Mayer (AO) data.
largest (>0.10) Wiberg bond orders for each atom

     #   Z sym  total        # sym  WBO       # sym  WBO       # sym  WBO
 ---------------------------------------------------------------------------
     1   7 N    3.040 --     2 C    1.955    72 H    0.942
     2   6 C    3.927 --     1 N    1.955     3 C    0.994    47 H    0.898
     3   6 C    3.976 --     2 C    0.994     4 C    0.970    14 C    0.957
                            31 C    0.943
     4   6 C    3.950 --    13 C    1.415     5 C    1.368     3 C    0.970
     5   6 C    3.963 --     6 C    1.402     4 C    1.368    34 H    0.958
     6   6 C    3.906 --     5 C    1.402     9 C    1.224     7 O    1.097
     7   8 O    2.253 --     6 C    1.097     8 C    0.979
     8   6 C    3.933 --     7 O    0.979    36 H    0.977    37 H    0.974
                            35 H    0.974
     9   6 C    3.903 --    12 C    1.393     6 C    1.224    10 O    1.100
    10   8 O    2.252 --     9 C    1.100    11 C    0.978
    11   6 C    3.932 --    10 O    0.978    39 H    0.977    40 H    0.974
                            38 H    0.974
    12   6 C    3.963 --    13 C    1.405     9 C    1.393    41 H    0.964
    13   6 C    3.956 --     4 C    1.415    12 C    1.405    42 H    0.962
    14   6 C    3.974 --    15 C    0.983    44 H    0.972    43 H    0.968
                             3 C    0.957
    15   6 C    3.987 --    16 C    1.059    14 C    0.983    45 H    0.960
                            46 H    0.928
    16   6 C    3.590 --    17 N    1.399    15 C    1.059    48 H    0.958
    17   7 N    3.478 --    16 C    1.399    30 C    0.999    18 C    0.988
    18   6 C    3.951 --    17 N    0.988    50 H    0.968    19 C    0.968
                            49 H    0.962
    19   6 C    3.972 --    20 C    0.987    51 H    0.973    18 C    0.968
                            52 H    0.966
    20   6 C    3.896 --    21 C    1.609    29 C    1.151    19 C    0.987
    21   6 C    3.931 --    20 C    1.609    22 C    1.201    53 H    0.965
    22   6 C    3.915 --    23 C    1.611    21 C    1.201    54 H    0.961
    23   6 C    3.857 --    22 C    1.611    24 O    1.161    61 H    0.939
    24   8 O    2.299 --    23 C    1.161    25 C    0.969
    25   6 C    3.928 --    57 H    0.978    55 H    0.973    56 H    0.973
                            24 O    0.969
    26   6 C    3.857 --    29 C    2.511    27 O    1.169
    27   8 O    2.308 --    26 C    1.169    28 C    0.939    29 C    0.151
    28   6 C    3.916 --    58 H    0.982    59 H    0.978    60 H    0.977
                            27 O    0.939
    29   6 C    3.910 --    26 C    2.511    20 C    1.151    27 O    0.151
    30   6 C    3.958 --    17 N    0.999    64 H    0.977    62 H    0.968
                            63 H    0.963
    31   6 C    3.973 --    33 C    1.009    32 C    1.008    65 H    0.961
                             3 C    0.943
    32   6 C    3.980 --    31 C    1.008    67 H    0.982    68 H    0.982
                            66 H    0.975
    33   6 C    3.983 --    31 C    1.009    70 H    0.983    71 H    0.980
                            69 H    0.976
    34   1 H    0.996 --     5 C    0.958
    35   1 H    0.994 --     8 C    0.974
    36   1 H    0.993 --     8 C    0.977
    37   1 H    0.994 --     8 C    0.974
    38   1 H    0.993 --    11 C    0.974
    39   1 H    0.993 --    11 C    0.977
    40   1 H    0.994 --    11 C    0.974
    41   1 H    0.996 --    12 C    0.964
    42   1 H    0.998 --    13 C    0.962
    43   1 H    0.995 --    14 C    0.968
    44   1 H    0.996 --    14 C    0.972
    45   1 H    0.994 --    15 C    0.960
    46   1 H    0.970 --    15 C    0.928
    47   1 H    0.987 --     2 C    0.898
    48   1 H    0.995 --    16 C    0.958
    49   1 H    0.991 --    18 C    0.962
    50   1 H    0.994 --    18 C    0.968
    51   1 H    0.996 --    19 C    0.973
    52   1 H    0.993 --    19 C    0.966
    53   1 H    0.997 --    21 C    0.965
    54   1 H    0.996 --    22 C    0.961
    55   1 H    0.992 --    25 C    0.973
    56   1 H    0.991 --    25 C    0.973
    57   1 H    0.993 --    25 C    0.978
    58   1 H    0.996 --    28 C    0.982
    59   1 H    0.993 --    28 C    0.978
    60   1 H    0.993 --    28 C    0.977
    61   1 H    0.994 --    23 C    0.939
    62   1 H    0.986 --    30 C    0.968
    63   1 H    0.986 --    30 C    0.963
    64   1 H    0.993 --    30 C    0.977
    65   1 H    0.993 --    31 C    0.961
    66   1 H    0.991 --    32 C    0.975
    67   1 H    0.997 --    32 C    0.982
    68   1 H    0.994 --    32 C    0.982
    69   1 H    0.993 --    33 C    0.976
    70   1 H    0.997 --    33 C    0.983
    71   1 H    0.994 --    33 C    0.980
    72   1 H    0.971 --     1 N    0.942
 ---------------------------------------------------------------------------

molecular dipole:
                 x           y           z       tot (Debye)
 q only:        1.588       0.004      -1.094
   full:        1.960      -0.111      -1.316       6.008

           -------------------------------------------------
          | TOTAL ENERGY              -99.307183850551 Eh   |
          | GRADIENT NORM               0.009683815754 Eh/α |
          | HOMO-LUMO GAP               1.601894336765 eV   |
           -------------------------------------------------

 * finished run on 2024/04/06 at 11:14:30.260
