   * xtb version 6.6.1 (8d0f1dd) compiled by 'conda@1efc2f54142f' on 2023-08-01
          program call               : xtb struc.xyz --opt loose --input .xc1 --gfn2

   ID    Z sym.   atoms
    1    6 C      1, 3, 5-7, 10, 11, 14
    2    7 N      2, 4, 9, 13
    3    8 O      8, 12
    4    1 H      15-25
constraining bond 6 18 to    3.7133300 Å, actual value:    3.2169490 Å

          :  Hamiltonian                  GFN2-xTB          :
 * total energy  :   -42.6878031 Eh     change       -0.6650680E-10 Eh
 * total energy  :   -44.5889075 Eh     change       -0.1901104E+01 Eh
 * total energy  :   -47.1978447 Eh     change       -0.2608937E+01 Eh
 * total energy  :   -50.2821963 Eh     change       -0.3084352E+01 Eh
 * total energy  :   -53.9838237 Eh     change       -0.3701627E+01 Eh
 * total energy  :   -57.0428821 Eh     change       -0.3059058E+01 Eh
 * total energy  :   -58.2521415 Eh     change       -0.1209259E+01 Eh
 * total energy  :   -58.9609045 Eh     change       -0.7087631E+00 Eh
 * total energy  :   -57.4849396 Eh     change        0.1475965E+01 Eh
 * total energy  :   -55.8950915 Eh     change        0.1589848E+01 Eh
 * total energy  :   -59.6907611 Eh     change       -0.1316413E-03 Eh
 * total energy  :   -59.6909373 Eh     change       -0.1762283E-03 Eh
 * total energy  :   -59.6910516 Eh     change       -0.1142908E-03 Eh
 * total energy  :   -59.6911213 Eh     change       -0.6967413E-04 Eh
 * total energy  :   -59.6911783 Eh     change       -0.5708739E-04 Eh
 * total energy  :   -59.6912459 Eh     change       -0.6756642E-04 Eh
 * total energy  :   -59.6888023 Eh     change        0.2443633E-02 Eh
 * total energy  :   -59.6913108 Eh     change       -0.2508568E-02 Eh
 * total energy  :   -59.6913352 Eh     change       -0.2432831E-04 Eh
   *** GEOMETRY OPTIMIZATION CONVERGED AFTER 70 ITERATIONS ***

 final structure:
================
25
 xtb: 6.6.1 (8d0f1dd)
C            4.38230042012664        1.57243661957381        0.28922816717357
N            3.60557832870118        0.41719467161563        0.36057805045868
C            2.05069712406398       -1.18836024164879       -0.26828266893718
N            0.85032708506604       -1.67497688679638       -0.26378545060132
C           -0.30940160280014       -0.96229850640760       -0.15205840671187
C            2.72802831583801        0.00430268165719       -0.54183434881175
C           -0.44097822985733        0.49426078426793       -0.21853798013467
O            0.42035794845157        1.32492576066013       -0.41714717415682
N           -1.78727971149557        0.72240291418777       -0.01783055592047
C           -2.40208211266986        2.02833432702005       -0.01781518450396
C           -2.48339159063179       -0.45174383620952        0.16439345693145
O           -3.64985693252403       -0.61072864820069        0.36468731407590
N           -1.52722164630746       -1.49604556764271        0.07163121814231
C           -1.88494482935027       -2.87913014880406        0.22692730247962
H            4.44610918819128        2.00164749947902        1.29359448326156
H            5.40362391622727        1.30271372826057       -0.00482782994715
H            3.99063840652365        2.32997053030149       -0.40016404980195
H            2.67097056191964        0.19469399072859       -0.91653939716483
H           -1.60747256051043        2.77232644846418       -0.02000358084802
H           -3.02566441585475        2.15235388466527       -0.90451533229203
H           -3.02676215269110        2.14064870476249        0.86798660140527
H           -1.37195761862940       -3.32151364891431        1.08331332934820
H           -1.65687686564339       -3.44738482344487       -0.67702454199765
H           -2.96071631307454       -2.91390904924275        0.40281564839893
H            0.74640680103212       -2.69388264673404       -0.27361745194331

          :  Hamiltonian                  GFN2-xTB          :
         :: total energy             -59.691335168429 Eh    ::
         :: gradient norm              0.003461155367 Eh/a0 ::
         :: HOMO-LUMO gap              0.261063869300 eV    ::
         :: SCC energy               -42.644033054392 Eh    ::
         :: -> dispersion             -0.020386823596 Eh    ::
         :: repulsion energy           2.269746771551 Eh    ::

    * Orbital Energies and Occupations

         #    Occupation            Energy/Eh            Energy/eV
      -------------------------------------------------------------
         1        2.0000           -0.8942346             -24.3334
       ...           ...                  ...                  ...
        25        1.9999           -0.6713214             -18.2676
        26        1.9999           -0.6687207             -18.1968
        27        1.9995           -0.6417676             -17.4634
        28        1.9993           -0.6367207             -17.3261
        29        1.9990           -0.6296574             -17.1339
        30        1.9975           -0.6154889             -16.7483
        31        1.9973           -0.6139999             -16.7078
        32        1.9958           -0.6073611             -16.5271
        33        1.9881           -0.5907266             -16.0745
        34        1.9618           -0.5720042             -15.5650
        35        1.9492           -0.5673746             -15.4390
        36        1.7707           -0.5419988             -14.7485
        37        1.2998           -0.5194281             -14.1344 (HOMO)
        38        1.0064           -0.5098342             -13.8733 (LUMO)
        39        0.0350           -0.4458490             -12.1322
        40        0.0008           -0.3861885             -10.5087
        41        0.0001           -0.3496395              -9.5142
        42        0.0000           -0.3293512              -8.9621
        43                         -0.1898451              -5.1659
        44                         -0.1819186              -4.9503
        45                         -0.1202366              -3.2718
        46                         -0.0626577              -1.7050
        47                         -0.0563615              -1.5337
        48                         -0.0279656              -0.7610
       ...                                ...                  ...
        67                         10.4843134             285.2927
      -------------------------------------------------------------
                  HL-Gap            0.0095939 Eh            0.2611 eV

     #   Z          covCN         q      C6AA      α(0)
     1   6 C        3.692    -0.051    21.670     6.661
     2   7 N        1.874    -0.106    24.096     7.276
     3   6 C        1.978     0.002    31.020     8.994
     4   7 N        2.683     0.013    21.028     6.811
     5   6 C        2.959     0.060    26.646     8.467
     6   6 C        2.833     0.022    27.511     8.595
     7   6 C        2.843     0.258    22.665     7.802
     8   8 O        0.857    -0.368    21.045     6.151
     9   7 N        2.803    -0.078    22.750     7.084
    10   6 C        3.690    -0.058    21.807     6.683
    11   6 C        2.834     0.316    21.637     7.623
    12   8 O        0.857    -0.322    20.190     6.024
    13   7 N        2.786    -0.044    22.091     6.981
    14   6 C        3.688    -0.072    22.079     6.725
    15   1 H        0.924     0.122     1.594     1.975
    16   1 H        0.924     0.123     1.590     1.972
    17   1 H        0.924     0.099     1.795     2.095
    18   1 H        1.012     0.216     1.019     1.577
    19   1 H        0.925     0.109     1.709     2.044
    20   1 H        0.924     0.101     1.776     2.084
    21   1 H        0.925     0.104     1.750     2.069
    22   1 H        0.924     0.093     1.851     2.128
    23   1 H        0.924     0.092     1.856     2.130
    24   1 H        0.924     0.126     1.562     1.954
    25   1 H        0.859     0.243     0.912     1.496

Wiberg/Mayer (AO) data.
largest (>0.10) Wiberg bond orders for each atom

     #   Z sym  total        # sym  WBO       # sym  WBO       # sym  WBO
 ---------------------------------------------------------------------------
     1   6 C    3.889 --     2 N    1.100    17 H    0.927    15 H    0.919
                            16 H    0.904
     2   7 N    2.764 --     6 C    1.506     1 C    1.100
     3   6 C    3.110 --     4 N    1.466     6 C    1.383
     4   7 N    3.651 --     3 C    1.466     5 C    1.156    25 H    0.888
     5   6 C    3.659 --    13 N    1.248     4 N    1.156     7 C    1.046
     6   6 C    3.884 --     2 N    1.506     3 C    1.383    18 H    0.873
     7   6 C    3.916 --     8 O    1.646     9 N    1.122     5 C    1.046
     8   8 O    1.932 --     7 C    1.646     9 N    0.134
     9   7 N    3.534 --     7 C    1.122    11 C    1.113    10 C    0.978
                             8 O    0.134    12 O    0.120
    10   6 C    3.906 --     9 N    0.978    19 H    0.970    21 H    0.961
                            20 H    0.957
    11   6 C    3.924 --    12 O    1.721     9 N    1.113    13 N    1.007
    12   8 O    2.008 --    11 C    1.721     9 N    0.120
    13   7 N    3.461 --     5 C    1.248    11 C    1.007    14 C    0.989
    14   6 C    3.921 --    13 N    0.989    24 H    0.964    22 H    0.960
                            23 H    0.960
    15   1 H    0.944 --     1 C    0.919
    16   1 H    0.937 --     1 C    0.904
    17   1 H    0.938 --     1 C    0.927
    18   1 H    0.925 --     6 C    0.873
    19   1 H    0.984 --    10 C    0.970
    20   1 H    0.976 --    10 C    0.957
    21   1 H    0.979 --    10 C    0.961
    22   1 H    0.979 --    14 C    0.960
    23   1 H    0.978 --    14 C    0.960
    24   1 H    0.983 --    14 C    0.964
    25   1 H    0.923 --     4 N    0.888
 ---------------------------------------------------------------------------

molecular dipole:
                 x           y           z       tot (Debye)
 q only:        1.820      -1.215      -0.234
   full:        1.740      -1.317      -0.400       5.639

           -------------------------------------------------
          | TOTAL ENERGY              -59.691335168429 Eh   |
          | GRADIENT NORM               0.003461155367 Eh/α |
          | HOMO-LUMO GAP               0.261063869300 eV   |
           -------------------------------------------------

 * finished run on 2024/06/05 at 20:00:27.821
