   * xtb version 6.6.1 (8d0f1dd) compiled by 'conda@1efc2f54142f' on 2023-08-01
          program call               : xtb struc.xyz --opt loose --input .xc1 --gfn2

   ID    Z sym.   atoms
    1    6 C      1, 3, 5-7, 10, 11, 14
    2    7 N      2, 4, 9, 13
    3    8 O      8, 12
    4    1 H      15-25
constraining bond 6 15 to    5.1400000 Å, actual value:    3.1327550 Å

          :  Hamiltonian                  GFN2-xTB          :
 * total energy  :   -35.0513163 Eh     change       -0.6633627E-10 Eh
 * total energy  :   -38.3213802 Eh     change       -0.3270064E+01 Eh
 * total energy  :   -40.5355315 Eh     change       -0.2214151E+01 Eh
 * total energy  :   -41.5860391 Eh     change       -0.1050508E+01 Eh
 * total energy  :   -41.8606514 Eh     change       -0.2746123E+00 Eh
 * total energy  :   -41.8958660 Eh     change       -0.3521469E-01 Eh
 * total energy  :   -41.9115150 Eh     change       -0.1564893E-01 Eh
 * total energy  :   -41.9465720 Eh     change       -0.3505704E-01 Eh
 * total energy  :   -41.9589482 Eh     change       -0.1237620E-01 Eh
 * total energy  :   -41.9684875 Eh     change       -0.9539308E-02 Eh
 * total energy  :   -42.0719784 Eh     change       -0.2412950E-02 Eh
 * total energy  :   -42.0774904 Eh     change       -0.5512003E-02 Eh
 * total energy  :   -42.0803421 Eh     change       -0.2851728E-02 Eh
 * total energy  :   -42.0811469 Eh     change       -0.8048352E-03 Eh
 * total energy  :   -42.0819123 Eh     change       -0.7653321E-03 Eh
 * total energy  :   -42.0821630 Eh     change       -0.2507563E-03 Eh
 * total energy  :   -42.0822732 Eh     change       -0.1102202E-03 Eh
 * total energy  :   -42.0823233 Eh     change       -0.5008881E-04 Eh
 * total energy  :   -42.0823553 Eh     change       -0.3199335E-04 Eh
   *** GEOMETRY OPTIMIZATION CONVERGED AFTER 29 ITERATIONS ***

 final structure:
================
25
 xtb: 6.6.1 (8d0f1dd)
C            3.06107527319628        1.07564431758640       -0.15604411588461
N            2.19731278414153        0.06603332614227       -0.09504603960836
C            2.46780621294150       -1.25986114964454       -0.10669890969098
N            1.31273638549148       -1.96625789452257       -0.06286140887180
C            0.27170916030687       -1.08299342502139       -0.02480248651931
C            0.81063632263162        0.18799297467760       -0.03876657067974
C           -0.01763542370758        1.37755609061916       -0.02977663838174
O            0.38458944524168        2.51416617561651       -0.04180402215254
N           -1.37115925042577        1.04040802672966       -0.00742545712692
C           -2.33127382809482        2.13726166859865       -0.02341174055092
C           -1.93710837802648       -0.22048242714663        0.00566589751606
O           -3.12015013160129       -0.39925134004863        0.01308256179564
N           -1.04554851219163       -1.32372248089660        0.01092864025030
C           -1.59300161884514       -2.66618350596499        0.01480114427154
H            5.53146172697645        1.81085400793731        1.18327506944831
H            4.11817792125120        0.88010817788324       -0.22968006170212
H            2.67123799891770        2.08042992973999       -0.13550691166493
H            3.44690746413293       -1.69064432520781       -0.15199203301847
H           -1.77469616020958        3.07102722949405       -0.00956795850776
H           -2.94548470867491        2.07642283391524       -0.92060499136944
H           -2.98269504505391        2.06968987139055        0.84677580378110
H           -1.27928430831719       -3.20455413484690        0.90922211508522
H           -1.28602514261271       -3.20816726611602       -0.87983250524099
H           -2.67835546559630       -2.57323101615797        0.01863695904899
H            1.24919879222770       -2.97400712315665       -0.05739472232647

          :  Hamiltonian                  GFN2-xTB          :
         :: total energy             -42.082355325291 Eh    ::
         :: gradient norm              0.003134724153 Eh/a0 ::
         :: HOMO-LUMO gap              0.254330360709 eV    ::
         :: SCC energy               -42.606301018277 Eh    ::
         :: -> dispersion             -0.022778755656 Eh    ::
         :: repulsion energy           0.523861111302 Eh    ::

    * Orbital Energies and Occupations

         #    Occupation            Energy/Eh            Energy/eV
      -------------------------------------------------------------
         1        2.0000           -0.9145111             -24.8851
       ...           ...                  ...                  ...
        25        2.0000           -0.6660588             -18.1244
        26        2.0000           -0.6623728             -18.0241
        27        2.0000           -0.6537573             -17.7896
        28        2.0000           -0.6426343             -17.4870
        29        2.0000           -0.6284714             -17.1016
        30        2.0000           -0.6237634             -16.9735
        31        2.0000           -0.6168686             -16.7858
        32        1.9999           -0.5936610             -16.1543
        33        1.9988           -0.5751983             -15.6519
        34        1.9904           -0.5587138             -15.2034
        35        1.9900           -0.5584375             -15.1959
        36        1.9860           -0.5557200             -15.1219
        37        1.3043           -0.5214933             -14.1906 (HOMO)
        38        0.7307           -0.5121468             -13.9362 (LUMO)
        39        0.0000           -0.4113331             -11.1929
        40        0.0000           -0.4021187             -10.9422
        41                         -0.3656679              -9.9503
        42                         -0.2832634              -7.7080
        43                         -0.2052888              -5.5862
        44                         -0.1892263              -5.1491
        45                         -0.1436683              -3.9094
        46                         -0.1128897              -3.0719
        47                         -0.0879911              -2.3944
        48                         -0.0504308              -1.3723
       ...                                ...                  ...
        67                          0.5653671              15.3844
      -------------------------------------------------------------
                  HL-Gap            0.0093465 Eh            0.2543 eV

     #   Z          covCN         q      C6AA      α(0)
     1   6 C        2.789    -0.061    29.504     8.897
     2   7 N        2.812     0.131    19.003     6.474
     3   6 C        3.037     0.034    27.212     8.556
     4   7 N        2.783    -0.054    22.292     7.012
     5   6 C        3.023     0.121    25.328     8.255
     6   6 C        3.110    -0.042    28.879     8.804
     7   6 C        2.764     0.275    22.343     7.741
     8   8 O        0.858    -0.369    21.075     6.155
     9   7 N        2.746    -0.086    22.922     7.111
    10   6 C        3.710    -0.062    21.833     6.678
    11   6 C        2.727     0.318    21.588     7.607
    12   8 O        0.859    -0.356    20.816     6.117
    13   7 N        2.739    -0.057    22.353     7.022
    14   6 C        3.696    -0.072    22.066     6.720
    15   1 H        0.000     0.065     5.329     4.221
    16   1 H        0.926     0.113     1.667     2.019
    17   1 H        0.926     0.147     1.410     1.857
    18   1 H        0.926     0.123     1.586     1.969
    19   1 H        0.925     0.112     1.678     2.025
    20   1 H        0.925     0.097     1.813     2.106
    21   1 H        0.925     0.098     1.801     2.098
    22   1 H        0.925     0.083     1.947     2.182
    23   1 H        0.925     0.082     1.961     2.190
    24   1 H        0.925     0.129     1.544     1.943
    25   1 H        0.860     0.230     0.963     1.537

Wiberg/Mayer (AO) data.
largest (>0.10) Wiberg bond orders for each atom

     #   Z sym  total        # sym  WBO       # sym  WBO       # sym  WBO
 ---------------------------------------------------------------------------
     1   6 C    3.408 --     2 N    1.329    17 H    0.954    16 H    0.953
     2   7 N    3.767 --     1 C    1.329     3 C    1.247     6 C    1.089
     3   6 C    3.672 --     4 N    1.269     2 N    1.247    18 H    0.954
     4   7 N    3.525 --     3 C    1.269     5 C    1.174    25 H    0.918
     5   6 C    3.947 --     6 C    1.366    13 N    1.230     4 N    1.174
     6   6 C    3.877 --     5 C    1.366     2 N    1.089     7 C    1.072
     7   6 C    3.965 --     8 O    1.699     9 N    1.100     6 C    1.072
     8   8 O    2.056 --     7 C    1.699     9 N    0.150
     9   7 N    3.558 --    11 C    1.128     7 C    1.100    10 C    0.968
                             8 O    0.150    12 O    0.141
    10   6 C    3.915 --    19 H    0.969     9 N    0.968    21 H    0.965
                            20 H    0.965
    11   6 C    3.960 --    12 O    1.719     9 N    1.128    13 N    1.021
    12   8 O    2.077 --    11 C    1.719     9 N    0.141    13 N    0.121
    13   7 N    3.549 --     5 C    1.230    11 C    1.021    14 C    0.975
                            12 O    0.121
    14   6 C    3.924 --    13 N    0.975    23 H    0.971    22 H    0.970
                            24 H    0.963
    15   1 H    0.084
    16   1 H    0.986 --     1 C    0.953
    17   1 H    0.978 --     1 C    0.954
    18   1 H    0.984 --     3 C    0.954
    19   1 H    0.987 --    10 C    0.969
    20   1 H    0.986 --    10 C    0.965
    21   1 H    0.986 --    10 C    0.965
    22   1 H    0.989 --    14 C    0.970
    23   1 H    0.989 --    14 C    0.971
    24   1 H    0.983 --    14 C    0.963
    25   1 H    0.946 --     4 N    0.918
 ---------------------------------------------------------------------------

molecular dipole:
                 x           y           z       tot (Debye)
 q only:        2.830      -1.968      -0.003
   full:        3.156      -2.456      -0.000      10.164

           -------------------------------------------------
          | TOTAL ENERGY              -42.082355325291 Eh   |
          | GRADIENT NORM               0.003134724153 Eh/α |
          | HOMO-LUMO GAP               0.254330360709 eV   |
           -------------------------------------------------

 * finished run on 2024/06/05 at 19:58:00.207
