   * xtb version 6.6.1 (8d0f1dd) compiled by 'conda@1efc2f54142f' on 2023-08-01
          program call               : xtb xtbopt.xyz --opt crude --input .xc2 --gfn2

   ID    Z sym.   atoms
    1    6 C      1, 3, 5-7, 10, 11, 14
    2    7 N      2, 4, 9, 13
    3    8 O      8, 12
    4    1 H      15-25

          :  Hamiltonian                  GFN2-xTB          :
 * total energy  :   -42.0809834 Eh     change       -0.7673862E-12 Eh
   *** GEOMETRY OPTIMIZATION CONVERGED AFTER 1 ITERATIONS ***

 final structure:
================
25
 xtb: 6.6.1 (8d0f1dd)
C            3.14051351815154        1.14343723941037       -0.08467115896075
N            2.22611711448192        0.03335314759897       -0.04242564264641
C            2.53815256633235       -1.25276431464267        0.02233777068444
N            1.41382438518617       -1.99757799503029        0.05772348087817
C            0.34520545884086       -1.15219157963445        0.01410234859990
C            0.85255348876421        0.13952861686488       -0.04691973954173
C            0.00667441142197        1.29678314219496       -0.12069059261388
O            0.35317961538463        2.45457934750918       -0.20375839284463
N           -1.37647661894248        0.93198196936177       -0.08884646121350
C           -2.27309074315029        1.92829004330097       -0.14537909268336
C           -1.89837458124001       -0.39924132538835       -0.02156167028557
O           -3.07947874477141       -0.60255613197556       -0.00158752704502
N           -0.97157009635246       -1.43752462968292        0.02016391800580
C           -1.45213671961888       -2.80633255664856        0.08982928070129
H            3.61094172702616        1.28365918309752        0.88951897927729
H            3.91705029475260        0.96567079736766       -0.82742680696603
H            2.58476015559033        2.04548696818206       -0.33799722835091
H            3.53429741925900       -1.64960268717001        0.04190886756064
H           -1.70105254538313        4.69661108427668        0.61308346737909
H           -1.91628091956863        2.95290559642248       -0.10923170553289
H           -3.31506500146351        1.67887049860365       -0.11463215598494
H           -1.11738861627021       -3.27889789660646        1.01311289913354
H           -1.10557814922270       -3.37415057452137       -0.77330647200787
H           -2.54011072507262       -2.77585592025293        0.08168923410434
H            1.38376481996461       -3.00622348103748        0.10613601825293

          :  Hamiltonian                  GFN2-xTB          :
         :: total energy             -42.080983420509 Eh    ::
         :: gradient norm              0.005055873618 Eh/a0 ::
         :: HOMO-LUMO gap              0.169929214683 eV    ::
         :: SCC energy               -42.602013465082 Eh    ::
         :: -> dispersion             -0.022880103485 Eh    ::
         :: repulsion energy           0.520939636820 Eh    ::

    * Orbital Energies and Occupations

         #    Occupation            Energy/Eh            Energy/eV
      -------------------------------------------------------------
         1        2.0000           -0.9166874             -24.9443
       ...           ...                  ...                  ...
        25        2.0000           -0.6705086             -18.2455
        26        2.0000           -0.6682898             -18.1851
        27        2.0000           -0.6620667             -18.0158
        28        2.0000           -0.6352941             -17.2872
        29        2.0000           -0.6307760             -17.1643
        30        2.0000           -0.6291019             -17.1187
        31        2.0000           -0.6213597             -16.9081
        32        2.0000           -0.6150677             -16.7368
        33        2.0000           -0.6097797             -16.5929
        34        2.0000           -0.5851818             -15.9236
        35        2.0000           -0.5647066             -15.3664
        36        2.0000           -0.5604483             -15.2506
        37        1.1838           -0.4718099             -12.8386 (HOMO)
        38        0.7945           -0.4655651             -12.6687 (LUMO)
        39        0.0214           -0.4330300             -11.7833
        40        0.0003           -0.4001038             -10.8874
        41        0.0000           -0.3729074             -10.1473
        42                         -0.2878689              -7.8333
        43                         -0.2091354              -5.6909
        44                         -0.1995733              -5.4307
        45                         -0.1529860              -4.1630
        46                         -0.1447939              -3.9400
        47                         -0.0824319              -2.2431
        48                         -0.0570339              -1.5520
       ...                                ...                  ...
        67                          0.5481752              14.9166
      -------------------------------------------------------------
                  HL-Gap            0.0062448 Eh            0.1699 eV

     #   Z          covCN         q      C6AA      α(0)
     1   6 C        3.692    -0.096    22.518     6.790
     2   7 N        2.835     0.084    19.778     6.605
     3   6 C        3.057     0.053    26.755     8.483
     4   7 N        2.796    -0.054    22.278     7.010
     5   6 C        3.047     0.105    25.638     8.304
     6   6 C        3.114    -0.024    28.446     8.737
     7   6 C        2.777     0.253    22.742     7.811
     8   8 O        0.857    -0.368    21.043     6.150
     9   7 N        2.741    -0.031    21.845     6.942
    10   6 C        2.815    -0.026    28.632     8.767
    11   6 C        2.736     0.309    21.747     7.635
    12   8 O        0.859    -0.348    20.667     6.095
    13   7 N        2.737    -0.049    22.189     6.996
    14   6 C        3.698    -0.074    22.084     6.721
    15   1 H        0.924     0.110     1.695     2.036
    16   1 H        0.925     0.106     1.735     2.060
    17   1 H        0.925     0.137     1.479     1.902
    18   1 H        0.926     0.127     1.559     1.953
    19   1 H        0.000    -0.006     7.873     5.131
    20   1 H        0.925     0.136     1.487     1.907
    21   1 H        0.926     0.127     1.560     1.953
    22   1 H        0.925     0.083     1.943     2.180
    23   1 H        0.925     0.084     1.941     2.179
    24   1 H        0.925     0.128     1.551     1.948
    25   1 H        0.860     0.231     0.960     1.535

Wiberg/Mayer (AO) data.
largest (>0.10) Wiberg bond orders for each atom

     #   Z sym  total        # sym  WBO       # sym  WBO       # sym  WBO
 ---------------------------------------------------------------------------
     1   6 C    3.915 --     2 N    0.985    16 H    0.964    17 H    0.960
                            15 H    0.955
     2   7 N    3.689 --     3 C    1.404     6 C    1.150     1 C    0.985
     3   6 C    3.886 --     2 N    1.404     4 N    1.287    18 H    0.952
     4   7 N    3.607 --     3 C    1.287     5 C    1.192    25 H    0.918
     5   6 C    3.908 --     6 C    1.327    13 N    1.193     4 N    1.192
     6   6 C    3.917 --     5 C    1.327     2 N    1.150     7 C    1.109
     7   6 C    3.881 --     8 O    1.669     6 C    1.109     9 N    1.001
     8   8 O    1.964 --     7 C    1.669     9 N    0.112
     9   7 N    3.631 --    10 C    1.341    11 C    1.008     7 C    1.001
                             8 O    0.112
    10   6 C    3.353 --     9 N    1.341    21 H    0.960    20 H    0.921
    11   6 C    3.913 --    12 O    1.716    13 N    1.088     9 N    1.008
    12   8 O    2.034 --    11 C    1.716    13 N    0.136
    13   7 N    3.575 --     5 C    1.193    11 C    1.088    14 C    0.969
                            12 O    0.136
    14   6 C    3.924 --    23 H    0.972    22 H    0.972    13 N    0.969
                            24 H    0.965
    15   1 H    0.985 --     1 C    0.955
    16   1 H    0.987 --     1 C    0.964
    17   1 H    0.981 --     1 C    0.960
    18   1 H    0.983 --     3 C    0.952
    19   1 H    0.075
    20   1 H    0.981 --    10 C    0.921
    21   1 H    0.982 --    10 C    0.960
    22   1 H    0.992 --    14 C    0.972
    23   1 H    0.992 --    14 C    0.972
    24   1 H    0.983 --    14 C    0.965
    25   1 H    0.946 --     4 N    0.918
 ---------------------------------------------------------------------------

molecular dipole:
                 x           y           z       tot (Debye)
 q only:        2.508      -2.231       0.064
   full:        2.766      -2.696       0.122       9.822

           -------------------------------------------------
          | TOTAL ENERGY              -42.080983420509 Eh   |
          | GRADIENT NORM               0.005055873618 Eh/α |
          | HOMO-LUMO GAP               0.169929214683 eV   |
           -------------------------------------------------

 * finished run on 2024/06/05 at 19:58:06.945
