   * xtb version 6.6.1 (8d0f1dd) compiled by 'conda@1efc2f54142f' on 2023-08-01
          program call               : xtb struc.xyz --opt loose --input .xc1 --gfn2

   ID    Z sym.   atoms
    1    6 C      1, 3, 5-7, 10, 11, 14
    2    7 N      2, 4, 9, 13
    3    8 O      8, 12
    4    1 H      15-25
constraining bond 6 9 to    4.9200000 Å, actual value:    2.3455329 Å

          :  Hamiltonian                  GFN2-xTB          :
 * total energy  :   -30.4135651 Eh     change       -0.6650680E-10 Eh
 * total energy  :   -34.6115024 Eh     change       -0.4197937E+01 Eh
 * total energy  :   -37.4954543 Eh     change       -0.2883952E+01 Eh
 * total energy  :   -39.3046585 Eh     change       -0.1809204E+01 Eh
 * total energy  :   -40.5408694 Eh     change       -0.1236211E+01 Eh
 * total energy  :   -41.1098126 Eh     change       -0.5689432E+00 Eh
 * total energy  :   -41.2774049 Eh     change       -0.1675923E+00 Eh
 * total energy  :   -41.3955962 Eh     change       -0.1181913E+00 Eh
 * total energy  :   -41.4710177 Eh     change       -0.7542154E-01 Eh
 * total energy  :   -41.5267390 Eh     change       -0.5572123E-01 Eh
 * total energy  :   -42.1444359 Eh     change       -0.1296140E-03 Eh
 * total energy  :   -42.1445766 Eh     change       -0.1406743E-03 Eh
 * total energy  :   -42.1446899 Eh     change       -0.1133732E-03 Eh
 * total energy  :   -42.1448115 Eh     change       -0.1215420E-03 Eh
 * total energy  :   -42.1449014 Eh     change       -0.8987209E-04 Eh
 * total energy  :   -42.1449668 Eh     change       -0.6542099E-04 Eh
 * total energy  :   -42.1449779 Eh     change       -0.1107533E-04 Eh
 * total energy  :   -42.1450525 Eh     change       -0.7465912E-04 Eh
 * total energy  :   -42.1450700 Eh     change       -0.1751275E-04 Eh
   *** GEOMETRY OPTIMIZATION CONVERGED AFTER 68 ITERATIONS ***

 final structure:
================
25
 xtb: 6.6.1 (8d0f1dd)
C            3.76163357087108        0.88691690928323        0.04424334578232
N            2.79126038146422       -0.16994443001812        0.00531109751678
C            3.02732359599159       -1.46511931231966       -0.07928196639568
N            1.88750143336309       -2.16432701480875       -0.06035145595635
C            0.77591568313426       -1.29356089843052        0.03941243611772
C            1.40416656242753        0.03306546126442        0.09459883320428
C            0.76567646747350        1.18733395088086        0.22472025160699
O            0.10366075035732        2.13298505215585        0.31879440386752
N           -3.26843432821026        1.52738311750030       -0.27644769225600
C           -3.36274307990724        2.92267628101594       -0.15358087902892
C           -3.49839625061162        0.41728723930509        0.06857517540700
O           -3.62552272548905       -0.72126020758460        0.24100432268710
N           -0.45321203631500       -1.53671782464725        0.06779381853245
C           -1.08026340619363       -2.81390314254290        0.01848765000130
H            3.84807118768049        1.29106880121043        1.05616813489679
H            4.73200812694825        0.50628495260515       -0.26762658311988
H            3.46048450810471        1.69432251604287       -0.62437771535183
H            4.00682022918760       -1.89983463196745       -0.15742115368373
H           -2.35400170015755        3.33229978896828       -0.07387564688354
H           -3.83710043584816        3.32605611908991       -1.05030926486965
H           -3.94373383991669        3.21172933028210        0.72440095587124
H           -0.62968293746473       -3.53639646930142        0.70574320216318
H           -1.04292548535390       -3.21884558690127       -0.99624185861517
H           -2.12516289468316       -2.66307148867679        0.28696027531044
H            1.81708813724942       -3.16818997081471       -0.12552806889812

          :  Hamiltonian                  GFN2-xTB          :
         :: total energy             -42.145070023415 Eh    ::
         :: gradient norm              0.003847930331 Eh/a0 ::
         :: HOMO-LUMO gap              2.254679623010 eV    ::
         :: SCC energy               -42.766915007103 Eh    ::
         :: -> dispersion             -0.018366392510 Eh    ::
         :: repulsion energy           0.621798847938 Eh    ::

    * Orbital Energies and Occupations

         #    Occupation            Energy/Eh            Energy/eV
      -------------------------------------------------------------
         1        2.0000           -0.9088023             -24.7298
       ...           ...                  ...                  ...
        25        2.0000           -0.6494134             -17.6714
        26        2.0000           -0.6426417             -17.4872
        27        2.0000           -0.6409065             -17.4400
        28        1.9999           -0.6398301             -17.4107
        29        1.9997           -0.6145905             -16.7239
        30        1.9997           -0.6128239             -16.6758
        31        1.9997           -0.6119558             -16.6522
        32        1.9994           -0.6016608             -16.3720
        33        1.9991           -0.5943835             -16.1740
        34        1.9360           -0.5270203             -14.3410
        35        1.9299           -0.5255479             -14.3009
        36        1.9143           -0.5222225             -14.2104
        37        1.8903           -0.5181150             -14.0986 (HOMO)
        38        0.1684           -0.4352570             -11.8439 (LUMO)
        39        0.1606           -0.4344328             -11.8215
        40        0.0031           -0.3705336             -10.0827
        41        0.0000           -0.2885813              -7.8527
        42        0.0000           -0.2883364              -7.8460
        43        0.0000           -0.2698178              -7.3421
        44                         -0.1797700              -4.8918
        45                         -0.1460770              -3.9750
        46                         -0.0861702              -2.3448
        47                         -0.0650261              -1.7694
        48                         -0.0509012              -1.3851
       ...                                ...                  ...
        67                          1.2518945              34.0658
      -------------------------------------------------------------
                  HL-Gap            0.0828580 Eh            2.2547 eV

     #   Z          covCN         q      C6AA      α(0)
     1   6 C        3.691    -0.084    22.289     6.756
     2   7 N        2.800     0.060    20.201     6.675
     3   6 C        2.958     0.078    26.249     8.403
     4   7 N        2.770    -0.092    23.029     7.127
     5   6 C        2.923     0.154    24.660     8.144
     6   6 C        3.042    -0.021    28.479     8.753
     7   6 C        1.844     0.249    25.384     8.139
     8   8 O        0.856    -0.130    16.966     5.522
     9   7 N        1.820    -0.141    24.826     7.383
    10   6 C        3.685    -0.033    21.368     6.618
    11   6 C        1.769     0.311    24.243     7.960
    12   8 O        0.856    -0.256    19.007     5.845
    13   7 N        1.824    -0.206    26.315     7.601
    14   6 C        3.698    -0.042    21.488     6.630
    15   1 H        0.924     0.102     1.769     2.080
    16   1 H        0.925     0.103     1.762     2.076
    17   1 H        0.924     0.100     1.785     2.089
    18   1 H        0.926     0.114     1.665     2.018
    19   1 H        0.924     0.094     1.842     2.123
    20   1 H        0.924     0.096     1.822     2.111
    21   1 H        0.924     0.084     1.939     2.178
    22   1 H        0.924     0.057     2.238     2.339
    23   1 H        0.924     0.075     2.031     2.229
    24   1 H        0.925     0.109     1.705     2.042
    25   1 H        0.860     0.219     1.014     1.577

Wiberg/Mayer (AO) data.
largest (>0.10) Wiberg bond orders for each atom

     #   Z sym  total        # sym  WBO       # sym  WBO       # sym  WBO
 ---------------------------------------------------------------------------
     1   6 C    3.934 --     2 N    0.994    16 H    0.973    17 H    0.967
                            15 H    0.960
     2   7 N    3.618 --     3 C    1.400     6 C    1.046     1 C    0.994
                             4 N    0.111
     3   6 C    3.837 --     2 N    1.400     4 N    1.317    18 H    0.949
     4   7 N    3.534 --     3 C    1.317     5 C    1.030    25 H    0.923
                             2 N    0.111    13 N    0.100
     5   6 C    3.926 --    13 N    1.715     6 C    1.033     4 N    1.030
     6   6 C    3.873 --     7 C    1.484     2 N    1.046     5 C    1.033
                             8 O    0.152
     7   6 C    3.693 --     8 O    2.066     6 C    1.484
     8   8 O    2.341 --     7 C    2.066     6 C    0.152
     9   7 N    3.362 --    11 C    1.987    10 C    1.026    12 O    0.348
    10   6 C    3.921 --     9 N    1.026    21 H    0.954    19 H    0.952
                            20 H    0.952
    11   6 C    3.937 --     9 N    1.987    12 O    1.881
    12   8 O    2.271 --    11 C    1.881     9 N    0.348
    13   7 N    3.024 --     5 C    1.715    14 C    1.031     4 N    0.100
    14   6 C    3.938 --    13 N    1.031    24 H    0.958    22 H    0.957
                            23 H    0.947
    15   1 H    0.986 --     1 C    0.960
    16   1 H    0.989 --     1 C    0.973
    17   1 H    0.988 --     1 C    0.967
    18   1 H    0.984 --     3 C    0.949
    19   1 H    0.976 --    10 C    0.952
    20   1 H    0.975 --    10 C    0.952
    21   1 H    0.978 --    10 C    0.954
    22   1 H    0.980 --    14 C    0.957
    23   1 H    0.978 --    14 C    0.947
    24   1 H    0.973 --    14 C    0.958
    25   1 H    0.950 --     4 N    0.923
 ---------------------------------------------------------------------------

molecular dipole:
                 x           y           z       tot (Debye)
 q only:        2.921      -0.252      -0.141
   full:        3.288      -0.629      -0.101       8.512

           -------------------------------------------------
          | TOTAL ENERGY              -42.145070023415 Eh   |
          | GRADIENT NORM               0.003847930331 Eh/α |
          | HOMO-LUMO GAP               2.254679623010 eV   |
           -------------------------------------------------

 * finished run on 2024/06/05 at 20:00:14.655
