   * xtb version 6.6.1 (8d0f1dd) compiled by 'conda@1efc2f54142f' on 2023-08-01
          program call               : xtb xtbopt.xyz --opt crude --input .xc2 --gfn2

   ID    Z sym.   atoms
    1    7 N      1, 17
    2    6 C      2-6, 8, 9, 11-16, 18-23, 25, 26, 28-33
    3    8 O      7, 10, 24, 27
    4    1 H      34-72

          :  Hamiltonian                  GFN2-xTB          :
 * total energy  :   -99.2524729 Eh     change       -0.3238654E-10 Eh
   *** GEOMETRY OPTIMIZATION CONVERGED AFTER 1 ITERATIONS ***

 final structure:
================
72
 xtb: 6.6.1 (8d0f1dd)
N           -1.80318299718314        2.77326565489362        2.20925996318546
C           -1.80594167560959        2.02103611786242        1.21402327407693
C           -2.97607552763771        1.83246633856328        0.28772284842845
C           -3.45284013917919        0.38962571606041        0.36617604806307
C           -4.38567580651793       -0.08362298735047       -0.55826609626430
C           -4.86347761828638       -1.38320000602504       -0.50447868945088
O           -5.76377245924316       -1.91696703386637       -1.35200056666677
C           -6.35339569606543       -1.10463128760505       -2.34003955254578
C           -4.39088247823232       -2.26152160246895        0.51086531498914
O           -4.90665329516135       -3.50276817053018        0.48803414802182
C           -4.54147565297364       -4.41901843390301        1.49505501642905
C           -3.46493545788867       -1.78263556525394        1.42605951913374
C           -3.00587159111840       -0.47526646982913        1.35500261960467
C           -2.44835503350633        2.13642307938635       -1.13905736509042
C           -1.50048335644277        1.06538330163194       -1.70020653238400
C           -0.14635352753008        1.11198836045735       -1.10436417094289
N            0.62111959275558        0.08307363617083       -0.82557025710196
C            1.99669931527122        0.28357445803804       -0.44096799475873
C            2.95467332886980        0.09153340269279       -1.62830113998653
C            4.36867108137393        0.16539832808913       -1.13235170455247
C            5.20073429211291        1.25986274279898       -1.38774527669943
C            6.48392261216314        1.31176412542724       -0.87042848741448
C            6.99263252387543        0.28615390707191       -0.08031446744354
O            8.21443114029663        0.24176503000699        0.47159739591370
C            9.10475408017949        1.31673980745135        0.26201754834224
C            6.15546452678489       -0.84804391808557        0.18473564200732
O            6.64873249840351       -1.83329159258574        0.94316767721593
C            5.80186414039664       -2.95072961762868        1.11547766419558
C            4.89781514718419       -0.82774247816196       -0.35488293893036
C            0.17889374681856       -1.28579041997484       -0.89249192199289
C           -4.17927768655387        2.76486573361650        0.61769073288356
C           -4.77369081774991        2.44258141271880        1.98643532833498
C           -3.83049090086993        4.24870972350925        0.54266198545372
H           -4.75530807000545        0.57762101752392       -1.32432369372151
H           -6.87662461277138       -0.25148565647420       -1.89803819101369
H           -7.07223841873897       -1.74218685465485       -2.85083427218875
H           -5.61214422752671       -0.74739054392335       -3.06235924472066
H           -4.82073219029519       -4.05330122764194        2.48747204578818
H           -5.09595068476756       -5.32936110636328        1.27617901064498
H           -3.46868584880385       -4.63330294240970        1.47250744238162
H           -3.09838219885766       -2.42019979205188        2.21363169653763
H           -2.30667505525701       -0.13448497957602        2.10229356628011
H           -3.29970453191614        2.22697127542730       -1.81269134251742
H           -1.93539851173044        3.09866782058237       -1.12806821801820
H           -1.95681375480956        0.08049394203722       -1.60727271353610
H           -1.38082369827984        1.26812758250537       -2.77258678062305
H           -0.92408677565890        1.44131819059683        0.88123247894215
H            0.31118971714282        2.08881644295504       -1.01878468728412
H            2.25016923491695       -0.46847802735701        0.33228217375327
H            2.12594883633938        1.28544286014371       -0.02647794997116
H            2.77285145145563        0.85888207388514       -2.38295624819219
H            2.78099691757941       -0.89035375770326       -2.07133298458724
H            4.83519834343065        2.07223281489180       -1.99805497598859
H            7.09420949672358        2.17319353939264       -1.09081020207904
H            8.70388520569847        2.24965328477347        0.66958122467684
H            9.32918937404829        1.44754530154520       -0.80060275187899
H           10.01553665153575        1.05042069880263        0.79470723366084
H            6.25849528172263       -3.57043130066421        1.88337268287013
H            4.79907235622223       -2.63609717523100        1.42304523910254
H            5.71967981735487       -3.51672000198654        0.18219435257714
H            2.19661641963606       -2.04913392386010        1.14160495315465
H            0.33799151531952       -1.70389760658619       -1.88816127834171
H           -0.87619893394889       -1.36874041581611       -0.63708760700175
H            0.76649265981091       -1.87136133928239       -0.17258231218815
H           -4.94607714782234        2.55923059269675       -0.13820545576698
H           -4.05076585587612        2.65824339860075        2.76693597669187
H           -5.06439289537845        1.39691785631228        2.05302452424466
H           -5.65604235090976        3.05442661085520        2.15413971731570
H           -3.03768355681030        4.48599226515064        1.24543993620847
H           -3.52639735360346        4.54573684280795       -0.45761419536790
H           -4.70628000253419        4.83394868138714        0.81023255767675
H           -0.95117731440717        2.84620178797065        2.75571757100186

          :  Hamiltonian                  GFN2-xTB          :
         :: total energy             -99.252472942162 Eh    ::
         :: gradient norm              0.002414462662 Eh/a0 ::
         :: HOMO-LUMO gap              0.337598783659 eV    ::
         :: SCC energy              -100.621201282306 Eh    ::
         :: -> dispersion             -0.076983010420 Eh    ::
         :: repulsion energy           1.367368179818 Eh    ::

    * Orbital Energies and Occupations

         #    Occupation            Energy/Eh            Energy/eV
      -------------------------------------------------------------
         1        2.0000           -0.8163512             -22.2140
       ...           ...                  ...                  ...
        78        1.9975           -0.5349778             -14.5575
        79        1.9973           -0.5340818             -14.5331
        80        1.9971           -0.5327468             -14.4968
        81        1.9961           -0.5280165             -14.3681
        82        1.9941           -0.5213578             -14.1869
        83        1.9931           -0.5190099             -14.1230
        84        1.9918           -0.5162817             -14.0487
        85        1.9727           -0.4970240             -13.5247
        86        1.9579           -0.4900484             -13.3349
        87        1.9145           -0.4784882             -13.0203
        88        1.8146           -0.4653902             -12.6639
        89        1.7507           -0.4601283             -12.5207
        90        1.3724           -0.4416594             -12.0182 (HOMO)
        91        0.9995           -0.4292529             -11.6806 (LUMO)
        92        0.2478           -0.3982950             -10.8382
        93        0.0106           -0.3463871              -9.4257
        94        0.0024           -0.3228203              -8.7844
        95        0.0020           -0.3199062              -8.7051
        96        0.0018           -0.3180875              -8.6556
        97        0.0010           -0.3088533              -8.4043
        98        0.0000           -0.1973289              -5.3696
        99        0.0000           -0.1884988              -5.1293
       100                         -0.1317361              -3.5847
       101                         -0.0742708              -2.0210
       ...                                ...                  ...
       171                          0.5668815              15.4256
      -------------------------------------------------------------
                  HL-Gap            0.0124065 Eh            0.3376 eV

     #   Z          covCN         q      C6AA      α(0)
     1   7 N        1.774    -0.260    27.587     7.778
     2   6 C        2.827     0.102    25.734     8.312
     3   6 C        3.908     0.007    20.404     6.421
     4   6 C        2.974     0.003    27.954     8.673
     5   6 C        2.920    -0.080    29.988     8.980
     6   6 C        2.862     0.132    25.119     8.215
     7   8 O        1.706    -0.223    17.705     5.681
     8   6 C        3.644     0.026    20.477     6.504
     9   6 C        2.864     0.132    25.105     8.213
    10   8 O        1.706    -0.220    17.647     5.672
    11   6 C        3.645     0.024    20.507     6.508
    12   6 C        2.913    -0.070    29.750     8.944
    13   6 C        2.921    -0.049    29.210     8.863
    14   6 C        3.813    -0.066    21.756     6.639
    15   6 C        3.802    -0.069    21.822     6.651
    16   6 C        2.846     0.017    27.617     8.613
    17   7 N        2.729     0.040    20.544     6.732
    18   6 C        3.762    -0.027    21.102     6.548
    19   6 C        3.808    -0.062    21.690     6.630
    20   6 C        2.966     0.019    27.574     8.613
    21   6 C        2.932    -0.043    29.062     8.841
    22   6 C        2.911    -0.071    29.762     8.946
    23   6 C        2.869     0.137    25.007     8.197
    24   8 O        1.705    -0.211    17.506     5.649
    25   6 C        3.646     0.023    20.526     6.511
    26   6 C        2.878     0.148    24.775     8.160
    27   8 O        1.705    -0.205    17.416     5.635
    28   6 C        3.663     0.024    20.443     6.486
    29   6 C        2.017    -0.095    33.622     9.365
    30   6 C        3.701    -0.079    22.168     6.733
    31   6 C        3.853    -0.007    20.674     6.467
    32   6 C        3.756    -0.119    22.831     6.813
    33   6 C        3.755    -0.120    22.855     6.817
    34   1 H        0.926     0.053     2.277     2.360
    35   1 H        0.924     0.056     2.245     2.343
    36   1 H        0.925     0.084     1.937     2.176
    37   1 H        0.924     0.050     2.321     2.383
    38   1 H        0.924     0.059     2.211     2.325
    39   1 H        0.925     0.084     1.934     2.175
    40   1 H        0.924     0.055     2.258     2.350
    41   1 H        0.926     0.060     2.199     2.319
    42   1 H        0.926     0.046     2.372     2.408
    43   1 H        0.925     0.062     2.171     2.304
    44   1 H        0.924     0.056     2.246     2.344
    45   1 H        0.925     0.069     2.093     2.262
    46   1 H        0.923     0.086     1.916     2.165
    47   1 H        0.922     0.012     2.860     2.645
    48   1 H        0.925     0.076     2.018     2.221
    49   1 H        0.922     0.112     1.679     2.027
    50   1 H        0.924     0.063     2.169     2.303
    51   1 H        0.924     0.051     2.310     2.377
    52   1 H        0.924     0.068     2.102     2.267
    53   1 H        0.926     0.059     2.205     2.322
    54   1 H        0.926     0.066     2.126     2.280
    55   1 H        0.924     0.059     2.210     2.325
    56   1 H        0.924     0.060     2.196     2.317
    57   1 H        0.925     0.087     1.905     2.159
    58   1 H        0.925     0.082     1.957     2.188
    59   1 H        0.924     0.071     2.079     2.255
    60   1 H        0.924     0.063     2.169     2.303
    61   1 H        0.000    -0.301    56.496    13.744
    62   1 H        0.924     0.082     1.955     2.186
    63   1 H        0.925     0.076     2.023     2.224
    64   1 H        0.923     0.112     1.679     2.026
    65   1 H        0.924     0.040     2.454     2.450
    66   1 H        0.925     0.070     2.088     2.260
    67   1 H        0.925     0.037     2.490     2.468
    68   1 H        0.925     0.054     2.273     2.358
    69   1 H        0.925     0.064     2.156     2.296
    70   1 H        0.925     0.036     2.500     2.472
    71   1 H        0.925     0.057     2.232     2.336
    72   1 H        0.860     0.163     1.318     1.798

Wiberg/Mayer (AO) data.
largest (>0.10) Wiberg bond orders for each atom

     #   Z sym  total        # sym  WBO       # sym  WBO       # sym  WBO
 ---------------------------------------------------------------------------
     1   7 N    3.040 --     2 C    1.961    72 H    0.939
     2   6 C    3.933 --     1 N    1.961     3 C    0.993    47 H    0.899
     3   6 C    3.972 --     2 C    0.993     4 C    0.970    14 C    0.956
                            31 C    0.942
     4   6 C    3.936 --    13 C    1.405     5 C    1.371     3 C    0.970
     5   6 C    3.956 --     6 C    1.396     4 C    1.371    34 H    0.957
     6   6 C    3.893 --     5 C    1.396     9 C    1.213     7 O    1.107
     7   8 O    2.253 --     6 C    1.107     8 C    0.977
     8   6 C    3.929 --     7 O    0.977    36 H    0.976    35 H    0.972
                            37 H    0.972
     9   6 C    3.889 --    12 C    1.382     6 C    1.213    10 O    1.113
    10   8 O    2.253 --     9 C    1.113    11 C    0.975
    11   6 C    3.925 --    39 H    0.976    10 O    0.975    40 H    0.972
                            38 H    0.972
    12   6 C    3.955 --    13 C    1.413     9 C    1.382    41 H    0.962
    13   6 C    3.943 --    12 C    1.413     4 C    1.405    42 H    0.961
    14   6 C    3.977 --    15 C    0.988    44 H    0.971    43 H    0.968
                             3 C    0.956
    15   6 C    3.986 --    16 C    1.058    14 C    0.988    45 H    0.955
                            46 H    0.923
    16   6 C    3.697 --    17 N    1.477    15 C    1.058    48 H    0.954
    17   7 N    3.569 --    16 C    1.477    30 C    0.999    18 C    0.986
    18   6 C    3.899 --    17 N    0.986    50 H    0.968    19 C    0.965
                            49 H    0.901
    19   6 C    3.965 --    20 C    1.001    51 H    0.973    18 C    0.965
                            52 H    0.964
    20   6 C    3.899 --    29 C    1.426    21 C    1.330    19 C    1.001
    21   6 C    3.866 --    22 C    1.433    20 C    1.330    53 H    0.956
    22   6 C    3.946 --    21 C    1.433    23 C    1.372    54 H    0.956
    23   6 C    3.821 --    22 C    1.372    26 C    1.160    24 O    1.122
    24   8 O    2.247 --    23 C    1.122    25 C    0.969
    25   6 C    3.917 --    57 H    0.976    55 H    0.971    56 H    0.971
                            24 O    0.969
    26   6 C    3.850 --    29 C    1.394    23 C    1.160    27 O    1.126
    27   8 O    2.247 --    26 C    1.126    28 C    0.968
    28   6 C    3.906 --    58 H    0.977    60 H    0.969    27 O    0.968
                            59 H    0.964
    29   6 C    3.062 --    20 C    1.426    26 C    1.394
    30   6 C    3.923 --    17 N    0.999    63 H    0.967    62 H    0.958
                            64 H    0.937
    31   6 C    3.968 --    33 C    1.008    32 C    1.008    65 H    0.958
                             3 C    0.942
    32   6 C    3.974 --    31 C    1.008    67 H    0.981    68 H    0.980
                            66 H    0.972
    33   6 C    3.978 --    31 C    1.008    70 H    0.982    71 H    0.979
                            69 H    0.974
    34   1 H    0.996 --     5 C    0.957
    35   1 H    0.992 --     8 C    0.972
    36   1 H    0.992 --     8 C    0.976
    37   1 H    0.992 --     8 C    0.972
    38   1 H    0.990 --    11 C    0.972
    39   1 H    0.992 --    11 C    0.976
    40   1 H    0.991 --    11 C    0.972
    41   1 H    0.994 --    12 C    0.962
    42   1 H    0.997 --    13 C    0.961
    43   1 H    0.995 --    14 C    0.968
    44   1 H    0.996 --    14 C    0.971
    45   1 H    0.994 --    15 C    0.955
    46   1 H    0.974 --    15 C    0.923
    47   1 H    0.982 --     2 C    0.899
    48   1 H    0.994 --    16 C    0.954
    49   1 H    0.985 --    18 C    0.901
    50   1 H    0.994 --    18 C    0.968
    51   1 H    0.994 --    19 C    0.973
    52   1 H    0.991 --    19 C    0.964
    53   1 H    0.982 --    21 C    0.956
    54   1 H    0.987 --    22 C    0.956
    55   1 H    0.989 --    25 C    0.971
    56   1 H    0.989 --    25 C    0.971
    57   1 H    0.991 --    25 C    0.976
    58   1 H    0.992 --    28 C    0.977
    59   1 H    0.988 --    28 C    0.964
    60   1 H    0.986 --    28 C    0.969
    61   1 H    0.131
    62   1 H    0.984 --    30 C    0.958
    63   1 H    0.991 --    30 C    0.967
    64   1 H    0.986 --    30 C    0.937
    65   1 H    0.990 --    31 C    0.958
    66   1 H    0.989 --    32 C    0.972
    67   1 H    0.996 --    32 C    0.981
    68   1 H    0.993 --    32 C    0.980
    69   1 H    0.991 --    33 C    0.974
    70   1 H    0.996 --    33 C    0.982
    71   1 H    0.992 --    33 C    0.979
    72   1 H    0.967 --     1 N    0.939
 ---------------------------------------------------------------------------

molecular dipole:
                 x           y           z       tot (Debye)
 q only:        0.109       1.004      -1.537
   full:        0.493       1.109      -1.766       5.446

           -------------------------------------------------
          | TOTAL ENERGY              -99.252472942162 Eh   |
          | GRADIENT NORM               0.002414462662 Eh/α |
          | HOMO-LUMO GAP               0.337598783659 eV   |
           -------------------------------------------------

 * finished run on 2024/04/06 at 11:14:11.390
