   * xtb version 6.6.1 (8d0f1dd) compiled by 'conda@1efc2f54142f' on 2023-08-01
          program call               : xtb xtbopt.xyz --opt crude --input .xc2 --gfn2

   ID    Z sym.   atoms
    1    7 N      1, 17
    2    6 C      2-6, 8, 9, 11-16, 18-23, 25, 26, 28-33
    3    8 O      7, 10, 24, 27
    4    1 H      34-72
########################################################################
[WARNING] Please study the warnings concerning your input carefully
-1- readin_getIntValue: could not parse ''
########################################################################

          :  Hamiltonian                  GFN2-xTB          :
 * total energy  :   -99.3811059 Eh     change       -0.3780087E-11 Eh
   *** GEOMETRY OPTIMIZATION CONVERGED AFTER 1 ITERATIONS ***

 final structure:
================
72
 xtb: 6.6.1 (8d0f1dd)
N           -2.37772698114210        2.96664454515915        2.53023254904348
C           -2.15033586129097        2.18894583789438        1.57754421898593
C           -3.10833216082836        1.96421685057315        0.43476416582585
C           -3.65824857871806        0.55685764417319        0.51616296150129
C           -4.56876826655863        0.11001603912647       -0.58617942786661
C           -4.98404188854018       -1.31696818783912       -0.52587200806023
O           -5.77831970925683       -1.84978703704388       -1.45982252804075
C           -6.31100958706477       -1.05064148415292       -2.48854037062992
C           -4.57263149052810       -2.16180826338751        0.50932708278925
O           -5.00765035110112       -3.44136306628083        0.42461926815587
C           -4.64862961977462       -4.35214007029800        1.43832651804263
C           -3.77607462281934       -1.64706318007819        1.53005336597087
C           -3.33996728911778       -0.31052693393498        1.51137643193236
C           -2.23600907195876        2.08238966854782       -0.86613456815838
C           -1.36602779359486        0.88674440757355       -1.06155439827528
C           -0.06465617186302        0.87814437169968       -0.72422352011582
N            0.76690298121156       -0.19287041739313       -0.73538289738843
C            2.15621503081101       -0.06457735955063       -0.38767950456856
C            3.10411488006291       -0.25350084149240       -1.58884454561883
C            4.52082518543896       -0.07281686827429       -1.12705717379908
C            5.18379600299846        1.13100333563002       -1.30770587909443
C            6.46921804766108        1.31498580159877       -0.82261890998329
C            7.11702755870373        0.29805057642196       -0.13513130541992
O            8.35373587144588        0.36761105021307        0.39073779669487
C            9.09417401337844        1.55802321640110        0.25245068983836
C            6.44652878444598       -0.94335855087654        0.05315023868603
O            7.14827530006255       -1.87553522951991        0.72829920106273
C            6.57019821368831       -3.13693645491532        0.96456075216720
C            5.16352513818678       -1.10428969436535       -0.44532712920436
C            0.28364267074817       -1.49586506232807       -1.11221971148192
C           -4.26917572782076        2.99746621430123        0.39542530616685
C           -5.19982969636904        2.82698503947831        1.59457418580656
C           -3.78380012418552        4.44248001630139        0.32146958025056
H           -5.47192703370467        0.73922940526960       -0.58599479602910
H           -6.95007403793277       -0.25559073620459       -2.09013106723441
H           -6.91455046587257       -1.72141831314704       -3.09881882136895
H           -5.52569208952214       -0.60671678185800       -3.10894127601796
H           -5.03651424338577       -4.04198157760700        2.41302979327816
H           -5.10615118616207       -5.29734975050234        1.15238273426938
H           -3.56319472976342       -4.47925120056808        1.49874796439876
H           -3.47585172070059       -2.27229837495225        2.35297021979035
H           -2.72213789047399        0.01478123213377        2.33354944148452
H           -2.90514819452872        2.21398160810614       -1.71880039218905
H           -1.62102640254104        2.97880170951011       -0.78078815022395
H           -4.08710273250891        0.30226453999415       -1.55525849759169
H           -1.83685324006613       -0.01330865761221       -1.42189768283708
H           -1.22049885418859        1.61345858872876        1.46414667204309
H            0.40390638867954        1.79741518487088       -0.39666622835091
H            2.40565305336817       -0.80848823838022        0.37850892992555
H            2.32670567639901        0.92637415530295        0.03842542020881
H            2.85825071674902        0.48042931608691       -2.35659435769681
H            2.96763631988564       -1.25131453887351       -2.00782380261600
H            4.70062735088206        1.93709104365377       -1.83829248319469
H            6.96014417332071        2.26063840455498       -0.98399356689178
H            8.58777552749298        2.40242161098604        0.73023104284670
H            9.28239674163470        1.79237412777414       -0.79953260862484
H           10.04095814441969        1.37301163278453        0.75632967648836
H            7.31881182032776       -3.70287398544156        1.51570063629121
H            5.66175372796686       -3.05474331426005        1.56994159681182
H            6.34130415991561       -3.65556119636766        0.02844379000878
H            4.64895619930388       -2.04344033841782       -0.31377760637147
H            0.08857720013329       -1.55451489289158       -2.18747760410071
H           -0.64260521618477       -1.72300950491034       -0.57816330951009
H            1.02588595871759       -2.24745391660519       -0.85181635970188
H           -4.83850059569512        2.80059337895061       -0.52113817795777
H           -4.67477970655620        3.09785003580055        2.50501352620619
H           -5.54601718246227        1.80002058638779        1.68988999518991
H           -6.06476876492335        3.47652335481875        1.48544730984298
H           -3.19021748282000        4.68821628119123        1.19661979575241
H           -3.19549243018839        4.62499463089966       -0.57503485239171
H           -4.64531400182848        5.10668619416546        0.29739742984574
H           -1.65535404651760        3.06578190578086        3.23665007360742

          :  Hamiltonian                  GFN2-xTB          :
         :: total energy             -99.381105895476 Eh    ::
         :: gradient norm              0.004171531476 Eh/a0 ::
         :: HOMO-LUMO gap              1.144487315219 eV    ::
         :: SCC energy              -100.756515636767 Eh    ::
         :: -> dispersion             -0.072963268739 Eh    ::
         :: repulsion energy           1.374333293707 Eh    ::

    * Orbital Energies and Occupations

         #    Occupation            Energy/Eh            Energy/eV
      -------------------------------------------------------------
         1        2.0000           -0.8343524             -22.7039
       ...           ...                  ...                  ...
        78        1.9985           -0.5313711             -14.4593
        79        1.9982           -0.5287102             -14.3869
        80        1.9980           -0.5269241             -14.3383
        81        1.9977           -0.5245892             -14.2748
        82        1.9963           -0.5169809             -14.0678
        83        1.9959           -0.5154416             -14.0259
        84        1.9958           -0.5152056             -14.0195
        85        1.9953           -0.5134526             -13.9718
        86        1.9711           -0.4843360             -13.1795
        87        1.9449           -0.4739250             -12.8962
        88        1.9199           -0.4677807             -12.7290
        89        1.8249           -0.4545982             -12.3702
        90        1.7311           -0.4469728             -12.1627 (HOMO)
        91        0.6226           -0.4049137             -11.0183 (LUMO)
        92        0.0110           -0.3352244              -9.1219
        93        0.0040           -0.3190545              -8.6819
        94        0.0021           -0.3086704              -8.3993
        95        0.0017           -0.3057326              -8.3194
        96        0.0006           -0.2881544              -7.8411
        97        0.0000           -0.2331633              -6.3447
        98        0.0000           -0.1831071              -4.9826
        99                         -0.1046267              -2.8470
       100                         -0.0873032              -2.3756
       101                         -0.0740659              -2.0154
       ...                                ...                  ...
       171                          0.5803173              15.7912
      -------------------------------------------------------------
                  HL-Gap            0.0420591 Eh            1.1445 eV

     #   Z          covCN         q      C6AA      α(0)
     1   7 N        1.774    -0.270    27.818     7.810
     2   6 C        2.827     0.101    25.764     8.317
     3   6 C        3.907     0.008    20.391     6.419
     4   6 C        2.961     0.006    27.889     8.662
     5   6 C        3.812    -0.077    21.958     6.670
     6   6 C        2.852     0.128    25.184     8.225
     7   8 O        1.706    -0.194    17.243     5.606
     8   6 C        3.643     0.019    20.597     6.524
     9   6 C        2.850     0.128    25.196     8.227
    10   8 O        1.706    -0.238    17.951     5.720
    11   6 C        3.644     0.027    20.466     6.503
    12   6 C        2.913    -0.070    29.734     8.942
    13   6 C        2.905    -0.043    29.080     8.842
    14   6 C        3.815    -0.060    21.644     6.622
    15   6 C        2.891    -0.079    29.975     8.976
    16   6 C        2.842     0.009    27.805     8.642
    17   7 N        2.732    -0.045    22.117     6.985
    18   6 C        3.752    -0.006    20.748     6.496
    19   6 C        3.807    -0.072    21.864     6.656
    20   6 C        2.970     0.006    27.894     8.663
    21   6 C        2.922    -0.046    29.136     8.852
    22   6 C        2.913    -0.066    29.650     8.929
    23   6 C        2.865     0.134    25.072     8.208
    24   8 O        1.706    -0.220    17.647     5.672
    25   6 C        3.645     0.025    20.492     6.506
    26   6 C        2.862     0.134    25.075     8.208
    27   8 O        1.706    -0.223    17.702     5.681
    28   6 C        3.645     0.027    20.454     6.500
    29   6 C        2.920    -0.078    29.951     8.975
    30   6 C        3.698    -0.056    21.753     6.671
    31   6 C        3.851    -0.007    20.675     6.467
    32   6 C        3.756    -0.120    22.857     6.817
    33   6 C        3.755    -0.118    22.816     6.811
    34   1 H        0.923     0.095     1.827     2.114
    35   1 H        0.924     0.064     2.151     2.293
    36   1 H        0.925     0.093     1.850     2.127
    37   1 H        0.924     0.060     2.203     2.321
    38   1 H        0.924     0.055     2.254     2.348
    39   1 H        0.925     0.082     1.956     2.187
    40   1 H        0.924     0.050     2.324     2.384
    41   1 H        0.926     0.062     2.176     2.307
    42   1 H        0.926     0.052     2.296     2.370
    43   1 H        0.924     0.050     2.322     2.383
    44   1 H        0.924     0.052     2.294     2.369
    45   1 H        0.923     0.090     1.884     2.146
    46   1 H        0.926     0.032     2.553     2.499
    47   1 H        0.923     0.014     2.820     2.626
    48   1 H        0.925     0.048     2.349     2.396
    49   1 H        0.924     0.052     2.295     2.369
    50   1 H        0.924     0.058     2.223     2.332
    51   1 H        0.925     0.055     2.256     2.349
    52   1 H        0.924     0.055     2.262     2.352
    53   1 H        0.926     0.051     2.313     2.378
    54   1 H        0.926     0.059     2.208     2.324
    55   1 H        0.924     0.055     2.257     2.349
    56   1 H        0.924     0.057     2.233     2.337
    57   1 H        0.925     0.082     1.954     2.186
    58   1 H        0.925     0.082     1.962     2.190
    59   1 H        0.924     0.049     2.328     2.386
    60   1 H        0.924     0.054     2.275     2.359
    61   1 H        0.926     0.048     2.342     2.393
    62   1 H        0.924     0.061     2.190     2.314
    63   1 H        0.924     0.058     2.219     2.329
    64   1 H        0.925     0.065     2.136     2.285
    65   1 H        0.924     0.031     2.573     2.509
    66   1 H        0.925     0.074     2.045     2.236
    67   1 H        0.925     0.031     2.573     2.508
    68   1 H        0.925     0.050     2.322     2.383
    69   1 H        0.925     0.063     2.166     2.302
    70   1 H        0.925     0.037     2.489     2.467
    71   1 H        0.925     0.054     2.276     2.359
    72   1 H        0.860     0.159     1.341     1.814

Wiberg/Mayer (AO) data.
largest (>0.10) Wiberg bond orders for each atom

     #   Z sym  total        # sym  WBO       # sym  WBO       # sym  WBO
 ---------------------------------------------------------------------------
     1   7 N    3.012 --     2 C    1.956    72 H    0.941
     2   6 C    3.940 --     1 N    1.956     3 C    0.990    47 H    0.929
     3   6 C    3.960 --     2 C    0.990     4 C    0.988    31 C    0.945
                            14 C    0.913
     4   6 C    3.794 --    13 C    1.598     5 C    1.029     3 C    0.988
     5   6 C    3.982 --     6 C    1.038     4 C    1.029    45 H    0.911
                            34 H    0.904
     6   6 C    3.684 --     9 C    1.316     7 O    1.156     5 C    1.038
     7   8 O    2.280 --     6 C    1.156     8 C    0.974
     8   6 C    3.921 --    36 H    0.975     7 O    0.974    37 H    0.968
                            35 H    0.967
     9   6 C    3.910 --    12 C    1.341     6 C    1.316    10 O    1.086
    10   8 O    2.241 --     9 C    1.086    11 C    0.977
    11   6 C    3.930 --    10 O    0.977    39 H    0.976    40 H    0.974
                            38 H    0.974
    12   6 C    3.750 --     9 C    1.341    13 C    1.296    41 H    0.965
    13   6 C    3.978 --     4 C    1.598    12 C    1.296    42 H    0.958
    14   6 C    3.976 --    15 C    1.039    44 H    0.969    43 H    0.960
                             3 C    0.913
    15   6 C    3.820 --    16 C    1.669    14 C    1.039    46 H    0.961
    16   6 C    3.938 --    15 C    1.669    17 N    1.218    48 H    0.954
    17   7 N    3.382 --    16 C    1.218    30 C    1.007    18 C    1.004
    18   6 C    3.963 --    17 N    1.004    50 H    0.969    19 C    0.967
                            49 H    0.962
    19   6 C    3.977 --    20 C    1.012    51 H    0.973    52 H    0.968
                            18 C    0.967
    20   6 C    3.934 --    21 C    1.402    29 C    1.378    19 C    1.012
    21   6 C    3.938 --    22 C    1.419    20 C    1.402    53 H    0.967
    22   6 C    3.953 --    21 C    1.419    23 C    1.380    54 H    0.963
    23   6 C    3.882 --    22 C    1.380    26 C    1.214    24 O    1.111
    24   8 O    2.248 --    23 C    1.111    25 C    0.976
    25   6 C    3.927 --    57 H    0.977    24 O    0.976    55 H    0.972
                            56 H    0.972
    26   6 C    3.888 --    29 C    1.395    23 C    1.214    27 O    1.105
    27   8 O    2.249 --    26 C    1.105    28 C    0.979
    28   6 C    3.931 --    27 O    0.979    58 H    0.977    59 H    0.973
                            60 H    0.973
    29   6 C    3.955 --    26 C    1.395    20 C    1.378    61 H    0.962
    30   6 C    3.969 --    17 N    1.007    64 H    0.979    63 H    0.971
                            62 H    0.969
    31   6 C    3.971 --    33 C    1.010    32 C    1.007    65 H    0.958
                             3 C    0.945
    32   6 C    3.978 --    31 C    1.007    68 H    0.982    67 H    0.982
                            66 H    0.973
    33   6 C    3.982 --    31 C    1.010    70 H    0.983    71 H    0.980
                            69 H    0.976
    34   1 H    0.953 --     5 C    0.904
    35   1 H    0.989 --     8 C    0.967
    36   1 H    0.991 --     8 C    0.975
    37   1 H    0.991 --     8 C    0.968
    38   1 H    0.994 --    11 C    0.974
    39   1 H    0.993 --    11 C    0.976
    40   1 H    0.994 --    11 C    0.974
    41   1 H    0.995 --    12 C    0.965
    42   1 H    0.997 --    13 C    0.958
    43   1 H    0.991 --    14 C    0.960
    44   1 H    0.995 --    14 C    0.969
    45   1 H    0.958 --     5 C    0.911
    46   1 H    0.998 --    15 C    0.961
    47   1 H    0.982 --     2 C    0.929
    48   1 H    0.997 --    16 C    0.954
    49   1 H    0.989 --    18 C    0.962
    50   1 H    0.996 --    18 C    0.969
    51   1 H    0.996 --    19 C    0.973
    52   1 H    0.995 --    19 C    0.968
    53   1 H    0.997 --    21 C    0.967
    54   1 H    0.995 --    22 C    0.963
    55   1 H    0.991 --    25 C    0.972
    56   1 H    0.990 --    25 C    0.972
    57   1 H    0.992 --    25 C    0.977
    58   1 H    0.993 --    28 C    0.977
    59   1 H    0.992 --    28 C    0.973
    60   1 H    0.992 --    28 C    0.973
    61   1 H    0.996 --    29 C    0.962
    62   1 H    0.986 --    30 C    0.969
    63   1 H    0.990 --    30 C    0.971
    64   1 H    0.995 --    30 C    0.979
    65   1 H    0.993 --    31 C    0.958
    66   1 H    0.991 --    32 C    0.973
    67   1 H    0.997 --    32 C    0.982
    68   1 H    0.995 --    32 C    0.982
    69   1 H    0.993 --    33 C    0.976
    70   1 H    0.997 --    33 C    0.983
    71   1 H    0.993 --    33 C    0.980
    72   1 H    0.968 --     1 N    0.941
 ---------------------------------------------------------------------------

molecular dipole:
                 x           y           z       tot (Debye)
 q only:       -0.565      -0.352      -0.605
   full:       -0.274      -0.449      -0.681       2.186

           -------------------------------------------------
          | TOTAL ENERGY              -99.381105895476 Eh   |
          | GRADIENT NORM               0.004171531476 Eh/α |
          | HOMO-LUMO GAP               1.144487315219 eV   |
           -------------------------------------------------

 * finished run on 2024/04/06 at 11:13:24.080
