   * xtb version 6.6.1 (8d0f1dd) compiled by 'conda@1efc2f54142f' on 2023-08-01
          program call               : xtb struc.xyz --opt loose --input .xc1 --gfn2

   ID    Z sym.   atoms
    1    6 C      1, 3, 5-7, 10, 11, 14
    2    7 N      2, 4, 9, 13
    3    8 O      8, 12
    4    1 H      15-25
constraining bond 4 15 to    4.6866700 Å, actual value:    4.0274197 Å

          :  Hamiltonian                  GFN2-xTB          :
 * total energy  :   -43.0238703 Eh     change       -0.6650680E-10 Eh
 * total energy  :   -45.5231542 Eh     change       -0.2499284E+01 Eh
 * total energy  :   -49.5773565 Eh     change       -0.4054202E+01 Eh
 * total energy  :   -55.3772647 Eh     change       -0.5799908E+01 Eh
 * total energy  :   -63.2722371 Eh     change       -0.7894972E+01 Eh
 * total energy  :   -71.6824450 Eh     change       -0.8410208E+01 Eh
 * total energy  :   -67.7376760 Eh     change        0.3944769E+01 Eh
 * total energy  :   -72.2751602 Eh     change       -0.4537484E+01 Eh
 * total energy  :   -72.3399250 Eh     change       -0.6476480E-01 Eh
 * total energy  :   -72.3978903 Eh     change       -0.5796527E-01 Eh
 * total energy  :   -72.8716058 Eh     change       -0.3904481E-04 Eh
 * total energy  :   -72.8716728 Eh     change       -0.6694399E-04 Eh
 * total energy  :   -72.8717212 Eh     change       -0.4841410E-04 Eh
 * total energy  :   -72.8717544 Eh     change       -0.3324806E-04 Eh
 * total energy  :   -72.8717786 Eh     change       -0.2420453E-04 Eh
 * total energy  :   -72.8718010 Eh     change       -0.2239148E-04 Eh
 * total energy  :   -72.8715535 Eh     change        0.2474957E-03 Eh
 * total energy  :   -72.8718119 Eh     change       -0.2583335E-03 Eh
 * total energy  :   -72.8718156 Eh     change       -0.3786502E-05 Eh
   *** GEOMETRY OPTIMIZATION CONVERGED AFTER 96 ITERATIONS ***

 final structure:
================
25
 xtb: 6.6.1 (8d0f1dd)
C            2.83424652709360        1.15126673344134       -0.58619549139516
N            2.22758310634528        0.14626891988815       -0.00526212000602
C            2.95170327999969       -0.71809759348836        0.88035598009283
N            4.18290393877904       -0.65380007894927        1.02666029249407
C            0.22812870989485       -1.23397223857973       -0.21432824037726
C            0.83650324691899       -0.01860870646592       -0.10949878095495
C            0.02599439853653        1.20557221732238       -0.02367209237074
O            0.51220023402423        2.31321464201693        0.04086477320233
N           -1.33336595301473        0.97889465690544       -0.00155431357270
C           -2.22313777538947        2.12296799023029        0.12420126371266
C           -1.95805558063179       -0.25062332234282       -0.10663375157648
O           -3.15173812582203       -0.36735439297623       -0.09240555237940
N           -1.10721125270597       -1.35939785629271       -0.23421394338044
C           -1.72048737864649       -2.66305919453281       -0.39078002519394
H            4.58030636946155       -0.64745162532779        1.09476976693767
H            3.86944842302284        1.33411563989596       -0.34495847873657
H            2.32190659434235        1.79020616812441       -1.28224685036257
H            2.28188547044100       -1.40445983118647        1.40420271864625
H           -1.61712048154753        3.01790953105099        0.24306606450938
H           -2.84833566727134        2.20516116893709       -0.76529441766681
H           -2.87493602277149        1.98520510531049        0.98689254783763
H           -1.39334768120425       -3.33497855740017        0.40223079017911
H           -1.45837284051511       -3.09121207436284       -1.35850498826217
H           -2.80114263557014       -2.53952618343743       -0.33501978429177
H            0.79487261032868       -2.15000257617726       -0.32150374918469

          :  Hamiltonian                  GFN2-xTB          :
         :: total energy             -72.871815641892 Eh    ::
         :: gradient norm              0.003519085135 Eh/a0 ::
         :: HOMO-LUMO gap              1.760977043396 eV    ::
         :: SCC energy               -42.740307559983 Eh    ::
         :: -> dispersion             -0.021966252157 Eh    ::
         :: repulsion energy           2.628830196443 Eh    ::

    * Orbital Energies and Occupations

         #    Occupation            Energy/Eh            Energy/eV
      -------------------------------------------------------------
         1        2.0000           -0.8860736             -24.1113
       ...           ...                  ...                  ...
        25        1.9999           -0.6774107             -18.4333
        26        1.9999           -0.6672437             -18.1566
        27        1.9997           -0.6539796             -17.7957
        28        1.9995           -0.6465216             -17.5927
        29        1.9992           -0.6385738             -17.3765
        30        1.9983           -0.6278724             -17.0853
        31        1.9982           -0.6263636             -17.0442
        32        1.9949           -0.6101710             -16.6036
        33        1.9770           -0.5860259             -15.9466
        34        1.9615           -0.5777570             -15.7216
        35        1.9489           -0.5731777             -15.5970
        36        1.9299           -0.5680044             -15.4562
        37        1.8452           -0.5547513             -15.0956 (HOMO)
        38        0.3335           -0.4900366             -13.3346 (LUMO)
        39        0.0124           -0.4350666             -11.8388
        40        0.0018           -0.4040457             -10.9946
        41        0.0004           -0.3807435             -10.3606
        42        0.0000           -0.3041633              -8.2767
        43                         -0.2060373              -5.6066
        44                         -0.1571674              -4.2767
        45                         -0.1329915              -3.6189
        46                         -0.0887465              -2.4149
        47                         -0.0723623              -1.9691
        48                         -0.0284201              -0.7734
       ...                                ...                  ...
        67                          7.1957606             195.8066
      -------------------------------------------------------------
                  HL-Gap            0.0647147 Eh            1.7610 eV

     #   Z          covCN         q      C6AA      α(0)
     1   6 C        2.810    -0.007    28.182     8.698
     2   7 N        2.739     0.086    19.750     6.600
     3   6 C        2.824     0.110    25.572     8.286
     4   7 N        1.778    -0.244    27.191     7.722
     5   6 C        2.856     0.023    27.493     8.594
     6   6 C        2.923    -0.014    28.373     8.735
     7   6 C        2.772     0.270    22.448     7.760
     8   8 O        0.858    -0.364    20.970     6.140
     9   7 N        2.741    -0.066    22.513     7.047
    10   6 C        3.708    -0.063    21.858     6.682
    11   6 C        2.724     0.316    21.623     7.612
    12   8 O        0.859    -0.345    20.603     6.086
    13   7 N        2.743    -0.011    21.464     6.881
    14   6 C        3.703    -0.079    22.170     6.732
    15   1 H        0.912     0.263     0.830     1.425
    16   1 H        0.926     0.137     1.482     1.904
    17   1 H        0.926     0.145     1.425     1.867
    18   1 H        0.924     0.087     1.904     2.158
    19   1 H        0.925     0.116     1.649     2.008
    20   1 H        0.924     0.106     1.729     2.056
    21   1 H        0.925     0.107     1.723     2.053
    22   1 H        0.925     0.097     1.812     2.105
    23   1 H        0.925     0.099     1.795     2.095
    24   1 H        0.925     0.127     1.556     1.951
    25   1 H        0.925     0.103     1.754     2.071

Wiberg/Mayer (AO) data.
largest (>0.10) Wiberg bond orders for each atom

     #   Z sym  total        # sym  WBO       # sym  WBO       # sym  WBO
 ---------------------------------------------------------------------------
     1   6 C    3.597 --     2 N    1.500    17 H    0.954    16 H    0.954
     2   7 N    3.658 --     1 C    1.500     6 C    1.044     3 C    0.991
     3   6 C    3.887 --     4 N    1.931     2 N    0.991    18 H    0.919
     4   7 N    3.012 --     3 C    1.931    15 H    0.925
     5   6 C    3.927 --     6 C    1.522    13 N    1.285    25 H    0.948
     6   6 C    3.883 --     5 C    1.522     2 N    1.044     7 C    1.038
     7   6 C    3.953 --     8 O    1.671     9 N    1.136     6 C    1.038
     8   8 O    2.026 --     7 C    1.671     9 N    0.138
     9   7 N    3.555 --     7 C    1.136    11 C    1.110    10 C    0.971
                             8 O    0.138    12 O    0.131
    10   6 C    3.897 --     9 N    0.971    19 H    0.966    21 H    0.957
                            20 H    0.955
    11   6 C    3.957 --    12 O    1.704     9 N    1.110    13 N    1.052
    12   8 O    2.034 --    11 C    1.704     9 N    0.131    13 N    0.109
    13   7 N    3.590 --     5 C    1.285    11 C    1.052    14 C    0.978
                            12 O    0.109
    14   6 C    3.910 --    13 N    0.978    24 H    0.963    22 H    0.963
                            23 H    0.961
    15   1 H    0.931 --     4 N    0.925
    16   1 H    0.980 --     1 C    0.954
    17   1 H    0.977 --     1 C    0.954
    18   1 H    0.968 --     3 C    0.919
    19   1 H    0.983 --    10 C    0.966
    20   1 H    0.976 --    10 C    0.955
    21   1 H    0.977 --    10 C    0.957
    22   1 H    0.982 --    14 C    0.963
    23   1 H    0.980 --    14 C    0.961
    24   1 H    0.982 --    14 C    0.963
    25   1 H    0.987 --     5 C    0.948
 ---------------------------------------------------------------------------

molecular dipole:
                 x           y           z       tot (Debye)
 q only:        1.986      -1.162      -0.175
   full:        2.144      -1.348      -0.181       6.454

           -------------------------------------------------
          | TOTAL ENERGY              -72.871815641892 Eh   |
          | GRADIENT NORM               0.003519085135 Eh/α |
          | HOMO-LUMO GAP               1.760977043396 eV   |
           -------------------------------------------------

 * finished run on 2024/06/05 at 19:58:07.636
