   * xtb version 6.6.1 (8d0f1dd) compiled by 'conda@1efc2f54142f' on 2023-08-01
          program call               : xtb xtbopt.xyz --opt crude --input .xc2 --gfn2

   ID    Z sym.   atoms
    1    6 C      1, 3, 5-7, 10, 11, 14
    2    7 N      2, 4, 9, 13
    3    8 O      8, 12
    4    1 H      15-25
########################################################################
[WARNING] Please study the warnings concerning your input carefully
-1- readin_getIntValue: could not parse ''
########################################################################

          :  Hamiltonian                  GFN2-xTB          :
 * total energy  :   -40.1113820 Eh     change       -0.4973799E-13 Eh
 * total energy  :   -41.9305246 Eh     change       -0.1819143E+01 Eh
 * total energy  :   -42.1129345 Eh     change       -0.1824099E+00 Eh
 * total energy  :   -42.1245932 Eh     change       -0.1165873E-01 Eh
 * total energy  :   -42.1306833 Eh     change       -0.6090130E-02 Eh
 * total energy  :   -42.1312721 Eh     change       -0.5887497E-03 Eh
 * total energy  :   -42.1317392 Eh     change       -0.4671086E-03 Eh
 * total energy  :   -42.1320416 Eh     change       -0.3024478E-03 Eh
 * total energy  :   -42.1323505 Eh     change       -0.3088069E-03 Eh
 * total energy  :   -42.1326130 Eh     change       -0.2625790E-03 Eh
 * total energy  :   -42.1356960 Eh     change       -0.1165292E-02 Eh
 * total energy  :   -42.1358149 Eh     change       -0.1188345E-03 Eh
 * total energy  :   -42.1411728 Eh     change       -0.5357895E-02 Eh
 * total energy  :   -42.1453747 Eh     change       -0.4201917E-02 Eh
 * total energy  :   -42.1477059 Eh     change       -0.2331202E-02 Eh
 * total energy  :   -42.1492327 Eh     change       -0.1526852E-02 Eh
 * total energy  :   -42.1505234 Eh     change       -0.1290657E-02 Eh
 * total energy  :   -42.1510657 Eh     change       -0.5423245E-03 Eh
 * total energy  :   -42.1512892 Eh     change       -0.2234786E-03 Eh
   *** GEOMETRY OPTIMIZATION CONVERGED AFTER 24 ITERATIONS ***

 final structure:
================
25
 xtb: 6.6.1 (8d0f1dd)
C            2.79168474292786        1.28564935793125       -0.46222336464101
N            2.21407364461453        0.21838105273739        0.03140461718544
C            3.00818978027791       -0.74013851800613        0.70696038537081
N            4.25177920720527       -0.65205252455988        0.61881023584810
C            0.22745961675909       -1.19085811623109       -0.13154349010693
C            0.82002020461489        0.03560577969736       -0.02382022622738
C           -0.02236986769799        1.23997812417950        0.06598991390931
O            0.42398610659982        2.35635290093862        0.20987083293370
N           -1.37848440965361        0.99317872046939       -0.01239158798060
C           -2.28760430796949        2.12918657545983        0.00265026359911
C           -1.97933506728193       -0.24393012705977       -0.14270255504905
O           -3.16834829973062       -0.37862440395758       -0.22789252464154
N           -1.10483467343144       -1.34209070354190       -0.17053616421236
C           -1.69225796595074       -2.66072059273675       -0.29888644405902
H            4.84052816950803       -1.32491322485422        1.10013018059952
H            3.85154207066538        1.40023383709018       -0.29021901325632
H            2.23672744018705        2.02520064313453       -1.00923585597715
H            2.42398370184984       -1.47940843520051        1.26880866896371
H           -1.70795588301299        3.03216854735072        0.17930674869785
H           -2.80625813204939        2.19415825796928       -0.95498468663438
H           -3.03353279833484        1.99481483270689        0.78572496440014
H           -1.42724169180312       -3.28036257446098        0.55792245411664
H           -1.35022498402815       -3.14275698739141       -1.21451594736690
H           -2.77510655525150       -2.54792402618101       -0.33752796494332
H            0.80401146508387       -2.10288985387841       -0.21992782262689

          :  Hamiltonian                  GFN2-xTB          :
         :: total energy             -42.151289184450 Eh    ::
         :: gradient norm              0.006922100790 Eh/a0 ::
         :: HOMO-LUMO gap              2.114598593244 eV    ::
         :: SCC energy               -42.688146784697 Eh    ::
         :: -> dispersion             -0.021904027621 Eh    ::
         :: repulsion energy           0.536782364589 Eh    ::

    * Orbital Energies and Occupations

         #    Occupation            Energy/Eh            Energy/eV
      -------------------------------------------------------------
         1        2.0000           -0.8869004             -24.1338
       ...           ...                  ...                  ...
        25        1.9999           -0.6782249             -18.4554
        26        1.9998           -0.6653401             -18.1048
        27        1.9995           -0.6484802             -17.6460
        28        1.9993           -0.6437964             -17.5186
        29        1.9991           -0.6380011             -17.3609
        30        1.9982           -0.6275655             -17.0769
        31        1.9981           -0.6270017             -17.0616
        32        1.9946           -0.6104001             -16.6098
        33        1.9763           -0.5867598             -15.9665
        34        1.9564           -0.5769585             -15.6998
        35        1.9463           -0.5735646             -15.6075
        36        1.9212           -0.5672976             -15.4370
        37        1.9143           -0.5659172             -15.3994 (HOMO)
        38        0.2834           -0.4882072             -13.2848 (LUMO)
        39        0.0121           -0.4359804             -11.8636
        40        0.0015           -0.4022822             -10.9467
        41        0.0003           -0.3768656             -10.2550
        42        0.0000           -0.3028713              -8.2415
        43                         -0.2117187              -5.7612
        44                         -0.1633290              -4.4444
        45                         -0.1356787              -3.6920
        46                         -0.0884978              -2.4081
        47                         -0.0790075              -2.1499
        48                         -0.0569172              -1.5488
       ...                                ...                  ...
        67                          0.5395777              14.6827
      -------------------------------------------------------------
                  HL-Gap            0.0777101 Eh            2.1146 eV

     #   Z          covCN         q      C6AA      α(0)
     1   6 C        2.816    -0.007    28.176     8.697
     2   7 N        2.746     0.105    19.429     6.547
     3   6 C        2.785     0.120    25.341     8.246
     4   7 N        1.783    -0.232    26.890     7.680
     5   6 C        2.856     0.024    27.464     8.590
     6   6 C        2.918    -0.014    28.372     8.735
     7   6 C        2.771     0.270    22.448     7.760
     8   8 O        0.858    -0.362    20.944     6.136
     9   7 N        2.741    -0.066    22.512     7.047
    10   6 C        3.709    -0.063    21.864     6.683
    11   6 C        2.724     0.317    21.617     7.611
    12   8 O        0.859    -0.344    20.590     6.084
    13   7 N        2.742    -0.011    21.465     6.881
    14   6 C        3.703    -0.079    22.167     6.732
    15   1 H        0.860     0.214     1.039     1.596
    16   1 H        0.926     0.155     1.358     1.822
    17   1 H        0.926     0.152     1.380     1.837
    18   1 H        0.924     0.065     2.136     2.286
    19   1 H        0.925     0.117     1.640     2.002
    20   1 H        0.924     0.105     1.736     2.061
    21   1 H        0.925     0.109     1.709     2.045
    22   1 H        0.925     0.098     1.807     2.102
    23   1 H        0.925     0.098     1.802     2.099
    24   1 H        0.925     0.128     1.553     1.949
    25   1 H        0.925     0.102     1.771     2.081

Wiberg/Mayer (AO) data.
largest (>0.10) Wiberg bond orders for each atom

     #   Z sym  total        # sym  WBO       # sym  WBO       # sym  WBO
 ---------------------------------------------------------------------------
     1   6 C    3.610 --     2 N    1.511    17 H    0.951    16 H    0.947
     2   7 N    3.688 --     1 C    1.511     6 C    1.049     3 C    1.027
     3   6 C    3.906 --     4 N    1.904     2 N    1.027    18 H    0.926
     4   7 N    2.961 --     3 C    1.904    15 H    0.921
     5   6 C    3.926 --     6 C    1.515    13 N    1.289    25 H    0.948
     6   6 C    3.883 --     5 C    1.515     2 N    1.049     7 C    1.041
     7   6 C    3.953 --     8 O    1.674     9 N    1.132     6 C    1.041
     8   8 O    2.022 --     7 C    1.674     9 N    0.139
     9   7 N    3.554 --     7 C    1.132    11 C    1.114    10 C    0.971
                             8 O    0.139    12 O    0.131
    10   6 C    3.895 --     9 N    0.971    19 H    0.965    21 H    0.957
                            20 H    0.954
    11   6 C    3.957 --    12 O    1.704     9 N    1.114    13 N    1.049
    12   8 O    2.033 --    11 C    1.704     9 N    0.131    13 N    0.108
    13   7 N    3.592 --     5 C    1.289    11 C    1.049    14 C    0.978
                            12 O    0.108
    14   6 C    3.910 --    13 N    0.978    24 H    0.963    22 H    0.962
                            23 H    0.962
    15   1 H    0.949 --     4 N    0.921
    16   1 H    0.974 --     1 C    0.947
    17   1 H    0.976 --     1 C    0.951
    18   1 H    0.979 --     3 C    0.926
    19   1 H    0.982 --    10 C    0.965
    20   1 H    0.976 --    10 C    0.954
    21   1 H    0.977 --    10 C    0.957
    22   1 H    0.981 --    14 C    0.962
    23   1 H    0.981 --    14 C    0.962
    24   1 H    0.982 --    14 C    0.963
    25   1 H    0.988 --     5 C    0.948
 ---------------------------------------------------------------------------

molecular dipole:
                 x           y           z       tot (Debye)
 q only:        1.948      -1.165      -0.110
   full:        1.994      -1.615       0.085       6.525

           -------------------------------------------------
          | TOTAL ENERGY              -42.151289184450 Eh   |
          | GRADIENT NORM               0.006922100790 Eh/α |
          | HOMO-LUMO GAP               2.114598593244 eV   |
           -------------------------------------------------

 * finished run on 2024/06/05 at 19:58:08.483
