   * xtb version 6.6.1 (8d0f1dd) compiled by 'conda@1efc2f54142f' on 2023-08-01
          program call               : xtb xtbopt.xyz --opt crude --input .xc2 --gfn2

   ID    Z sym.   atoms
    1    7 N      1, 17
    2    6 C      2-6, 8, 9, 11-16, 18-23, 25, 26, 28-33
    3    8 O      7, 10, 24, 27
    4    1 H      34-72
########################################################################
[WARNING] Please study the warnings concerning your input carefully
-1- readin_getIntValue: could not parse ''
########################################################################

          :  Hamiltonian                  GFN2-xTB          :
 * total energy  :   -99.3341536 Eh     change       -0.1921308E-10 Eh
   *** GEOMETRY OPTIMIZATION CONVERGED AFTER 1 ITERATIONS ***

 final structure:
================
72
 xtb: 6.6.1 (8d0f1dd)
N           -1.85520342177710        3.29590277217701        2.13180312448694
C           -1.77211355396024        2.44332423476317        1.22233354336939
C           -2.89129350411433        2.10713315412319        0.27075687454683
C           -3.18582576939782        0.63035785561799        0.35136215938981
C           -3.98571457646266        0.01144133774497       -0.62285321509460
C           -4.20814645625714       -1.34095546154325       -0.62556382565322
O           -4.96096914445195       -2.01567742831506       -1.49244942386987
C           -5.76292549557299       -1.32282586970554       -2.42600255598053
C           -3.54037987807729       -2.25294907967436        0.37743283370267
O           -4.51005632589272       -3.17469886741871        0.82989025294465
C           -4.01343429405578       -4.39473821817826        1.32044759366498
C           -2.89088429319603       -1.48483738216647        1.48573360780605
C           -2.71543394988390       -0.14663218693433        1.43452478993663
C           -2.35926144163539        2.48302833124002       -1.14244755543865
C           -1.45986780581620        1.43537753623099       -1.82698994608025
C           -0.19800766378485        1.13502576596362       -1.10265231028190
N            0.23045057550846       -0.07246561214953       -0.75050470788446
C            1.58519958501448       -0.13745543784924       -0.20505344361929
C            2.59872098458906       -0.37350983546841       -1.33820795029637
C            4.00979285603986       -0.17722779176433       -0.85641994594630
C            4.62836711864795        1.05683155002305       -0.98446641983929
C            5.93136303379702        1.24822909075067       -0.55300198926248
C            6.64463652367396        0.20597489446762        0.02245596113122
O            7.91355270455217        0.27259219728568        0.46212097147502
C            8.63724836709819        1.47129142764685        0.30084251852938
C            6.01363313872911       -1.06149500346499        0.17192734618051
O            6.77579413431950       -2.01393039659898        0.74141580726019
C            6.25314094940458       -3.31012163751254        0.91152776158708
C            4.70905219368374       -1.22807357972329       -0.26845736144577
C           -0.39710574109259       -1.22721312609818       -0.90749707622887
C           -4.20896855152146        2.89027230242854        0.56408468047016
C           -4.76594544724743        2.53909318932079        1.94153198242319
C           -4.05003143490295        4.40236001839551        0.44062591783021
H           -4.44898755126129        0.62571554822207       -1.37933616403249
H           -6.43979347335202       -0.62541985126397       -1.92571702020746
H           -6.34358529645267       -2.08799039752840       -2.93803750101798
H           -5.15110090712575       -0.78296157578087       -3.15554393903047
H           -3.44119726775801       -4.26427236002647        2.24679106482503
H           -4.88910674979198       -5.00840034228518        1.52617412455023
H           -3.38075085676895       -4.89494576413916        0.57552141093622
H           -2.56723287869124       -2.05770358869742        2.33919474967343
H           -2.23263683748624        0.35568204209721        2.25947570067751
H           -3.20919227065523        2.66280540044280       -1.80114754624943
H           -1.80696638994516        3.42004514619246       -1.05718538349934
H           -2.02897445379907        0.52595472936367       -2.00387300570143
H           -1.19649209383231        1.85512123912913       -2.80578922420110
H           -0.85327430980376        1.87954430285090        0.98821609704268
H            0.48865179326713        1.95248622843005       -0.95416155135626
H            1.64394705974961       -0.94542353600936        0.52548348277526
H            1.82104217711712        0.80157776651765        0.29934766715067
H            2.39144665173863        0.33516444720268       -2.14243865845437
H            2.46915694690654       -1.38267026599442       -1.73188702250489
H            4.10094203185342        1.88085793429074       -1.44043368320911
H            6.38822275086370        2.21636186947026       -0.67656841693881
H            8.18877230727898        2.29031805780895        0.87131528267340
H            8.70946708504575        1.75591440862626       -0.75307145618147
H            9.63317410865227        1.26549160290552        0.68837013749613
H            7.05248420622937       -3.88895926089179        1.37014720258583
H            5.38249267205009       -3.30714011953650        1.57490648839331
H            5.98291982159278       -3.76282168108380       -0.04738001960225
H            4.22749220074444       -2.18856231452919       -0.17345915501990
H           -2.73508040602266       -2.80633043875791       -0.16166382914408
H           -1.35829456796156       -1.27588054291248       -1.37313797707987
H            0.06936295241195       -2.12609230333456       -0.56118453788307
H           -4.93625417923477        2.56095273126726       -0.18742757258515
H           -4.08899064288531        2.88466962607902        2.71680193226805
H           -4.90909777280740        1.46604269997930        2.04794662748743
H           -5.72663747961522        3.02753968596279        2.08194510806277
H           -3.31385209962094        4.76088626579345        1.15300524455405
H           -3.75370027667999        4.70085752228172       -0.56106366047499
H           -5.00146796083954        4.87833981233985        0.66376588262927
H           -1.02977586214581        3.47395605441633        2.69511396333587

          :  Hamiltonian                  GFN2-xTB          :
         :: total energy             -99.334153638957 Eh    ::
         :: gradient norm              0.004997360588 Eh/a0 ::
         :: HOMO-LUMO gap              0.812184833577 eV    ::
         :: SCC energy              -100.702738720548 Eh    ::
         :: -> dispersion             -0.076825916480 Eh    ::
         :: repulsion energy           1.367141055511 Eh    ::

    * Orbital Energies and Occupations

         #    Occupation            Energy/Eh            Energy/eV
      -------------------------------------------------------------
         1        2.0000           -0.8294916             -22.5716
       ...           ...                  ...                  ...
        78        1.9979           -0.5317987             -14.4710
        79        1.9977           -0.5307421             -14.4422
        80        1.9975           -0.5293629             -14.4047
        81        1.9963           -0.5230305             -14.2324
        82        1.9943           -0.5162657             -14.0483
        83        1.9942           -0.5158344             -14.0366
        84        1.9933           -0.5135527             -13.9745
        85        1.9850           -0.5008293             -13.6283
        86        1.9737           -0.4918704             -13.3845
        87        1.9708           -0.4901719             -13.3383
        88        1.9223           -0.4742844             -12.9059
        89        1.8120           -0.4593633             -12.4999
        90        1.5960           -0.4452409             -12.1156 (HOMO)
        91        0.7499           -0.4153937             -11.3034 (LUMO)
        92        0.0139           -0.3449371              -9.3862
        93        0.0095           -0.3388004              -9.2192
        94        0.0028           -0.3194465              -8.6926
        95        0.0022           -0.3155007              -8.5852
        96        0.0019           -0.3131785              -8.5220
        97        0.0000           -0.2494380              -6.7876
        98        0.0000           -0.1909714              -5.1966
        99                         -0.1211401              -3.2964
       100                         -0.0874372              -2.3793
       101                         -0.0664825              -1.8091
       ...                                ...                  ...
       171                          0.5719829              15.5644
      -------------------------------------------------------------
                  HL-Gap            0.0298472 Eh            0.8122 eV

     #   Z          covCN         q      C6AA      α(0)
     1   7 N        1.774    -0.267    27.739     7.799
     2   6 C        2.829     0.102    25.741     8.314
     3   6 C        3.907     0.008    20.380     6.417
     4   6 C        2.976     0.016    27.658     8.627
     5   6 C        2.904    -0.079    29.980     8.978
     6   6 C        2.850     0.143    24.875     8.174
     7   8 O        1.706    -0.201    17.349     5.624
     8   6 C        3.644     0.020    20.578     6.520
     9   6 C        3.752     0.115    18.754     6.176
    10   8 O        1.702    -0.288    18.777     5.850
    11   6 C        3.642     0.035    20.334     6.483
    12   6 C        2.901    -0.053    29.323     8.879
    13   6 C        2.904    -0.042    29.049     8.837
    14   6 C        3.811    -0.063    21.703     6.631
    15   6 C        3.801    -0.065    21.740     6.638
    16   6 C        2.863    -0.042    29.036     8.833
    17   7 N        2.731     0.091    19.668     6.587
    18   6 C        3.783    -0.020    20.948     6.520
    19   6 C        3.808    -0.069    21.817     6.649
    20   6 C        2.968     0.002    27.974     8.675
    21   6 C        2.922    -0.047    29.173     8.857
    22   6 C        2.913    -0.067    29.659     8.930
    23   6 C        2.864     0.135    25.053     8.205
    24   8 O        1.706    -0.218    17.619     5.667
    25   6 C        3.645     0.024    20.508     6.509
    26   6 C        2.862     0.135    25.057     8.205
    27   8 O        1.706    -0.221    17.660     5.674
    28   6 C        3.645     0.026    20.479     6.504
    29   6 C        2.919    -0.078    29.951     8.974
    30   6 C        2.810    -0.106    30.672     9.074
    31   6 C        3.853    -0.006    20.643     6.462
    32   6 C        3.756    -0.118    22.805     6.809
    33   6 C        3.755    -0.121    22.880     6.820
    34   1 H        0.926     0.058     2.222     2.331
    35   1 H        0.924     0.066     2.132     2.283
    36   1 H        0.925     0.090     1.879     2.143
    37   1 H        0.924     0.057     2.229     2.335
    38   1 H        0.924     0.040     2.448     2.447
    39   1 H        0.925     0.079     1.994     2.208
    40   1 H        0.923     0.038     2.475     2.460
    41   1 H        0.926     0.060     2.204     2.322
    42   1 H        0.926     0.051     2.303     2.373
    43   1 H        0.924     0.059     2.213     2.326
    44   1 H        0.924     0.055     2.261     2.352
    45   1 H        0.925     0.053     2.282     2.363
    46   1 H        0.924     0.067     2.122     2.278
    47   1 H        0.923     0.011     2.875     2.652
    48   1 H        0.926     0.053     2.282     2.362
    49   1 H        0.924     0.072     2.061     2.245
    50   1 H        0.924     0.068     2.106     2.270
    51   1 H        0.924     0.058     2.220     2.330
    52   1 H        0.924     0.059     2.205     2.322
    53   1 H        0.926     0.048     2.347     2.396
    54   1 H        0.926     0.060     2.195     2.317
    55   1 H        0.924     0.056     2.242     2.342
    56   1 H        0.924     0.057     2.229     2.335
    57   1 H        0.925     0.084     1.938     2.177
    58   1 H        0.925     0.084     1.943     2.180
    59   1 H        0.924     0.051     2.305     2.374
    60   1 H        0.924     0.055     2.264     2.353
    61   1 H        0.926     0.051     2.313     2.378
    62   1 H        0.921     0.054     2.273     2.358
    63   1 H        0.927     0.052     2.300     2.371
    64   1 H        0.927     0.057     2.234     2.337
    65   1 H        0.924     0.038     2.481     2.463
    66   1 H        0.925     0.067     2.122     2.278
    67   1 H        0.925     0.036     2.508     2.476
    68   1 H        0.925     0.053     2.280     2.361
    69   1 H        0.925     0.069     2.099     2.266
    70   1 H        0.925     0.039     2.468     2.457
    71   1 H        0.925     0.056     2.242     2.342
    72   1 H        0.860     0.159     1.340     1.814

Wiberg/Mayer (AO) data.
largest (>0.10) Wiberg bond orders for each atom

     #   Z sym  total        # sym  WBO       # sym  WBO       # sym  WBO
 ---------------------------------------------------------------------------
     1   7 N    3.019 --     2 C    1.956    72 H    0.940
     2   6 C    3.934 --     1 N    1.956     3 C    0.990    47 H    0.915
     3   6 C    3.971 --     4 C    0.995     2 C    0.990    14 C    0.945
                            31 C    0.932
     4   6 C    3.683 --     5 C    1.322    13 C    1.255     3 C    0.995
     5   6 C    3.954 --     6 C    1.472     4 C    1.322    34 H    0.954
     6   6 C    3.735 --     5 C    1.472     7 O    1.163     9 C    0.981
     7   8 O    2.284 --     6 C    1.163     8 C    0.966
     8   6 C    3.922 --    36 H    0.976    35 H    0.973    37 H    0.972
                             7 O    0.966
     9   6 C    3.955 --    12 C    1.009     6 C    0.981    10 O    0.972
                            62 H    0.899
    10   8 O    2.063 --    11 C    0.991     9 C    0.972
    11   6 C    3.936 --    10 O    0.991    39 H    0.975    40 H    0.973
                            38 H    0.973
    12   6 C    3.740 --    13 C    1.658     9 C    1.009    41 H    0.964
    13   6 C    3.978 --    12 C    1.658     4 C    1.255    42 H    0.956
    14   6 C    3.964 --    15 C    0.982    44 H    0.972    43 H    0.968
                             3 C    0.945
    15   6 C    3.986 --    16 C    1.047    14 C    0.982    45 H    0.961
                            46 H    0.942
    16   6 C    3.677 --    17 N    1.348    15 C    1.047    48 H    0.962
                            30 C    0.228
    17   7 N    3.741 --    30 C    1.367    16 C    1.348    18 C    0.965
    18   6 C    3.953 --    19 C    0.976    49 H    0.969    50 H    0.969
                            17 N    0.965
    19   6 C    3.986 --    20 C    1.008    18 C    0.976    51 H    0.971
                            52 H    0.970
    20   6 C    3.939 --    21 C    1.405    29 C    1.383    19 C    1.008
    21   6 C    3.944 --    22 C    1.419    20 C    1.405    53 H    0.968
    22   6 C    3.955 --    21 C    1.419    23 C    1.380    54 H    0.963
    23   6 C    3.889 --    22 C    1.380    26 C    1.215    24 O    1.115
    24   8 O    2.254 --    23 C    1.115    25 C    0.975
    25   6 C    3.926 --    57 H    0.976    24 O    0.975    56 H    0.972
                            55 H    0.972
    26   6 C    3.892 --    29 C    1.391    23 C    1.215    27 O    1.109
    27   8 O    2.254 --    26 C    1.109    28 C    0.977
    28   6 C    3.929 --    27 O    0.977    58 H    0.976    59 H    0.973
                            60 H    0.972
    29   6 C    3.957 --    26 C    1.391    20 C    1.383    61 H    0.962
    30   6 C    3.612 --    17 N    1.367    64 H    0.975    63 H    0.968
                            16 C    0.228
    31   6 C    3.956 --    33 C    1.009    32 C    1.008    65 H    0.959
                             3 C    0.932
    32   6 C    3.977 --    31 C    1.008    68 H    0.981    67 H    0.981
                            66 H    0.974
    33   6 C    3.975 --    31 C    1.009    70 H    0.982    71 H    0.978
                            69 H    0.972
    34   1 H    0.995 --     5 C    0.954
    35   1 H    0.991 --     8 C    0.973
    36   1 H    0.991 --     8 C    0.976
    37   1 H    0.991 --     8 C    0.972
    38   1 H    0.993 --    11 C    0.973
    39   1 H    0.992 --    11 C    0.975
    40   1 H    0.995 --    11 C    0.973
    41   1 H    0.994 --    12 C    0.964
    42   1 H    0.996 --    13 C    0.956
    43   1 H    0.994 --    14 C    0.968
    44   1 H    0.995 --    14 C    0.972
    45   1 H    0.997 --    15 C    0.961
    46   1 H    0.978 --    15 C    0.942
    47   1 H    0.980 --     2 C    0.915
    48   1 H    0.997 --    16 C    0.962
    49   1 H    0.994 --    18 C    0.969
    50   1 H    0.995 --    18 C    0.969
    51   1 H    0.995 --    19 C    0.971
    52   1 H    0.995 --    19 C    0.970
    53   1 H    0.997 --    21 C    0.968
    54   1 H    0.995 --    22 C    0.963
    55   1 H    0.990 --    25 C    0.972
    56   1 H    0.991 --    25 C    0.972
    57   1 H    0.992 --    25 C    0.976
    58   1 H    0.992 --    28 C    0.976
    59   1 H    0.992 --    28 C    0.973
    60   1 H    0.992 --    28 C    0.972
    61   1 H    0.996 --    29 C    0.962
    62   1 H    0.952 --     9 C    0.899
    63   1 H    0.997 --    30 C    0.968
    64   1 H    0.997 --    30 C    0.975
    65   1 H    0.991 --    31 C    0.959
    66   1 H    0.991 --    32 C    0.974
    67   1 H    0.996 --    32 C    0.981
    68   1 H    0.994 --    32 C    0.981
    69   1 H    0.990 --    33 C    0.972
    70   1 H    0.996 --    33 C    0.982
    71   1 H    0.992 --    33 C    0.978
    72   1 H    0.968 --     1 N    0.940
 ---------------------------------------------------------------------------

molecular dipole:
                 x           y           z       tot (Debye)
 q only:        0.569       0.110      -0.882
   full:        0.904      -0.102      -1.078       3.584

           -------------------------------------------------
          | TOTAL ENERGY              -99.334153638957 Eh   |
          | GRADIENT NORM               0.004997360588 Eh/α |
          | HOMO-LUMO GAP               0.812184833577 eV   |
           -------------------------------------------------

 * finished run on 2024/04/06 at 11:13:42.316
