   * xtb version 6.6.1 (8d0f1dd) compiled by 'conda@1efc2f54142f' on 2023-08-01
          program call               : xtb struc.xyz --opt loose --input .xc1 --gfn2

   ID    Z sym.   atoms
    1    6 C      1, 3, 5-7, 10, 11, 14
    2    7 N      2, 4, 9, 13
    3    8 O      8, 12
    4    1 H      15-25
constraining bond 9 10 to    3.9200000 Å, actual value:    1.4599811 Å

          :  Hamiltonian                  GFN2-xTB          :
 * total energy  :   -31.4397915 Eh     change       -0.6633627E-10 Eh
 * total energy  :   -35.4171342 Eh     change       -0.3977343E+01 Eh
 * total energy  :   -38.7738544 Eh     change       -0.3356720E+01 Eh
 * total energy  :   -40.7623747 Eh     change       -0.1988520E+01 Eh
 * total energy  :   -41.4727516 Eh     change       -0.7103768E+00 Eh
 * total energy  :   -41.5761621 Eh     change       -0.1034105E+00 Eh
 * total energy  :   -41.6067683 Eh     change       -0.3060617E-01 Eh
 * total energy  :   -41.6641850 Eh     change       -0.5741674E-01 Eh
 * total energy  :   -41.7175204 Eh     change       -0.5333536E-01 Eh
 * total energy  :   -41.7706532 Eh     change       -0.5313285E-01 Eh
 * total energy  :   -42.0904252 Eh     change       -0.1573611E-03 Eh
 * total energy  :   -42.0905269 Eh     change       -0.1016803E-03 Eh
 * total energy  :   -42.0906261 Eh     change       -0.9922638E-04 Eh
 * total energy  :   -42.0906935 Eh     change       -0.6736228E-04 Eh
 * total energy  :   -42.0907585 Eh     change       -0.6499908E-04 Eh
 * total energy  :   -42.0908168 Eh     change       -0.5839560E-04 Eh
 * total energy  :   -42.0908540 Eh     change       -0.3717428E-04 Eh
 * total energy  :   -42.0908990 Eh     change       -0.4498719E-04 Eh
 * total energy  :   -42.0909408 Eh     change       -0.4183179E-04 Eh
   *** GEOMETRY OPTIMIZATION CONVERGED AFTER 39 ITERATIONS ***

 final structure:
================
25
 xtb: 6.6.1 (8d0f1dd)
C            3.45000414280893        0.89947732230689        0.06679182287670
N            2.50938591053470       -0.18770232104454        0.00295084600073
C            2.78912117378696       -1.47504669821164       -0.10505794906021
N            1.64583675824341       -2.19464894138283       -0.09932791932108
C            0.59577001866190       -1.32392022581656        0.01757113629947
C            1.15148808030791       -0.05176031380055        0.08322905930751
C            0.28239064440261        1.14576984045311        0.15123599655384
O            0.73460816094718        2.27200980513719        0.14846935768136
N           -1.00696969464158        0.79892644840567        0.19247668006438
C           -3.67371924421565        3.64169198260173       -0.22015106319677
C           -1.59394299731893       -0.39104692595480        0.16581575334430
O           -2.77734986462873       -0.58636875339300        0.21107005965557
N           -0.71225755325239       -1.56420414900057        0.05936064048731
C           -1.28568891029988       -2.88673116611376        0.03494984619569
H            3.98342703629536        0.87787201371124        1.01734601390195
H            4.17184766574668        0.82510379333739       -0.74518827458466
H            2.89866038139322        1.83766872965146       -0.00852308594757
H            3.77228991712623       -1.89490348639816       -0.18708107412116
H           -2.79804184554375        4.26178253050645       -0.18517984256644
H           -4.07198614588953        3.32466388667486       -1.16517729263395
H           -4.14844530942863        3.32707496939271        0.68987233202191
H           -0.92506225039869       -3.48015597815674        0.87605257797295
H           -1.05830270702359       -3.39340004517646       -0.90503482129854
H           -2.36571795743773       -2.76495223571166        0.11939988862739
H            1.59308610392394       -3.19896154041738       -0.18469907036066

          :  Hamiltonian                  GFN2-xTB          :
         :: total energy             -42.090940845590 Eh    ::
         :: gradient norm              0.003071365112 Eh/a0 ::
         :: HOMO-LUMO gap              0.459027568260 eV    ::
         :: SCC energy               -42.624494215905 Eh    ::
         :: -> dispersion             -0.020602680418 Eh    ::
         :: repulsion energy           0.533510457072 Eh    ::

    * Orbital Energies and Occupations

         #    Occupation            Energy/Eh            Energy/eV
      -------------------------------------------------------------
         1        2.0000           -0.9055991             -24.6426
       ...           ...                  ...                  ...
        25        2.0000           -0.6463067             -17.5869
        26        2.0000           -0.6399697             -17.4145
        27        2.0000           -0.6271012             -17.0643
        28        2.0000           -0.6260999             -17.0370
        29        2.0000           -0.6255897             -17.0232
        30        2.0000           -0.6133226             -16.6894
        31        2.0000           -0.6108661             -16.6225
        32        2.0000           -0.6096212             -16.5886
        33        1.9960           -0.5633599             -15.3298
        34        1.9592           -0.5448629             -14.8265
        35        1.9524           -0.5436213             -14.7927
        36        1.9046           -0.5379264             -14.6377
        37        1.5757           -0.5246087             -14.2753 (HOMO)
        38        0.6121           -0.5077397             -13.8163 (LUMO)
        39        0.0000           -0.4225810             -11.4990
        40                         -0.3807728             -10.3614
        41                         -0.3510324              -9.5521
        42                         -0.2547300              -6.9316
        43                         -0.1898607              -5.1664
        44                         -0.1678782              -4.5682
        45                         -0.1330652              -3.6209
        46                         -0.0750675              -2.0427
        47                         -0.0503807              -1.3709
        48                         -0.0304692              -0.8291
       ...                                ...                  ...
        67                          0.5831758              15.8690
      -------------------------------------------------------------
                  HL-Gap            0.0168690 Eh            0.4590 eV

     #   Z          covCN         q      C6AA      α(0)
     1   6 C        3.692    -0.094    22.486     6.785
     2   7 N        2.836     0.090    19.688     6.590
     3   6 C        3.061     0.055    26.698     8.473
     4   7 N        2.801    -0.065    22.506     7.046
     5   6 C        3.032     0.123    25.268     8.245
     6   6 C        3.139    -0.017    28.203     8.691
     7   6 C        2.760     0.300    21.911     7.666
     8   8 O        0.858    -0.354    20.788     6.113
     9   7 N        1.846    -0.250    27.369     7.753
    10   6 C        2.779    -0.053    29.301     8.866
    11   6 C        2.707     0.337    21.271     7.549
    12   8 O        0.860    -0.355    20.801     6.115
    13   7 N        2.735    -0.076    22.712     7.078
    14   6 C        3.693    -0.065    21.933     6.701
    15   1 H        0.924     0.109     1.705     2.042
    16   1 H        0.925     0.105     1.742     2.064
    17   1 H        0.924     0.140     1.458     1.888
    18   1 H        0.926     0.124     1.583     1.968
    19   1 H        0.926     0.147     1.410     1.857
    20   1 H        0.926     0.145     1.428     1.869
    21   1 H        0.926     0.148     1.407     1.855
    22   1 H        0.924     0.077     2.014     2.219
    23   1 H        0.924     0.077     2.008     2.216
    24   1 H        0.925     0.125     1.573     1.961
    25   1 H        0.860     0.228     0.972     1.545

Wiberg/Mayer (AO) data.
largest (>0.10) Wiberg bond orders for each atom

     #   Z sym  total        # sym  WBO       # sym  WBO       # sym  WBO
 ---------------------------------------------------------------------------
     1   6 C    3.911 --     2 N    0.983    16 H    0.964    17 H    0.956
                            15 H    0.956
     2   7 N    3.725 --     3 C    1.414     6 C    1.181     1 C    0.983
     3   6 C    3.906 --     2 N    1.414     4 N    1.283    18 H    0.952
     4   7 N    3.594 --     3 C    1.283     5 C    1.171    25 H    0.919
     5   6 C    3.955 --     6 C    1.337    13 N    1.271     4 N    1.171
     6   6 C    3.804 --     5 C    1.337     2 N    1.181     7 C    0.979
     7   6 C    3.948 --     8 O    1.636     9 N    1.251     6 C    0.979
     8   8 O    1.962 --     7 C    1.636     9 N    0.161
     9   7 N    2.897 --    11 C    1.270     7 C    1.251     8 O    0.161
                            12 O    0.123
    10   6 C    2.932 --    20 H    0.978    19 H    0.977    21 H    0.977
    11   6 C    3.950 --    12 O    1.691     9 N    1.270    13 N    0.908
    12   8 O    2.012 --    11 C    1.691     9 N    0.123    13 N    0.103
    13   7 N    3.482 --     5 C    1.271    14 C    0.986    11 C    0.908
                            12 O    0.103
    14   6 C    3.924 --    13 N    0.986    22 H    0.967    23 H    0.966
                            24 H    0.961
    15   1 H    0.987 --     1 C    0.956
    16   1 H    0.988 --     1 C    0.964
    17   1 H    0.979 --     1 C    0.956
    18   1 H    0.983 --     3 C    0.952
    19   1 H    0.978 --    10 C    0.977
    20   1 H    0.979 --    10 C    0.978
    21   1 H    0.978 --    10 C    0.977
    22   1 H    0.986 --    14 C    0.967
    23   1 H    0.985 --    14 C    0.966
    24   1 H    0.983 --    14 C    0.961
    25   1 H    0.947 --     4 N    0.919
 ---------------------------------------------------------------------------

molecular dipole:
                 x           y           z       tot (Debye)
 q only:        1.711      -0.894      -0.358
   full:        2.154      -1.578      -0.405       6.865

           -------------------------------------------------
          | TOTAL ENERGY              -42.090940845590 Eh   |
          | GRADIENT NORM               0.003071365112 Eh/α |
          | HOMO-LUMO GAP               0.459027568260 eV   |
           -------------------------------------------------

 * finished run on 2024/06/05 at 19:58:03.593
