   * xtb version 6.6.1 (8d0f1dd) compiled by 'conda@1efc2f54142f' on 2023-08-01
          program call               : xtb struc.xyz --opt loose --input .xc1 --gfn2

   ID    Z sym.   atoms
    1    6 C      1, 3, 5-7, 10, 11, 14
    2    7 N      2, 4, 9, 13
    3    8 O      8, 12
    4    1 H      15-25
constraining bond 2 15 to    4.0600000 Å, actual value:    2.0850972 Å

          :  Hamiltonian                  GFN2-xTB          :
 * total energy  :   -28.3198471 Eh     change       -0.6650680E-10 Eh
 * total energy  :   -35.2996909 Eh     change       -0.6979844E+01 Eh
 * total energy  :   -39.4588954 Eh     change       -0.4159204E+01 Eh
 * total energy  :   -41.3068351 Eh     change       -0.1847940E+01 Eh
 * total energy  :   -41.7646885 Eh     change       -0.4578534E+00 Eh
 * total energy  :   -41.8146233 Eh     change       -0.4993483E-01 Eh
 * total energy  :   -41.8356348 Eh     change       -0.2101150E-01 Eh
 * total energy  :   -41.8526148 Eh     change       -0.1697998E-01 Eh
 * total energy  :   -41.8980609 Eh     change       -0.4544609E-01 Eh
 * total energy  :   -41.9229988 Eh     change       -0.2493787E-01 Eh
 * total energy  :   -42.0857295 Eh     change       -0.5809086E-02 Eh
 * total energy  :   -42.0998835 Eh     change       -0.1415399E-01 Eh
 * total energy  :   -42.1056493 Eh     change       -0.5765871E-02 Eh
 * total energy  :   -42.1071188 Eh     change       -0.1469478E-02 Eh
 * total energy  :   -42.1077055 Eh     change       -0.5867287E-03 Eh
 * total energy  :   -42.1080132 Eh     change       -0.3076903E-03 Eh
 * total energy  :   -42.1081083 Eh     change       -0.9502989E-04 Eh
 * total energy  :   -42.1081825 Eh     change       -0.7424497E-04 Eh
 * total energy  :   -42.1082317 Eh     change       -0.4923208E-04 Eh
   *** GEOMETRY OPTIMIZATION CONVERGED AFTER 29 ITERATIONS ***

 final structure:
================
25
 xtb: 6.6.1 (8d0f1dd)
C            3.10506253467032        1.00601076500584       -0.23193374269723
N            2.22802186622867        0.01020027663100       -0.16964004083157
C            2.47468835493909       -1.31896016864863       -0.17948340031811
N            1.30523558276204       -2.01068470985801       -0.11505304922937
C            0.28428524942234       -1.11159312061522       -0.06112705317232
C            0.84431379592880        0.15360419399680       -0.09001216747303
C            0.03241008535149        1.34921178800926       -0.06682300730000
O            0.44402220873362        2.48431903228670       -0.09134354661065
N           -1.32800797697700        1.03474586931332       -0.01182407782777
C           -2.27118441558181        2.14341160835738        0.00256180718148
C           -1.90920620750805       -0.21888224683146        0.01758338816905
O           -3.09713447024597       -0.37667936028482        0.05841771508298
N           -1.03772579357106       -1.33175479440540       -0.00318872934877
C           -1.60252647854294       -2.66627523424538        0.02692871494997
H            4.92373414152434        2.39028687772347        1.71490751168188
H            4.15226560882650        0.78682002869289       -0.32258355065776
H            2.73453500274401        2.01418788179182       -0.22619503926230
H            3.44579191118329       -1.76617151302795       -0.23573979185394
H           -1.70428624547986        3.07106292694229        0.01776854105491
H           -2.90445531311599        2.10240982039502       -0.88410064741403
H           -2.91072949000108        2.07292397609630        0.88223088514273
H           -1.27575035628964       -3.19907241989391        0.92044652468032
H           -1.31770772648329       -3.22162622128653       -0.86724956740510
H           -2.68669289264285       -2.56220532922005        0.05128558483177
H            1.23147253822500       -3.01705138532477       -0.10466164347319

          :  Hamiltonian                  GFN2-xTB          :
         :: total energy             -42.108231747498 Eh    ::
         :: gradient norm              0.003747740415 Eh/a0 ::
         :: HOMO-LUMO gap              0.352805757973 eV    ::
         :: SCC energy               -42.631855500381 Eh    ::
         :: -> dispersion             -0.022747321730 Eh    ::
         :: repulsion energy           0.523525884291 Eh    ::

    * Orbital Energies and Occupations

         #    Occupation            Energy/Eh            Energy/eV
      -------------------------------------------------------------
         1        2.0000           -0.9112589             -24.7966
       ...           ...                  ...                  ...
        25        1.9999           -0.6682237             -18.1833
        26        1.9999           -0.6681855             -18.1823
        27        1.9999           -0.6588862             -17.9292
        28        1.9995           -0.6369049             -17.3311
        29        1.9994           -0.6327744             -17.2187
        30        1.9991           -0.6273794             -17.0719
        31        1.9986           -0.6196848             -16.8625
        32        1.9953           -0.6005839             -16.3427
        33        1.9847           -0.5816887             -15.8286
        34        1.9559           -0.5646720             -15.3655
        35        1.9501           -0.5626418             -15.3103
        36        1.9445           -0.5609094             -15.2631
        37        1.2826           -0.5138117             -13.9815 (HOMO)
        38        0.8817           -0.5008464             -13.6287 (LUMO)
        39        0.0054           -0.4111419             -11.1877
        40        0.0030           -0.4019393             -10.9373
        41        0.0004           -0.3687985             -10.0355
        42        0.0000           -0.2870641              -7.8114
        43                         -0.2072995              -5.6409
        44                         -0.1865784              -5.0771
        45                         -0.1449634              -3.9447
        46                         -0.1157494              -3.1497
        47                         -0.0832908              -2.2665
        48                         -0.0495433              -1.3481
       ...                                ...                  ...
        67                          0.5536570              15.0658
      -------------------------------------------------------------
                  HL-Gap            0.0129654 Eh            0.3528 eV

     #   Z          covCN         q      C6AA      α(0)
     1   6 C        2.790    -0.070    29.723     8.931
     2   7 N        2.808     0.130    19.026     6.478
     3   6 C        3.042     0.026    27.376     8.582
     4   7 N        2.780    -0.059    22.375     7.025
     5   6 C        3.024     0.120    25.347     8.258
     6   6 C        3.112    -0.038    28.783     8.789
     7   6 C        2.764     0.275    22.357     7.743
     8   8 O        0.858    -0.356    20.829     6.119
     9   7 N        2.746    -0.081    22.808     7.093
    10   6 C        3.710    -0.062    21.839     6.679
    11   6 C        2.728     0.318    21.595     7.608
    12   8 O        0.860    -0.350    20.697     6.100
    13   7 N        2.738    -0.053    22.264     7.008
    14   6 C        3.696    -0.073    22.074     6.721
    15   1 H        0.000     0.051     5.753     4.386
    16   1 H        0.926     0.109     1.708     2.043
    17   1 H        0.926     0.140     1.464     1.892
    18   1 H        0.926     0.121     1.603     1.980
    19   1 H        0.925     0.116     1.643     2.005
    20   1 H        0.924     0.103     1.760     2.075
    21   1 H        0.925     0.104     1.748     2.067
    22   1 H        0.924     0.086     1.917     2.165
    23   1 H        0.924     0.085     1.926     2.170
    24   1 H        0.925     0.129     1.541     1.941
    25   1 H        0.860     0.228     0.972     1.545

Wiberg/Mayer (AO) data.
largest (>0.10) Wiberg bond orders for each atom

     #   Z sym  total        # sym  WBO       # sym  WBO       # sym  WBO
 ---------------------------------------------------------------------------
     1   6 C    3.410 --     2 N    1.330    16 H    0.965    17 H    0.956
     2   7 N    3.764 --     1 C    1.330     3 C    1.249     6 C    1.088
     3   6 C    3.645 --     2 N    1.249     4 N    1.242    18 H    0.955
     4   7 N    3.526 --     3 C    1.242     5 C    1.192    25 H    0.919
     5   6 C    3.938 --     6 C    1.351    13 N    1.219     4 N    1.192
     6   6 C    3.846 --     5 C    1.351     2 N    1.088     7 C    1.084
     7   6 C    3.959 --     8 O    1.687     9 N    1.093     6 C    1.084
     8   8 O    2.021 --     7 C    1.687     9 N    0.139
     9   7 N    3.531 --    11 C    1.127     7 C    1.093    10 C    0.972
                             8 O    0.139    12 O    0.133
    10   6 C    3.898 --     9 N    0.972    19 H    0.965    21 H    0.958
                            20 H    0.957
    11   6 C    3.958 --    12 O    1.706     9 N    1.127    13 N    1.034
    12   8 O    2.046 --    11 C    1.706     9 N    0.133    13 N    0.118
    13   7 N    3.532 --     5 C    1.219    11 C    1.034    14 C    0.975
                            12 O    0.118
    14   6 C    3.919 --    13 N    0.975    23 H    0.968    22 H    0.968
                            24 H    0.963
    15   1 H    0.025
    16   1 H    0.987 --     1 C    0.965
    17   1 H    0.980 --     1 C    0.956
    18   1 H    0.984 --     3 C    0.955
    19   1 H    0.983 --    10 C    0.965
    20   1 H    0.976 --    10 C    0.957
    21   1 H    0.977 --    10 C    0.958
    22   1 H    0.986 --    14 C    0.968
    23   1 H    0.986 --    14 C    0.968
    24   1 H    0.982 --    14 C    0.963
    25   1 H    0.947 --     4 N    0.919
 ---------------------------------------------------------------------------

molecular dipole:
                 x           y           z       tot (Debye)
 q only:        2.311      -1.958      -0.049
   full:        2.592      -2.428      -0.063       9.028

           -------------------------------------------------
          | TOTAL ENERGY              -42.108231747498 Eh   |
          | GRADIENT NORM               0.003747740415 Eh/α |
          | HOMO-LUMO GAP               0.352805757973 eV   |
           -------------------------------------------------

 * finished run on 2024/06/05 at 19:59:07.590
