   * xtb version 6.6.1 (8d0f1dd) compiled by 'conda@1efc2f54142f' on 2023-08-01
          program call               : xtb struc.xyz --opt loose --input .xc1 --gfn2

   ID    Z sym.   atoms
    1    6 C      1, 3, 5-7, 10, 11, 14
    2    7 N      2, 4, 9, 13
    3    8 O      8, 12
    4    1 H      15-25
constraining bond 11 20 to    3.7133300 Å, actual value:    2.6644824 Å

          :  Hamiltonian                  GFN2-xTB          :
 * total energy  :   -44.2120888 Eh     change       -0.6650680E-10 Eh
 * total energy  :   -47.8352650 Eh     change       -0.3623176E+01 Eh
 * total energy  :   -53.2870403 Eh     change       -0.5451775E+01 Eh
 * total energy  :   -59.4022889 Eh     change       -0.6115249E+01 Eh
 * total energy  :   -56.6480861 Eh     change        0.2754203E+01 Eh
 * total energy  :   -59.5167013 Eh     change       -0.2868615E+01 Eh
 * total energy  :   -59.5374115 Eh     change       -0.2071019E-01 Eh
 * total energy  :   -59.5815692 Eh     change       -0.4415772E-01 Eh
 * total energy  :   -59.6032603 Eh     change       -0.2169111E-01 Eh
 * total energy  :   -59.6320469 Eh     change       -0.2878658E-01 Eh
 * total energy  :   -59.7348012 Eh     change       -0.1517760E-03 Eh
 * total energy  :   -59.7349636 Eh     change       -0.1624644E-03 Eh
 * total energy  :   -59.7350998 Eh     change       -0.1361302E-03 Eh
 * total energy  :   -59.7352477 Eh     change       -0.1479599E-03 Eh
 * total energy  :   -59.7353392 Eh     change       -0.9148522E-04 Eh
 * total energy  :   -59.7354037 Eh     change       -0.6448796E-04 Eh
 * total energy  :   -59.7325014 Eh     change        0.2902335E-02 Eh
 * total energy  :   -59.7354519 Eh     change       -0.2950476E-02 Eh
 * total energy  :   -59.7354729 Eh     change       -0.2109543E-04 Eh
   *** GEOMETRY OPTIMIZATION CONVERGED AFTER 46 ITERATIONS ***

 final structure:
================
25
 xtb: 6.6.1 (8d0f1dd)
C            3.23330317463309        1.13312118862881       -0.03556215253132
N            2.21971095377530        0.11130088479528       -0.08170908571928
C            2.44583839777281       -1.18898092736133       -0.06328331708061
N            1.27518941425351       -1.85528513429439       -0.10048128785475
C            0.24565039964037       -0.94533432326764       -0.14843547276292
C            0.85643659761274        0.32447625420216       -0.12770978587598
C            0.18685984905303        1.59363158743796        0.06150077429229
O            0.71522467402212        2.66980193258816        0.22480674915573
N           -1.21604182626168        1.40483491101586        0.08857731919494
C           -2.03428581457666        2.26053936086462        0.54599836347116
C           -2.04492433038455       -0.13214416688113       -0.79634740502538
O           -3.15684192058562       -0.23925985346671       -0.30466456321983
N           -1.04118655949693       -1.22998099302664       -0.20120697883733
C           -1.59772719891156       -2.51119584303219        0.13850864704629
H            3.67803455947440        1.17546736310379        0.95993323870941
H            4.01613400336314        0.91725387919696       -0.76124546226857
H            2.78279777447416        2.09974367743400       -0.25190170507067
H            3.41244565645388       -1.65276750717647       -0.02381617514981
H           -1.72038595592207        3.21423496554689        0.95537567942253
H           -1.88823589684367        0.01035276365658       -1.16380795139661
H           -3.08594941506716        2.00175564553417        0.51697533672710
H           -1.11033733676428       -2.92961937058029        1.01824723567296
H           -1.53094819141711       -3.21382335120351       -0.69597037243202
H           -2.65184224284577       -2.34028237771547        0.36464688280301
H            1.17151274864895       -2.85960202439950       -0.08725689336940

          :  Hamiltonian                  GFN2-xTB          :
         :: total energy             -59.735472948592 Eh    ::
         :: gradient norm              0.003101018223 Eh/a0 ::
         :: HOMO-LUMO gap              2.035716516981 eV    ::
         :: SCC energy               -42.694036732721 Eh    ::
         :: -> dispersion             -0.022977235896 Eh    ::
         :: repulsion energy           2.275822394046 Eh    ::

    * Orbital Energies and Occupations

         #    Occupation            Energy/Eh            Energy/eV
      -------------------------------------------------------------
         1        2.0000           -0.9061011             -24.6563
       ...           ...                  ...                  ...
        25        2.0000           -0.6702652             -18.2388
        26        2.0000           -0.6627078             -18.0332
        27        1.9999           -0.6563372             -17.8598
        28        1.9997           -0.6351062             -17.2821
        29        1.9997           -0.6335464             -17.2397
        30        1.9996           -0.6301176             -17.1464
        31        1.9992           -0.6175226             -16.8036
        32        1.9991           -0.6154315             -16.7467
        33        1.9987           -0.6097690             -16.5927
        34        1.9901           -0.5777809             -15.7222
        35        1.9773           -0.5645179             -15.3613
        36        1.9486           -0.5513298             -15.0024
        37        1.8588           -0.5345747             -14.5465 (HOMO)
        38        0.2091           -0.4597635             -12.5108 (LUMO)
        39        0.0149           -0.4163208             -11.3287
        40        0.0049           -0.3986050             -10.8466
        41        0.0004           -0.3568484              -9.7103
        42        0.0000           -0.3057419              -8.3197
        43        0.0000           -0.2443437              -6.6489
        44                         -0.1894166              -5.1543
        45                         -0.1479134              -4.0249
        46                         -0.1004934              -2.7346
        47                         -0.0848937              -2.3101
        48                         -0.0378725              -1.0306
       ...                                ...                  ...
        67                         10.6170473             288.9046
      -------------------------------------------------------------
                  HL-Gap            0.0748112 Eh            2.0357 eV

     #   Z          covCN         q      C6AA      α(0)
     1   6 C        3.693    -0.095    22.501     6.787
     2   7 N        2.831     0.084    19.776     6.605
     3   6 C        3.026     0.057    26.686     8.474
     4   7 N        2.796    -0.068    22.547     7.052
     5   6 C        2.989     0.126    25.231     8.240
     6   6 C        3.098    -0.028    28.580     8.761
     7   6 C        2.771     0.279    22.273     7.729
     8   8 O        0.857    -0.346    20.635     6.090
     9   7 N        2.267    -0.141    24.361     7.327
    10   6 C        2.786     0.052    26.808     8.481
    11   6 C        3.106     0.204    23.571     7.955
    12   8 O        0.863    -0.344    20.586     6.083
    13   7 N        2.707    -0.108    23.367     7.179
    14   6 C        3.692    -0.065    21.930     6.701
    15   1 H        0.924     0.109     1.704     2.041
    16   1 H        0.925     0.104     1.753     2.071
    17   1 H        0.925     0.135     1.495     1.912
    18   1 H        0.926     0.123     1.593     1.974
    19   1 H        0.925     0.122     1.600     1.978
    20   1 H        0.938     0.163     1.306     1.787
    21   1 H        0.925     0.136     1.492     1.910
    22   1 H        0.925     0.074     2.045     2.237
    23   1 H        0.924     0.079     1.990     2.206
    24   1 H        0.924     0.120     1.612     1.986
    25   1 H        0.860     0.227     0.977     1.549

Wiberg/Mayer (AO) data.
largest (>0.10) Wiberg bond orders for each atom

     #   Z sym  total        # sym  WBO       # sym  WBO       # sym  WBO
 ---------------------------------------------------------------------------
     1   6 C    3.915 --     2 N    0.985    16 H    0.964    17 H    0.960
                            15 H    0.955
     2   7 N    3.698 --     3 C    1.415     6 C    1.152     1 C    0.985
     3   6 C    3.876 --     2 N    1.415     4 N    1.279    18 H    0.952
     4   7 N    3.586 --     3 C    1.279     5 C    1.160    25 H    0.919
     5   6 C    3.940 --    13 N    1.330     6 C    1.276     4 N    1.160
     6   6 C    3.869 --     5 C    1.276     2 N    1.152     7 C    1.098
     7   6 C    3.897 --     8 O    1.706     6 C    1.098     9 N    1.007
     8   8 O    1.999 --     7 C    1.706
     9   7 N    3.385 --    10 C    1.789     7 C    1.007    11 C    0.336
                            12 O    0.133
    10   6 C    3.756 --     9 N    1.789    21 H    0.944    19 H    0.940
    11   6 C    3.917 --    12 O    1.774    20 H    0.956    13 N    0.768
                             9 N    0.336
    12   8 O    2.110 --    11 C    1.774     9 N    0.133    13 N    0.124
    13   7 N    3.428 --     5 C    1.330    14 C    0.998    11 C    0.768
                            12 O    0.124
    14   6 C    3.931 --    13 N    0.998    22 H    0.969    23 H    0.959
                            24 H    0.958
    15   1 H    0.985 --     1 C    0.955
    16   1 H    0.987 --     1 C    0.964
    17   1 H    0.981 --     1 C    0.960
    18   1 H    0.984 --     3 C    0.952
    19   1 H    0.976 --    10 C    0.940
    20   1 H    0.968 --    11 C    0.956
    21   1 H    0.976 --    10 C    0.944
    22   1 H    0.987 --    14 C    0.969
    23   1 H    0.980 --    14 C    0.959
    24   1 H    0.982 --    14 C    0.958
    25   1 H    0.948 --     4 N    0.919
 ---------------------------------------------------------------------------

molecular dipole:
                 x           y           z       tot (Debye)
 q only:        2.110      -1.527      -0.141
   full:        2.383      -1.801      -0.118       7.598

           -------------------------------------------------
          | TOTAL ENERGY              -59.735472948592 Eh   |
          | GRADIENT NORM               0.003101018223 Eh/α |
          | HOMO-LUMO GAP               2.035716516981 eV   |
           -------------------------------------------------

 * finished run on 2024/06/05 at 20:00:20.538
