   * xtb version 6.6.1 (8d0f1dd) compiled by 'conda@1efc2f54142f' on 2023-08-01
          program call               : xtb struc.xyz --opt loose --input .xc1 --gfn2

   ID    Z sym.   atoms
    1    6 C      1, 3, 5-7, 10, 11, 14
    2    7 N      2, 4, 9, 13
    3    8 O      8, 12
    4    1 H      15-25
constraining bond 4 16 to    4.6866700 Å, actual value:    3.9838146 Å

          :  Hamiltonian                  GFN2-xTB          :
 * total energy  :   -43.1299215 Eh     change       -0.6650680E-10 Eh
 * total energy  :   -45.7361172 Eh     change       -0.2606196E+01 Eh
 * total energy  :   -49.8117945 Eh     change       -0.4075677E+01 Eh
 * total energy  :   -55.5134149 Eh     change       -0.5701620E+01 Eh
 * total energy  :   -63.1984233 Eh     change       -0.7685008E+01 Eh
 * total energy  :   -71.4002230 Eh     change       -0.8201800E+01 Eh
 * total energy  :   -67.9417422 Eh     change        0.3458481E+01 Eh
 * total energy  :   -72.1345322 Eh     change       -0.4192790E+01 Eh
 * total energy  :   -72.2742595 Eh     change       -0.1397273E+00 Eh
 * total energy  :   -72.3256221 Eh     change       -0.5136257E-01 Eh
 * total energy  :   -72.8716265 Eh     change       -0.3647501E-04 Eh
 * total energy  :   -72.8716840 Eh     change       -0.5743145E-04 Eh
 * total energy  :   -72.8717295 Eh     change       -0.4551295E-04 Eh
 * total energy  :   -72.8717621 Eh     change       -0.3264898E-04 Eh
 * total energy  :   -72.8717890 Eh     change       -0.2691923E-04 Eh
 * total energy  :   -72.8718129 Eh     change       -0.2386383E-04 Eh
 * total energy  :   -72.8718070 Eh     change        0.5938756E-05 Eh
 * total energy  :   -72.8718295 Eh     change       -0.2249311E-04 Eh
 * total energy  :   -72.8718337 Eh     change       -0.4265396E-05 Eh
   *** GEOMETRY OPTIMIZATION CONVERGED AFTER 91 ITERATIONS ***

 final structure:
================
25
 xtb: 6.6.1 (8d0f1dd)
C            2.82603260120767        1.15822705109881        0.60363169824109
N            2.22718896011463        0.14608082739621        0.02737108839375
C            2.96973834532488       -0.73812227506896       -0.82458547436362
N            4.20571874537864       -0.68632879602530       -0.93140649264508
C            0.22257315645739       -1.22926932450414        0.21387140943795
C            0.83428436109879       -0.01529863915861        0.10856073269680
C            0.02579759884124        1.20879937706541        0.00462834434981
O            0.51255968279157        2.31556647915713       -0.06835049500925
N           -1.33396884590800        0.98355911871830       -0.02313350360230
C           -2.22188202839023        2.12864601462174       -0.15522434811037
C           -1.96178522444334       -0.24345773841283        0.09117825482707
O           -3.15568517536156       -0.35673077627774        0.08387194292608
N           -1.11294353544999       -1.35370258547034        0.21870465671079
C           -1.72937793531615       -2.65645102249293        0.36992840389337
H            3.86692344343846        1.33198323959000        0.38094102022675
H            4.60487449570138       -0.68815856056552       -0.98909197877214
H            2.30247142307170        1.81254094030453        1.27639871632381
H            2.30986348467440       -1.43327460265968       -1.34995960080944
H           -1.61422971660765        3.02552339459255       -0.24795599982796
H           -2.85249439097351        2.00274619543992       -1.03537963105181
H           -2.86836241317893        2.19678901276861        0.72001435644224
H           -1.49489114582799       -3.07647663298279        1.34843720612261
H           -1.37947495209299       -3.33461147361770       -0.40778241631388
H           -2.80826976987211       -2.53423563633270        0.28392049491604
H            0.78577034941281       -2.14610504558948        0.33258323289578

          :  Hamiltonian                  GFN2-xTB          :
         :: total energy             -72.871833721883 Eh    ::
         :: gradient norm              0.002060632572 Eh/a0 ::
         :: HOMO-LUMO gap              1.764483111836 eV    ::
         :: SCC energy               -42.740183118744 Eh    ::
         :: -> dispersion             -0.021962542506 Eh    ::
         :: repulsion energy           2.627772699787 Eh    ::

    * Orbital Energies and Occupations

         #    Occupation            Energy/Eh            Energy/eV
      -------------------------------------------------------------
         1        2.0000           -0.8860128             -24.1096
       ...           ...                  ...                  ...
        25        1.9999           -0.6773749             -18.4323
        26        1.9999           -0.6672075             -18.1556
        27        1.9997           -0.6538740             -17.7928
        28        1.9995           -0.6467457             -17.5988
        29        1.9992           -0.6384928             -17.3743
        30        1.9983           -0.6278345             -17.0842
        31        1.9982           -0.6264026             -17.0453
        32        1.9949           -0.6101065             -16.6018
        33        1.9770           -0.5860178             -15.9464
        34        1.9614           -0.5776642             -15.7190
        35        1.9488           -0.5731111             -15.5951
        36        1.9298           -0.5679508             -15.4547
        37        1.8461           -0.5548172             -15.0973 (HOMO)
        38        0.3329           -0.4899737             -13.3329 (LUMO)
        39        0.0125           -0.4351926             -11.8422
        40        0.0018           -0.4042386             -10.9999
        41        0.0004           -0.3804287             -10.3520
        42        0.0000           -0.3037380              -8.2651
        43                         -0.2063641              -5.6155
        44                         -0.1577649              -4.2930
        45                         -0.1331707              -3.6238
        46                         -0.0889539              -2.4206
        47                         -0.0724202              -1.9707
        48                         -0.0284196              -0.7733
       ...                                ...                  ...
        67                          7.1910145             195.6775
      -------------------------------------------------------------
                  HL-Gap            0.0648436 Eh            1.7645 eV

     #   Z          covCN         q      C6AA      α(0)
     1   6 C        2.810    -0.007    28.188     8.698
     2   7 N        2.739     0.086    19.748     6.600
     3   6 C        2.824     0.109    25.574     8.286
     4   7 N        1.778    -0.244    27.193     7.723
     5   6 C        2.856     0.023    27.494     8.594
     6   6 C        2.922    -0.014    28.369     8.735
     7   6 C        2.772     0.270    22.447     7.759
     8   8 O        0.858    -0.364    20.970     6.140
     9   7 N        2.742    -0.066    22.518     7.048
    10   6 C        3.708    -0.063    21.858     6.682
    11   6 C        2.724     0.316    21.622     7.612
    12   8 O        0.859    -0.344    20.602     6.086
    13   7 N        2.743    -0.011    21.464     6.881
    14   6 C        3.703    -0.079    22.170     6.732
    15   1 H        0.926     0.137     1.481     1.903
    16   1 H        0.912     0.263     0.830     1.425
    17   1 H        0.926     0.145     1.424     1.866
    18   1 H        0.924     0.087     1.904     2.158
    19   1 H        0.925     0.116     1.649     2.008
    20   1 H        0.925     0.107     1.726     2.055
    21   1 H        0.924     0.107     1.726     2.055
    22   1 H        0.924     0.099     1.793     2.094
    23   1 H        0.925     0.097     1.815     2.107
    24   1 H        0.925     0.127     1.556     1.951
    25   1 H        0.925     0.103     1.755     2.072

Wiberg/Mayer (AO) data.
largest (>0.10) Wiberg bond orders for each atom

     #   Z sym  total        # sym  WBO       # sym  WBO       # sym  WBO
 ---------------------------------------------------------------------------
     1   6 C    3.597 --     2 N    1.501    15 H    0.954    17 H    0.954
     2   7 N    3.659 --     1 C    1.501     6 C    1.045     3 C    0.990
     3   6 C    3.887 --     4 N    1.932     2 N    0.990    18 H    0.919
     4   7 N    3.013 --     3 C    1.932    16 H    0.924
     5   6 C    3.927 --     6 C    1.521    13 N    1.285    25 H    0.948
     6   6 C    3.883 --     5 C    1.521     2 N    1.045     7 C    1.039
     7   6 C    3.953 --     8 O    1.671     9 N    1.135     6 C    1.039
     8   8 O    2.026 --     7 C    1.671     9 N    0.138
     9   7 N    3.554 --     7 C    1.135    11 C    1.110    10 C    0.971
                             8 O    0.138    12 O    0.131
    10   6 C    3.897 --     9 N    0.971    19 H    0.966    20 H    0.956
                            21 H    0.955
    11   6 C    3.957 --    12 O    1.704     9 N    1.110    13 N    1.052
    12   8 O    2.034 --    11 C    1.704     9 N    0.131    13 N    0.109
    13   7 N    3.591 --     5 C    1.285    11 C    1.052    14 C    0.978
                            12 O    0.109
    14   6 C    3.910 --    13 N    0.978    23 H    0.964    24 H    0.963
                            22 H    0.961
    15   1 H    0.980 --     1 C    0.954
    16   1 H    0.931 --     4 N    0.924
    17   1 H    0.977 --     1 C    0.954
    18   1 H    0.968 --     3 C    0.919
    19   1 H    0.983 --    10 C    0.966
    20   1 H    0.977 --    10 C    0.956
    21   1 H    0.977 --    10 C    0.955
    22   1 H    0.980 --    14 C    0.961
    23   1 H    0.982 --    14 C    0.964
    24   1 H    0.982 --    14 C    0.963
    25   1 H    0.987 --     5 C    0.948
 ---------------------------------------------------------------------------

molecular dipole:
                 x           y           z       tot (Debye)
 q only:        1.985      -1.165       0.201
   full:        2.142      -1.355       0.204       6.463

           -------------------------------------------------
          | TOTAL ENERGY              -72.871833721883 Eh   |
          | GRADIENT NORM               0.002060632572 Eh/α |
          | HOMO-LUMO GAP               1.764483111836 eV   |
           -------------------------------------------------

 * finished run on 2024/06/05 at 19:58:31.576
