   * xtb version 6.6.1 (8d0f1dd) compiled by 'conda@1efc2f54142f' on 2023-08-01
          program call               : xtb xtbopt.xyz --opt crude --input .xc2 --gfn2

   ID    Z sym.   atoms
    1    6 C      1, 3, 5-7, 10, 11, 14
    2    7 N      2, 4, 9, 13
    3    8 O      8, 12
    4    1 H      15-25
########################################################################
[WARNING] Please study the warnings concerning your input carefully
-1- readin_getIntValue: could not parse ''
########################################################################

          :  Hamiltonian                  GFN2-xTB          :
 * total energy  :   -40.1123177 Eh     change       -0.5826450E-12 Eh
 * total energy  :   -41.9314816 Eh     change       -0.1819164E+01 Eh
 * total energy  :   -42.1130459 Eh     change       -0.1815643E+00 Eh
 * total energy  :   -42.1248293 Eh     change       -0.1178348E-01 Eh
 * total energy  :   -42.1307970 Eh     change       -0.5967649E-02 Eh
 * total energy  :   -42.1313779 Eh     change       -0.5809169E-03 Eh
 * total energy  :   -42.1318519 Eh     change       -0.4739938E-03 Eh
 * total energy  :   -42.1321331 Eh     change       -0.2811554E-03 Eh
 * total energy  :   -42.1324563 Eh     change       -0.3232342E-03 Eh
 * total energy  :   -42.1326979 Eh     change       -0.2415811E-03 Eh
 * total energy  :   -42.1356064 Eh     change       -0.1266770E-02 Eh
 * total energy  :   -42.1363748 Eh     change       -0.7683684E-03 Eh
 * total energy  :   -42.1387293 Eh     change       -0.2354538E-02 Eh
 * total energy  :   -42.1457814 Eh     change       -0.7052050E-02 Eh
 * total energy  :   -42.1480273 Eh     change       -0.2245983E-02 Eh
 * total energy  :   -42.1495024 Eh     change       -0.1475087E-02 Eh
 * total energy  :   -42.1505987 Eh     change       -0.1096227E-02 Eh
 * total energy  :   -42.1512321 Eh     change       -0.6333975E-03 Eh
 * total energy  :   -42.1514352 Eh     change       -0.2031806E-03 Eh
   *** GEOMETRY OPTIMIZATION CONVERGED AFTER 24 ITERATIONS ***

 final structure:
================
25
 xtb: 6.6.1 (8d0f1dd)
C            2.78526266208122        1.26985918859480        0.52341874659349
N            2.21524846972153        0.21664105853043       -0.00190113687476
C            3.00701961416256       -0.72697639641894       -0.69622472415793
N            4.24510809395336       -0.70895713936252       -0.51960651056931
C            0.22910010812597       -1.19049544592416        0.13521233370379
C            0.82215516830796        0.03536071338245        0.03151325502982
C           -0.01701311431583        1.24111971829101       -0.07011629118095
O            0.43631393468369        2.35637901376186       -0.20312730609284
N           -1.37371776490269        0.99507895427955       -0.02190885399577
C           -2.28201244298629        2.13084182015171       -0.06873410278282
C           -1.97620421743266       -0.24074205064788        0.11494482317484
O           -3.16631290338172       -0.37333908495885        0.18503562815736
N           -1.10387930735807       -1.33956529780213        0.16595566265772
C           -1.69630249537989       -2.65457212740885        0.31189281642516
H            3.84570731332088        1.39612178516157        0.36686094371789
H            4.83478186810226       -1.36648891061859       -1.01357618546311
H            2.22358208477119        1.98948638637552        1.09233432307246
H            2.42376080446248       -1.38864581121719       -1.34287469166466
H           -1.69918549082105        3.03116114273353       -0.25068009367476
H           -3.01522674924708        1.98322377344454       -0.86133454536682
H           -2.81579451126475        2.21275784162435        0.87915933893554
H           -1.37116695701591       -3.11808591750879        1.24386291150562
H           -1.41892883666234       -3.29346207632112       -0.52678126257354
H           -2.77958626009425       -2.53775171136671        0.33051244146698
H            0.80772244325991       -2.10071088518269        0.22733409785502

          :  Hamiltonian                  GFN2-xTB          :
         :: total energy             -42.151435232785 Eh    ::
         :: gradient norm              0.004584240157 Eh/a0 ::
         :: HOMO-LUMO gap              2.125299425985 eV    ::
         :: SCC energy               -42.689794042574 Eh    ::
         :: -> dispersion             -0.021920932964 Eh    ::
         :: repulsion energy           0.538278973779 Eh    ::

    * Orbital Energies and Occupations

         #    Occupation            Energy/Eh            Energy/eV
      -------------------------------------------------------------
         1        2.0000           -0.8870923             -24.1390
       ...           ...                  ...                  ...
        25        1.9999           -0.6782646             -18.4565
        26        1.9998           -0.6653464             -18.1050
        27        1.9995           -0.6487348             -17.6530
        28        1.9994           -0.6439471             -17.5227
        29        1.9991           -0.6380538             -17.3623
        30        1.9982           -0.6275365             -17.0761
        31        1.9981           -0.6271098             -17.0645
        32        1.9946           -0.6104384             -16.6109
        33        1.9764           -0.5867800             -15.9671
        34        1.9573           -0.5772710             -15.7083
        35        1.9467           -0.5736608             -15.6101
        36        1.9217           -0.5673631             -15.4387
        37        1.9153           -0.5660625             -15.4033 (HOMO)
        38        0.2802           -0.4879592             -13.2780 (LUMO)
        39        0.0121           -0.4359319             -11.8623
        40        0.0015           -0.4030154             -10.9666
        41        0.0003           -0.3776182             -10.2755
        42        0.0000           -0.3030862              -8.2474
        43                         -0.2103219              -5.7232
        44                         -0.1614682              -4.3938
        45                         -0.1351780              -3.6784
        46                         -0.0858185              -2.3352
        47                         -0.0765869              -2.0840
        48                         -0.0552574              -1.5036
       ...                                ...                  ...
        67                          0.5397897              14.6884
      -------------------------------------------------------------
                  HL-Gap            0.0781033 Eh            2.1253 eV

     #   Z          covCN         q      C6AA      α(0)
     1   6 C        2.817    -0.005    28.141     8.692
     2   7 N        2.747     0.107    19.406     6.543
     3   6 C        2.786     0.120    25.346     8.247
     4   7 N        1.783    -0.232    26.897     7.681
     5   6 C        2.856     0.024    27.457     8.588
     6   6 C        2.921    -0.015    28.391     8.738
     7   6 C        2.771     0.269    22.453     7.760
     8   8 O        0.858    -0.363    20.953     6.137
     9   7 N        2.741    -0.065    22.507     7.046
    10   6 C        3.708    -0.063    21.864     6.683
    11   6 C        2.724     0.317    21.618     7.612
    12   8 O        0.859    -0.344    20.591     6.084
    13   7 N        2.742    -0.011    21.463     6.881
    14   6 C        3.703    -0.079    22.170     6.732
    15   1 H        0.926     0.154     1.368     1.829
    16   1 H        0.860     0.214     1.038     1.596
    17   1 H        0.926     0.150     1.389     1.843
    18   1 H        0.924     0.067     2.123     2.279
    19   1 H        0.925     0.117     1.640     2.003
    20   1 H        0.925     0.108     1.710     2.045
    21   1 H        0.924     0.106     1.735     2.060
    22   1 H        0.924     0.098     1.801     2.099
    23   1 H        0.925     0.098     1.807     2.102
    24   1 H        0.925     0.128     1.552     1.948
    25   1 H        0.925     0.102     1.771     2.081

Wiberg/Mayer (AO) data.
largest (>0.10) Wiberg bond orders for each atom

     #   Z sym  total        # sym  WBO       # sym  WBO       # sym  WBO
 ---------------------------------------------------------------------------
     1   6 C    3.617 --     2 N    1.514    17 H    0.952    15 H    0.949
     2   7 N    3.689 --     1 C    1.514     6 C    1.047     3 C    1.027
     3   6 C    3.907 --     4 N    1.904     2 N    1.027    18 H    0.926
     4   7 N    2.961 --     3 C    1.904    16 H    0.922
     5   6 C    3.926 --     6 C    1.517    13 N    1.289    25 H    0.949
     6   6 C    3.882 --     5 C    1.517     2 N    1.047     7 C    1.041
     7   6 C    3.953 --     8 O    1.673     9 N    1.134     6 C    1.041
     8   8 O    2.022 --     7 C    1.673     9 N    0.139
     9   7 N    3.554 --     7 C    1.134    11 C    1.113    10 C    0.971
                             8 O    0.139    12 O    0.131
    10   6 C    3.895 --     9 N    0.971    19 H    0.965    20 H    0.957
                            21 H    0.954
    11   6 C    3.957 --    12 O    1.704     9 N    1.113    13 N    1.050
    12   8 O    2.034 --    11 C    1.704     9 N    0.131    13 N    0.108
    13   7 N    3.593 --     5 C    1.289    11 C    1.050    14 C    0.978
                            12 O    0.108
    14   6 C    3.909 --    13 N    0.978    24 H    0.963    23 H    0.963
                            22 H    0.962
    15   1 H    0.975 --     1 C    0.949
    16   1 H    0.949 --     4 N    0.922
    17   1 H    0.976 --     1 C    0.952
    18   1 H    0.979 --     3 C    0.926
    19   1 H    0.982 --    10 C    0.965
    20   1 H    0.977 --    10 C    0.957
    21   1 H    0.976 --    10 C    0.954
    22   1 H    0.981 --    14 C    0.962
    23   1 H    0.981 --    14 C    0.963
    24   1 H    0.982 --    14 C    0.963
    25   1 H    0.988 --     5 C    0.949
 ---------------------------------------------------------------------------

molecular dipole:
                 x           y           z       tot (Debye)
 q only:        1.936      -1.162       0.122
   full:        1.989      -1.582      -0.099       6.465

           -------------------------------------------------
          | TOTAL ENERGY              -42.151435232785 Eh   |
          | GRADIENT NORM               0.004584240157 Eh/α |
          | HOMO-LUMO GAP               2.125299425985 eV   |
           -------------------------------------------------

 * finished run on 2024/06/05 at 19:58:32.331
