   * xtb version 6.6.1 (8d0f1dd) compiled by 'conda@1efc2f54142f' on 2023-08-01
          program call               : xtb struc.xyz --opt loose --input .xc1 --gfn2

   ID    Z sym.   atoms
    1    6 C      1, 3, 5-7, 10, 11, 14
    2    7 N      2, 4, 9, 13
    3    8 O      8, 12
    4    1 H      15-25
constraining bond 6 16 to    3.7133300 Å, actual value:    3.2546852 Å

          :  Hamiltonian                  GFN2-xTB          :
 * total energy  :   -42.6208790 Eh     change       -0.6633627E-10 Eh
 * total energy  :   -44.5787986 Eh     change       -0.1957920E+01 Eh
 * total energy  :   -48.0849446 Eh     change       -0.3506146E+01 Eh
 * total energy  :   -53.4114682 Eh     change       -0.5326524E+01 Eh
 * total energy  :   -58.8080514 Eh     change       -0.5396583E+01 Eh
 * total energy  :   -58.7507704 Eh     change        0.5728095E-01 Eh
 * total energy  :   -58.7847424 Eh     change       -0.3397194E-01 Eh
 * total energy  :   -59.1806172 Eh     change       -0.3958749E+00 Eh
 * total energy  :   -59.2879138 Eh     change       -0.1072966E+00 Eh
 * total energy  :   -59.3288256 Eh     change       -0.4091180E-01 Eh
 * total energy  :   -59.7425194 Eh     change       -0.1627462E-03 Eh
 * total energy  :   -59.7426125 Eh     change       -0.9307248E-04 Eh
 * total energy  :   -59.7426893 Eh     change       -0.7680253E-04 Eh
 * total energy  :   -59.7427327 Eh     change       -0.4341591E-04 Eh
 * total energy  :   -59.7427565 Eh     change       -0.2383423E-04 Eh
 * total energy  :   -59.7427683 Eh     change       -0.1177413E-04 Eh
 * total energy  :   -59.7425497 Eh     change        0.2186388E-03 Eh
 * total energy  :   -59.7427885 Eh     change       -0.2388318E-03 Eh
 * total energy  :   -59.7427956 Eh     change       -0.7091589E-05 Eh
   *** GEOMETRY OPTIMIZATION CONVERGED AFTER 46 ITERATIONS ***

 final structure:
================
25
 xtb: 6.6.1 (8d0f1dd)
C            3.27295220539462        1.15019684380513       -0.11482455172093
N            2.42519579468349        0.16433925441220       -0.03840579398442
C            2.55905107750218       -1.04820400615483        0.54697725500804
N            1.38823894103344       -1.74070503695616        0.45080927770977
C            0.47586035502926       -1.06398043425792       -0.23413388648516
C            1.08105874882863        0.24413931583747       -0.69862719615674
C            0.17323926775317        1.33003034033086        0.09800658493162
O            0.67872828925522        2.25003048964186        0.66239502060738
N           -1.14273195606374        1.06508649642005       -0.06626657433814
C           -2.10267513495572        2.11276346363081        0.28492937524720
C           -1.71948498513903       -0.17341784425441       -0.40598553677233
O           -2.88593742842646       -0.29199808155356       -0.63304090977727
N           -0.85432377248146       -1.27424153127200       -0.35225988082717
C           -1.42756822768068       -2.60871877294667       -0.28379126324045
H            4.24328610649313        1.05365446516471        0.33368832796077
H            1.08448349990535        0.34847206851775       -1.11001556820131
H            2.99296779964459        2.05839612742164       -0.61046482060176
H            3.42717384989879       -1.39312161103592        1.06314023570187
H           -1.57209850036602        3.05824370258532        0.35478897730381
H           -2.86530992148800        2.15918176411395       -0.49000692366716
H           -2.57873265947582        1.88679851374294        1.23822860479355
H           -1.36619734103281       -3.00604964286385        0.73025941924501
H           -0.91335969393991       -3.27060593109615       -0.97810968311888
H           -2.47521724679865       -2.53170932062000       -0.56897842480443
H            1.26183244652655       -2.66034209101263        0.85285955308758

          :  Hamiltonian                  GFN2-xTB          :
         :: total energy             -59.742795589171 Eh    ::
         :: gradient norm              0.001769171965 Eh/a0 ::
         :: HOMO-LUMO gap              1.590446552950 eV    ::
         :: SCC energy               -42.695032581934 Eh    ::
         :: -> dispersion             -0.023146545200 Eh    ::
         :: repulsion energy           2.265981565470 Eh    ::

    * Orbital Energies and Occupations

         #    Occupation            Energy/Eh            Energy/eV
      -------------------------------------------------------------
         1        2.0000           -0.9157789             -24.9196
       ...           ...                  ...                  ...
        25        2.0000           -0.6805350             -18.5183
        26        2.0000           -0.6734922             -18.3267
        27        2.0000           -0.6678007             -18.1718
        28        2.0000           -0.6644752             -18.0813
        29        2.0000           -0.6422678             -17.4770
        30        2.0000           -0.6319653             -17.1967
        31        2.0000           -0.6280307             -17.0896
        32        2.0000           -0.6118758             -16.6500
        33        2.0000           -0.6084755             -16.5575
        34        2.0000           -0.5901213             -16.0580
        35        2.0000           -0.5831383             -15.8680
        36        2.0000           -0.5740470             -15.6206
        37        1.9512           -0.5108714             -13.9015 (HOMO)
        38        0.0486           -0.4524236             -12.3111 (LUMO)
        39        0.0002           -0.4099933             -11.1565
        40        0.0000           -0.3833235             -10.4308
        41                         -0.3483820              -9.4800
        42                         -0.2399655              -6.5298
        43                         -0.2013617              -5.4793
        44                         -0.1959071              -5.3309
        45                         -0.1607815              -4.3751
        46                         -0.1334713              -3.6319
        47                         -0.0954942              -2.5985
        48                         -0.0600512              -1.6341
       ...                                ...                  ...
        67                         10.4405519             284.1019
      -------------------------------------------------------------
                  HL-Gap            0.0584478 Eh            1.5904 eV

     #   Z          covCN         q      C6AA      α(0)
     1   6 C        2.788    -0.070    29.721     8.930
     2   7 N        2.780     0.094    19.623     6.579
     3   6 C        2.918    -0.017    28.442     8.745
     4   7 N        2.734    -0.037    21.965     6.961
     5   6 C        2.978     0.087    26.050     8.372
     6   6 C        3.844    -0.066    21.724     6.630
     7   6 C        2.757     0.273    22.382     7.747
     8   8 O        0.857    -0.313    20.015     5.998
     9   7 N        2.734    -0.089    22.971     7.118
    10   6 C        3.708    -0.062    21.842     6.680
    11   6 C        2.723     0.319    21.578     7.604
    12   8 O        0.859    -0.333    20.381     6.053
    13   7 N        2.734    -0.069    22.577     7.057
    14   6 C        3.697    -0.072    22.053     6.717
    15   1 H        0.926     0.107     1.719     2.050
    16   1 H        0.940     0.191     1.145     1.673
    17   1 H        0.926     0.115     1.655     2.012
    18   1 H        0.927     0.112     1.680     2.027
    19   1 H        0.925     0.104     1.750     2.069
    20   1 H        0.925     0.110     1.697     2.037
    21   1 H        0.925     0.093     1.851     2.128
    22   1 H        0.924     0.080     1.978     2.199
    23   1 H        0.925     0.087     1.909     2.160
    24   1 H        0.925     0.125     1.572     1.961
    25   1 H        0.860     0.230     0.966     1.540

Wiberg/Mayer (AO) data.
largest (>0.10) Wiberg bond orders for each atom

     #   Z sym  total        # sym  WBO       # sym  WBO       # sym  WBO
 ---------------------------------------------------------------------------
     1   6 C    3.865 --     2 N    1.478    17 H    0.965    15 H    0.962
                             3 C    0.208     5 C    0.106
     2   7 N    3.738 --     1 C    1.478     3 C    1.224     6 C    0.959
     3   6 C    3.812 --     2 N    1.224     4 N    1.192    18 H    0.955
                             1 C    0.208     5 C    0.158
     4   7 N    3.634 --     5 C    1.340     3 C    1.192    25 H    0.915
     5   6 C    3.914 --     4 N    1.340    13 N    1.191     6 C    1.008
                             3 C    0.158     1 C    0.106
     6   6 C    3.929 --     5 C    1.008     2 N    0.959    16 H    0.921
                             7 C    0.801
     7   6 C    3.951 --     8 O    1.792     9 N    1.215     6 C    0.801
     8   8 O    2.176 --     7 C    1.792     9 N    0.164
     9   7 N    3.559 --     7 C    1.215    11 C    1.046    10 C    0.950
                             8 O    0.164    12 O    0.108
    10   6 C    3.915 --    19 H    0.975    21 H    0.971    20 H    0.967
                             9 N    0.950
    11   6 C    3.952 --    12 O    1.740    13 N    1.058     9 N    1.046
    12   8 O    2.076 --    11 C    1.740    13 N    0.122     9 N    0.108
    13   7 N    3.536 --     5 C    1.191    11 C    1.058    14 C    0.965
                            12 O    0.122
    14   6 C    3.923 --    23 H    0.975    22 H    0.971    24 H    0.965
                            13 N    0.965
    15   1 H    0.988 --     1 C    0.962
    16   1 H    0.963 --     6 C    0.921
    17   1 H    0.987 --     1 C    0.965
    18   1 H    0.987 --     3 C    0.955
    19   1 H    0.989 --    10 C    0.975
    20   1 H    0.987 --    10 C    0.967
    21   1 H    0.991 --    10 C    0.971
    22   1 H    0.992 --    14 C    0.971
    23   1 H    0.991 --    14 C    0.975
    24   1 H    0.984 --    14 C    0.965
    25   1 H    0.947 --     4 N    0.915
 ---------------------------------------------------------------------------

molecular dipole:
                 x           y           z       tot (Debye)
 q only:        1.846      -1.517       0.011
   full:        2.097      -1.828       0.091       7.074

           -------------------------------------------------
          | TOTAL ENERGY              -59.742795589171 Eh   |
          | GRADIENT NORM               0.001769171965 Eh/α |
          | HOMO-LUMO GAP               1.590446552950 eV   |
           -------------------------------------------------

 * finished run on 2024/06/05 at 19:58:12.840
