   * xtb version 6.6.1 (8d0f1dd) compiled by 'conda@1efc2f54142f' on 2023-08-01
          program call               : xtb struc.xyz --opt loose --input .xc1 --gfn2

   ID    Z sym.   atoms
    1    7 N      1, 17
    2    6 C      2-6, 8, 9, 11-16, 18-23, 25, 26, 28-33
    3    8 O      7, 10, 24, 27
    4    1 H      34-72
constraining bond 28 29 to    6.0000000 Å, actual value:    2.8384402 Å

          :  Hamiltonian                  GFN2-xTB          :
 * total energy  :   -97.6194094 Eh     change       -0.4035485E-08 Eh
 * total energy  :   -98.0180347 Eh     change       -0.3986253E+00 Eh
 * total energy  :   -98.2734330 Eh     change       -0.2553983E+00 Eh
 * total energy  :   -98.4618640 Eh     change       -0.1884310E+00 Eh
 * total energy  :   -98.6232121 Eh     change       -0.1613481E+00 Eh
 * total energy  :   -98.7847073 Eh     change       -0.1614952E+00 Eh
 * total energy  :   -98.9321246 Eh     change       -0.1474173E+00 Eh
 * total energy  :   -99.0406023 Eh     change       -0.1084777E+00 Eh
 * total energy  :   -99.1147926 Eh     change       -0.7419027E-01 Eh
 * total energy  :   -99.1702568 Eh     change       -0.5546427E-01 Eh
 * total energy  :   -99.2931765 Eh     change       -0.2952939E-03 Eh
 * total energy  :   -99.2933830 Eh     change       -0.2064888E-03 Eh
 * total energy  :   -99.2935494 Eh     change       -0.1664064E-03 Eh
 * total energy  :   -99.2937168 Eh     change       -0.1673353E-03 Eh
 * total energy  :   -99.2938911 Eh     change       -0.1743256E-03 Eh
 * total energy  :   -99.2940326 Eh     change       -0.1414983E-03 Eh
 * total energy  :   -99.2941281 Eh     change       -0.9553964E-04 Eh
 * total energy  :   -99.2941844 Eh     change       -0.5632171E-04 Eh
 * total energy  :   -99.2942335 Eh     change       -0.4910052E-04 Eh
   *** GEOMETRY OPTIMIZATION CONVERGED AFTER 33 ITERATIONS ***

 final structure:
================
72
 xtb: 6.6.1 (8d0f1dd)
N           -1.99512708565842        2.91195112158672        2.19816935023864
C           -1.96299144073125        2.19855614842037        1.17487781498442
C           -3.12644566098676        1.97619651672394        0.24866852332620
C           -3.55742421502267        0.51859435780788        0.31871639726873
C           -4.50004884074021        0.03009516703320       -0.58823859291725
C           -4.94895337615639       -1.27905747637282       -0.53167080072881
O           -5.86487809232839       -1.82509488358055       -1.35626111296312
C           -6.51390871898499       -1.01129446905332       -2.30496997216176
C           -4.43090941478902       -2.15469164071195        0.46192395249840
O           -4.92296972947675       -3.40799879521431        0.44332225217755
C           -4.51555486916099       -4.32086205605262        1.43612698819730
C           -3.49104838895956       -1.66448896090286        1.35498515893867
C           -3.06440012503586       -0.34463774342193        1.28540739979362
C           -2.60927371523888        2.31062477839134       -1.17500713048190
C           -1.65372434249678        1.25992299605019       -1.76528825230376
C           -0.30493737385955        1.28034913760854       -1.15673796908115
N            0.41432181010215        0.21073356788236       -0.85546201332191
C            1.79707010278505        0.34243571761221       -0.45836215295076
C            2.75207173337215        0.05974292456733       -1.63242084134618
C            4.17686296690755        0.15627851801226       -1.15784382289313
C            4.89230524895218        1.35032251704939       -1.29530468495371
C            6.19702384141563        1.44981424543110       -0.83802901252210
C            6.82248556830892        0.37964483901945       -0.21957662810105
O            8.07049890024530        0.37246612726743        0.25460306252441
C            8.87169683445612        1.52603928374338        0.13885075037724
C            6.10544255122336       -0.89048450336251       -0.03310681297448
O            6.62732670532143       -1.85788151112311        0.53700588839572
C            7.91230024703025       -5.12961444521645        2.34185822917878
C            4.76847250790414       -0.92194550060292       -0.54825276692054
C           -0.10867152022461       -1.12685885180643       -0.99306652142127
C           -4.35984488380970        2.86626394171901        0.58530526885767
C           -4.95643576411450        2.50336141703398        1.94295813200347
C           -4.05486604964032        4.36090724279879        0.53959406694533
H           -4.90213426736192        0.68931907096927       -1.33943913667327
H           -7.04043122864152       -0.18005261120488       -1.82641525936398
H           -7.23643491418499       -1.65840741985738       -2.79833943672501
H           -5.81209311759255       -0.62195386443158       -3.04966011566720
H           -4.77344363012333       -3.96436966116021        2.43781611534272
H           -5.06029776903898       -5.23971121153795        1.22886005971840
H           -3.44021070284364       -4.51793087807633        1.38363451040770
H           -3.09244125023184       -2.30014897976898        2.12882029454761
H           -2.35854208077639        0.00740051018031        2.02161881382514
H           -3.46428739987747        2.40412388955227       -1.84357706888969
H           -2.10511770851805        3.27727114572192       -1.14839364200119
H           -2.10947657233966        0.27317468405897       -1.70054626623920
H           -1.53350413118195        1.50211890086002       -2.82949820662627
H           -1.05192700093096        1.68360152249976        0.81215696343879
H            0.19193496286622        2.23617616980523       -1.07875455521718
H            2.00527754179699       -0.35880205381676        0.35314916729251
H            1.97543386358215        1.35431539730904       -0.08991353482913
H            2.56621519844175        0.78437083929495       -2.42659372689354
H            2.56291488177188       -0.94048458288143       -2.02213491668658
H            4.43360349983704        2.20120362460985       -1.77516320396871
H            6.72322219012567        2.38184559884704       -0.97540056693852
H            8.42495795200819        2.37435850567329        0.66556465801661
H            9.03529090001590        1.79222248428502       -0.90974601999399
H            9.82358584206662        1.27311349330410        0.60150054755744
H            8.85200351639447       -4.65797940526635        2.53167777003351
H            7.12467136440278       -5.07273811984030        3.06236901946216
H            7.74138150736817       -5.62868408376345        1.41202381100713
H            4.24320651647727       -1.85894278322729       -0.43549734209665
H           -0.32082221038546       -1.36113892299273       -2.03760837586552
H           -1.02956727191045       -1.23872985177362       -0.41607005799502
H            0.62303559911762       -1.83767913144356       -0.61972020398479
H           -5.11376086664244        2.65235870948113       -0.18088131779903
H           -4.24367694785636        2.71845253785018        2.73260746202732
H           -5.22546230404366        1.45074375471126        1.98654810209915
H           -5.85284044009102        3.09299034049164        2.11565747935600
H           -3.29159702517283        4.61267215236552        1.26929975339997
H           -3.72910392013201        4.68035807383777       -0.44672346792352
H           -4.95643482667077        4.91512355300140        0.78687427794557
H           -1.14207756336353        3.01518839648459        2.73838831183694

          :  Hamiltonian                  GFN2-xTB          :
         :: total energy             -99.294233549742 Eh    ::
         :: gradient norm              0.002155874227 Eh/a0 ::
         :: HOMO-LUMO gap              0.375411819486 eV    ::
         :: SCC energy              -100.680862106488 Eh    ::
         :: -> dispersion             -0.072391010516 Eh    ::
         :: repulsion energy           1.385449432687 Eh    ::

    * Orbital Energies and Occupations

         #    Occupation            Energy/Eh            Energy/eV
      -------------------------------------------------------------
         1        2.0000           -0.8125302             -22.1101
       ...           ...                  ...                  ...
        78        1.9980           -0.5319464             -14.4750
        79        1.9979           -0.5310310             -14.4501
        80        1.9971           -0.5258033             -14.3078
        81        1.9959           -0.5205706             -14.1654
        82        1.9952           -0.5182227             -14.1016
        83        1.9944           -0.5156278             -14.0309
        84        1.9934           -0.5129882             -13.9591
        85        1.9783           -0.4940033             -13.4425
        86        1.9559           -0.4826196             -13.1327
        87        1.9299           -0.4750824             -12.9277
        88        1.8527           -0.4626770             -12.5901
        89        1.8362           -0.4608528             -12.5404
        90        1.2665           -0.4312288             -11.7343 (HOMO)
        91        0.8388           -0.4174327             -11.3589 (LUMO)
        92        0.3610           -0.3986231             -10.8471
        93        0.0130           -0.3429743              -9.3328
        94        0.0031           -0.3200129              -8.7080
        95        0.0025           -0.3170479              -8.6273
        96        0.0013           -0.3065440              -8.3415
        97        0.0006           -0.2943161              -8.0087
        98        0.0000           -0.1944516              -5.2913
        99        0.0000           -0.1825094              -4.9663
       100                         -0.1387708              -3.7761
       101                         -0.0718494              -1.9551
       ...                                ...                  ...
       171                          0.6068912              16.5143
      -------------------------------------------------------------
                  HL-Gap            0.0137961 Eh            0.3754 eV

     #   Z          covCN         q      C6AA      α(0)
     1   7 N        1.774    -0.265    27.695     7.793
     2   6 C        2.827     0.102    25.740     8.313
     3   6 C        3.907     0.006    20.412     6.422
     4   6 C        2.974     0.002    27.967     8.675
     5   6 C        2.920    -0.080    29.992     8.981
     6   6 C        2.862     0.130    25.143     8.219
     7   8 O        1.706    -0.227    17.769     5.691
     8   6 C        3.644     0.027    20.462     6.502
     9   6 C        2.864     0.130    25.155     8.221
    10   8 O        1.706    -0.225    17.736     5.686
    11   6 C        3.645     0.026    20.474     6.503
    12   6 C        2.913    -0.074    29.839     8.957
    13   6 C        2.921    -0.052    29.302     8.877
    14   6 C        3.812    -0.065    21.741     6.637
    15   6 C        3.802    -0.070    21.836     6.653
    16   6 C        2.845     0.011    27.772     8.637
    17   7 N        2.729     0.018    20.944     6.797
    18   6 C        3.757    -0.018    20.946     6.525
    19   6 C        3.809    -0.071    21.846     6.653
    20   6 C        2.961     0.006    27.894     8.663
    21   6 C        2.921    -0.043    29.074     8.842
    22   6 C        2.905    -0.067    29.660     8.930
    23   6 C        2.858     0.130    25.159     8.221
    24   8 O        1.706    -0.193    17.230     5.604
    25   6 C        3.646     0.022    20.532     6.512
    26   6 C        2.827     0.200    23.741     7.984
    27   8 O        0.858    -0.370    21.096     6.158
    28   6 C        2.780    -0.107    30.674     9.071
    29   6 C        2.917    -0.075    29.882     8.964
    30   6 C        3.701    -0.072    22.041     6.714
    31   6 C        3.853    -0.007    20.675     6.467
    32   6 C        3.756    -0.119    22.827     6.812
    33   6 C        3.755    -0.119    22.842     6.815
    34   1 H        0.926     0.053     2.286     2.364
    35   1 H        0.924     0.055     2.260     2.351
    36   1 H        0.925     0.083     1.953     2.185
    37   1 H        0.924     0.048     2.339     2.392
    38   1 H        0.924     0.057     2.240     2.340
    39   1 H        0.925     0.083     1.952     2.185
    40   1 H        0.924     0.050     2.319     2.381
    41   1 H        0.926     0.054     2.270     2.356
    42   1 H        0.926     0.040     2.451     2.448
    43   1 H        0.925     0.061     2.182     2.310
    44   1 H        0.924     0.055     2.261     2.352
    45   1 H        0.925     0.068     2.107     2.270
    46   1 H        0.923     0.083     1.952     2.185
    47   1 H        0.922     0.007     2.934     2.679
    48   1 H        0.926     0.073     2.053     2.241
    49   1 H        0.924     0.074     2.045     2.236
    50   1 H        0.924     0.067     2.114     2.274
    51   1 H        0.924     0.054     2.266     2.354
    52   1 H        0.925     0.059     2.205     2.322
    53   1 H        0.926     0.045     2.380     2.413
    54   1 H        0.926     0.056     2.250     2.346
    55   1 H        0.924     0.059     2.207     2.323
    56   1 H        0.924     0.062     2.182     2.310
    57   1 H        0.925     0.086     1.917     2.165
    58   1 H        0.927     0.092     1.855     2.130
    59   1 H        0.927     0.087     1.906     2.159
    60   1 H        0.927     0.089     1.884     2.147
    61   1 H        0.926     0.057     2.233     2.337
    62   1 H        0.924     0.079     1.989     2.205
    63   1 H        0.924     0.080     1.984     2.202
    64   1 H        0.925     0.086     1.921     2.167
    65   1 H        0.924     0.038     2.473     2.459
    66   1 H        0.925     0.069     2.098     2.265
    67   1 H        0.925     0.036     2.505     2.475
    68   1 H        0.925     0.052     2.290     2.367
    69   1 H        0.925     0.062     2.172     2.305
    70   1 H        0.925     0.035     2.513     2.479
    71   1 H        0.925     0.056     2.252     2.347
    72   1 H        0.860     0.159     1.341     1.814

Wiberg/Mayer (AO) data.
largest (>0.10) Wiberg bond orders for each atom

     #   Z sym  total        # sym  WBO       # sym  WBO       # sym  WBO
 ---------------------------------------------------------------------------
     1   7 N    3.042 --     2 C    1.959    72 H    0.941
     2   6 C    3.930 --     1 N    1.959     3 C    0.994    47 H    0.898
     3   6 C    3.975 --     2 C    0.994     4 C    0.970    14 C    0.956
                            31 C    0.942
     4   6 C    3.945 --    13 C    1.412     5 C    1.369     3 C    0.970
     5   6 C    3.960 --     6 C    1.399     4 C    1.369    34 H    0.958
     6   6 C    3.902 --     5 C    1.399     9 C    1.218     7 O    1.103
     7   8 O    2.254 --     6 C    1.103     8 C    0.977
     8   6 C    3.931 --     7 O    0.977    36 H    0.976    35 H    0.973
                            37 H    0.973
     9   6 C    3.898 --    12 C    1.389     6 C    1.218    10 O    1.106
    10   8 O    2.254 --     9 C    1.106    11 C    0.976
    11   6 C    3.929 --    39 H    0.977    10 O    0.976    40 H    0.973
                            38 H    0.973
    12   6 C    3.960 --    13 C    1.407     9 C    1.389    41 H    0.963
    13   6 C    3.951 --     4 C    1.412    12 C    1.407    42 H    0.962
    14   6 C    3.974 --    15 C    0.984    44 H    0.972    43 H    0.968
                             3 C    0.956
    15   6 C    3.986 --    16 C    1.060    14 C    0.984    45 H    0.960
                            46 H    0.925
    16   6 C    3.619 --    17 N    1.421    15 C    1.060    48 H    0.956
    17   7 N    3.498 --    16 C    1.421    30 C    0.998    18 C    0.986
    18   6 C    3.952 --    17 N    0.986    50 H    0.968    19 C    0.967
                            49 H    0.962
    19   6 C    3.972 --    20 C    1.002    51 H    0.973    52 H    0.970
                            18 C    0.967
    20   6 C    3.936 --    29 C    1.495    21 C    1.322    19 C    1.002
    21   6 C    3.808 --    22 C    1.418    20 C    1.322    53 H    0.968
    22   6 C    3.942 --    21 C    1.418    23 C    1.388    54 H    0.959
    23   6 C    3.733 --    22 C    1.388    24 O    1.151    26 C    1.050
    24   8 O    2.255 --    23 C    1.151    25 C    0.972
    25   6 C    3.922 --    57 H    0.976    24 O    0.972    55 H    0.970
                            56 H    0.970
    26   6 C    3.883 --    27 O    1.577    29 C    1.164    23 C    1.050
    27   8 O    1.713 --    26 C    1.577
    28   6 C    2.969 --    59 H    0.990    60 H    0.990    58 H    0.989
    29   6 C    3.796 --    20 C    1.495    26 C    1.164    61 H    0.964
    30   6 C    3.956 --    17 N    0.998    64 H    0.977    62 H    0.966
                            63 H    0.963
    31   6 C    3.971 --    33 C    1.009    32 C    1.008    65 H    0.959
                             3 C    0.942
    32   6 C    3.977 --    31 C    1.008    67 H    0.981    68 H    0.981
                            66 H    0.974
    33   6 C    3.981 --    31 C    1.009    70 H    0.982    71 H    0.980
                            69 H    0.975
    34   1 H    0.996 --     5 C    0.958
    35   1 H    0.993 --     8 C    0.973
    36   1 H    0.992 --     8 C    0.976
    37   1 H    0.993 --     8 C    0.973
    38   1 H    0.992 --    11 C    0.973
    39   1 H    0.992 --    11 C    0.977
    40   1 H    0.993 --    11 C    0.973
    41   1 H    0.995 --    12 C    0.963
    42   1 H    0.998 --    13 C    0.962
    43   1 H    0.995 --    14 C    0.968
    44   1 H    0.996 --    14 C    0.972
    45   1 H    0.994 --    15 C    0.960
    46   1 H    0.970 --    15 C    0.925
    47   1 H    0.985 --     2 C    0.898
    48   1 H    0.994 --    16 C    0.956
    49   1 H    0.990 --    18 C    0.962
    50   1 H    0.994 --    18 C    0.968
    51   1 H    0.996 --    19 C    0.973
    52   1 H    0.995 --    19 C    0.970
    53   1 H    0.997 --    21 C    0.968
    54   1 H    0.991 --    22 C    0.959
    55   1 H    0.987 --    25 C    0.970
    56   1 H    0.987 --    25 C    0.970
    57   1 H    0.992 --    25 C    0.976
    58   1 H    0.991 --    28 C    0.989
    59   1 H    0.992 --    28 C    0.990
    60   1 H    0.992 --    28 C    0.990
    61   1 H    0.993 --    29 C    0.964
    62   1 H    0.985 --    30 C    0.966
    63   1 H    0.987 --    30 C    0.963
    64   1 H    0.993 --    30 C    0.977
    65   1 H    0.992 --    31 C    0.959
    66   1 H    0.990 --    32 C    0.974
    67   1 H    0.996 --    32 C    0.981
    68   1 H    0.994 --    32 C    0.981
    69   1 H    0.992 --    33 C    0.975
    70   1 H    0.997 --    33 C    0.982
    71   1 H    0.993 --    33 C    0.980
    72   1 H    0.969 --     1 N    0.941
 ---------------------------------------------------------------------------

molecular dipole:
                 x           y           z       tot (Debye)
 q only:        0.048       0.377      -0.823
   full:        0.377       0.583      -1.068       3.237

           -------------------------------------------------
          | TOTAL ENERGY              -99.294233549742 Eh   |
          | GRADIENT NORM               0.002155874227 Eh/α |
          | HOMO-LUMO GAP               0.375411819486 eV   |
           -------------------------------------------------

 * finished run on 2024/04/06 at 11:14:40.395
