   * xtb version 6.6.1 (8d0f1dd) compiled by 'conda@1efc2f54142f' on 2023-08-01
          program call               : xtb struc.xyz --opt loose --input .xc1 --gfn2

   ID    Z sym.   atoms
    1    6 C      1, 3, 5-7, 10, 11, 14
    2    7 N      2, 4, 9, 13
    3    8 O      8, 12
    4    1 H      15-25
constraining bond 5 22 to    3.7133300 Å, actual value:    2.7765911 Å

          :  Hamiltonian                  GFN2-xTB          :
 * total energy  :   -43.8146268 Eh     change       -0.6650680E-10 Eh
 * total energy  :   -47.0958995 Eh     change       -0.3281273E+01 Eh
 * total energy  :   -52.1567252 Eh     change       -0.5060826E+01 Eh
 * total energy  :   -58.7039832 Eh     change       -0.6547258E+01 Eh
 * total energy  :   -45.2632500 Eh     change        0.1344073E+02 Eh
 * total energy  :   -56.2869667 Eh     change       -0.1102372E+02 Eh
 * total energy  :   -56.6342780 Eh     change       -0.3473112E+00 Eh
 * total energy  :   -58.9755446 Eh     change       -0.2341267E+01 Eh
 * total energy  :   -56.3934948 Eh     change        0.2582050E+01 Eh
 * total energy  :   -59.3639430 Eh     change       -0.2970448E+01 Eh
 * total energy  :   -59.7418284 Eh     change       -0.5314906E-04 Eh
 * total energy  :   -59.7418715 Eh     change       -0.4311390E-04 Eh
 * total energy  :   -59.7419332 Eh     change       -0.6170892E-04 Eh
 * total energy  :   -59.7420075 Eh     change       -0.7428388E-04 Eh
 * total energy  :   -59.7421108 Eh     change       -0.1032440E-03 Eh
 * total energy  :   -59.7421848 Eh     change       -0.7400258E-04 Eh
 * total energy  :   -59.7422241 Eh     change       -0.3937063E-04 Eh
 * total energy  :   -59.7422962 Eh     change       -0.7202194E-04 Eh
 * total energy  :   -59.7423366 Eh     change       -0.4042170E-04 Eh
   *** GEOMETRY OPTIMIZATION CONVERGED AFTER 89 ITERATIONS ***

 final structure:
================
25
 xtb: 6.6.1 (8d0f1dd)
C            2.85917062448350        0.71965674827817       -0.41601884315175
N            1.83174987767195       -0.22896830374881       -0.04220628562594
C            2.12562884649390       -1.40023152051603        0.46610032384139
N            1.17147057813366       -2.28739935961171        0.85118139214392
C           -0.26958556495091       -2.12590221463674        0.63161505625658
C            0.51206017830061        0.15025560364151       -0.26034796782709
C           -0.04311213178349        1.43960092792440       -0.08214883360455
O            0.45661545255440        2.53798737570969       -0.07491816914532
N           -1.45920990255839        1.22610798792154        0.07326310407029
C           -2.38438587542401        2.32980379052098        0.21906916148488
C           -1.81849157029924       -0.04569474224843        0.11480924179136
O           -2.83868769833090       -0.64052568367996        0.23321573924439
N           -0.50800481331373       -0.83679436338404       -0.09525679274609
C           -0.60918446574675       -2.06647757720584       -0.85521540542729
H            3.73871976387316        0.58853904166274        0.21276014076768
H            3.13822383065066        0.58005794166726       -1.46365502786757
H            2.46587776286058        1.73173486936638       -0.29465053350795
H            3.15604859555657       -1.67724279240111        0.60742120879661
H           -1.78502121056629        3.23042160013468        0.34929577506701
H           -3.00154320037473        2.42527389845537       -0.67465800062750
H           -3.02614472351975        2.17061257446385        1.08466426160945
H           -0.54332649060037       -2.26689727238463        0.92358727991637
H            0.15351902894664       -2.24465477425287       -1.60126311842716
H           -1.62095935030950       -2.33256709495426       -1.14538498516147
H            1.45900397235189       -3.15845811912251        1.26991289603219

          :  Hamiltonian                  GFN2-xTB          :
         :: total energy             -59.742336585712 Eh    ::
         :: gradient norm              0.003716855263 Eh/a0 ::
         :: HOMO-LUMO gap              2.444707695434 eV    ::
         :: SCC energy               -42.677239208786 Eh    ::
         :: -> dispersion             -0.023293097005 Eh    ::
         :: repulsion energy           2.249670201486 Eh    ::

    * Orbital Energies and Occupations

         #    Occupation            Energy/Eh            Energy/eV
      -------------------------------------------------------------
         1        2.0000           -0.9298870             -25.3035
       ...           ...                  ...                  ...
        25        2.0000           -0.6767903             -18.4164
        26        2.0000           -0.6744882             -18.3538
        27        2.0000           -0.6671567             -18.1543
        28        2.0000           -0.6564754             -17.8636
        29        2.0000           -0.6408298             -17.4379
        30        1.9999           -0.6373373             -17.3428
        31        1.9999           -0.6322783             -17.2052
        32        1.9998           -0.6148529             -16.7310
        33        1.9996           -0.6053538             -16.4725
        34        1.9992           -0.5950762             -16.1928
        35        1.9959           -0.5685974             -15.4723
        36        1.9917           -0.5571439             -15.1607
        37        1.8774           -0.5136533             -13.9772 (HOMO)
        38        0.0999           -0.4238119             -11.5325 (LUMO)
        39        0.0364           -0.4073254             -11.0839
        40        0.0002           -0.3259670              -8.8700
        41        0.0001           -0.3028366              -8.2406
        42        0.0000           -0.2719809              -7.4010
        43        0.0000           -0.2386368              -6.4936
        44                         -0.1830417              -4.9808
        45                         -0.1694134              -4.6100
        46                         -0.1430263              -3.8919
        47                         -0.1021587              -2.7799
        48                         -0.0698674              -1.9012
       ...                                ...                  ...
        67                         10.6220154             289.0397
      -------------------------------------------------------------
                  HL-Gap            0.0898414 Eh            2.4447 eV

     #   Z          covCN         q      C6AA      α(0)
     1   6 C        3.708    -0.095    22.462     6.774
     2   7 N        2.736     0.060    20.193     6.674
     3   6 C        2.794     0.058    26.682     8.462
     4   7 N        2.690    -0.152    24.287     7.319
     5   6 C        3.721     0.057    19.723     6.343
     6   6 C        2.904    -0.057    29.423     8.894
     7   6 C        2.808     0.251    22.781     7.820
     8   8 O        0.857    -0.380    21.289     6.186
     9   7 N        2.778    -0.079    22.767     7.087
    10   6 C        3.693    -0.059    21.827     6.685
    11   6 C        2.742     0.304    21.845     7.653
    12   8 O        0.856    -0.332    20.371     6.051
    13   7 N        3.656     0.057    20.245     6.683
    14   6 C        3.741    -0.035    21.272     6.580
    15   1 H        0.925     0.097     1.812     2.105
    16   1 H        0.924     0.103     1.757     2.073
    17   1 H        0.924     0.137     1.486     1.907
    18   1 H        0.926     0.111     1.691     2.034
    19   1 H        0.925     0.119     1.625     1.993
    20   1 H        0.924     0.095     1.832     2.117
    21   1 H        0.925     0.094     1.841     2.122
    22   1 H        0.938     0.177     1.222     1.728
    23   1 H        0.925     0.115     1.654     2.011
    24   1 H        0.925     0.134     1.508     1.920
    25   1 H        0.860     0.221     1.004     1.570

Wiberg/Mayer (AO) data.
largest (>0.10) Wiberg bond orders for each atom

     #   Z sym  total        # sym  WBO       # sym  WBO       # sym  WBO
 ---------------------------------------------------------------------------
     1   6 C    3.915 --     2 N    0.974    15 H    0.973    16 H    0.959
                            17 H    0.952
     2   7 N    3.649 --     3 C    1.426     6 C    1.074     1 C    0.974
                             4 N    0.108
     3   6 C    3.838 --     2 N    1.426     4 N    1.226    18 H    0.947
     4   7 N    3.387 --     3 C    1.226     5 C    1.004    25 H    0.924
                             2 N    0.108
     5   6 C    3.859 --     4 N    1.004    22 H    0.953    14 C    0.941
                            13 N    0.869
     6   6 C    3.620 --     7 C    1.214     2 N    1.074    13 N    0.961
                             8 O    0.140
     7   6 C    3.939 --     8 O    1.659     6 C    1.214     9 N    0.954
     8   8 O    2.028 --     7 C    1.659     6 C    0.140
     9   7 N    3.571 --    11 C    1.296    10 C    0.966     7 C    0.954
                            12 O    0.195
    10   6 C    3.917 --    21 H    0.970    19 H    0.967     9 N    0.966
                            20 H    0.966
    11   6 C    3.927 --    12 O    1.756     9 N    1.296    13 N    0.772
    12   8 O    2.142 --    11 C    1.756     9 N    0.195    13 N    0.104
    13   7 N    3.709 --     6 C    0.961    14 C    0.909     5 C    0.869
                            11 C    0.772    12 O    0.104
    14   6 C    3.873 --    23 H    0.966    24 H    0.956     5 C    0.941
                            13 N    0.909
    15   1 H    0.989 --     1 C    0.973
    16   1 H    0.985 --     1 C    0.959
    17   1 H    0.980 --     1 C    0.952
    18   1 H    0.987 --     3 C    0.947
    19   1 H    0.985 --    10 C    0.967
    20   1 H    0.988 --    10 C    0.966
    21   1 H    0.990 --    10 C    0.970
    22   1 H    0.969 --     5 C    0.953
    23   1 H    0.986 --    14 C    0.966
    24   1 H    0.981 --    14 C    0.956
    25   1 H    0.950 --     4 N    0.924
 ---------------------------------------------------------------------------

molecular dipole:
                 x           y           z       tot (Debye)
 q only:        1.536      -2.354       0.075
   full:        1.666      -2.758       0.178       8.203

           -------------------------------------------------
          | TOTAL ENERGY              -59.742336585712 Eh   |
          | GRADIENT NORM               0.003716855263 Eh/α |
          | HOMO-LUMO GAP               2.444707695434 eV   |
           -------------------------------------------------

 * finished run on 2024/06/05 at 20:00:26.931
