   * xtb version 6.6.1 (8d0f1dd) compiled by 'conda@1efc2f54142f' on 2023-08-01
          program call               : xtb xtbopt.xyz --opt crude --input .xc2 --gfn2

   ID    Z sym.   atoms
    1    6 C      1, 3, 5-7, 10, 11, 14
    2    7 N      2, 4, 9, 13
    3    8 O      8, 12
    4    1 H      15-25
########################################################################
[WARNING] Please study the warnings concerning your input carefully
-1- readin_getIntValue: could not parse ''
########################################################################

          :  Hamiltonian                  GFN2-xTB          :
 * total energy  :   -40.4273828 Eh     change       -0.7105427E-14 Eh
 * total energy  :   -42.1307082 Eh     change       -0.1703325E+01 Eh
 * total energy  :   -42.1526721 Eh     change       -0.2196388E-01 Eh
 * total energy  :   -42.1573873 Eh     change       -0.4715288E-02 Eh
 * total energy  :   -42.1581280 Eh     change       -0.7406070E-03 Eh
 * total energy  :   -42.1587034 Eh     change       -0.5754404E-03 Eh
 * total energy  :   -42.1592147 Eh     change       -0.5112989E-03 Eh
 * total energy  :   -42.1595996 Eh     change       -0.3848797E-03 Eh
 * total energy  :   -42.1598163 Eh     change       -0.2167365E-03 Eh
   *** GEOMETRY OPTIMIZATION CONVERGED AFTER 9 ITERATIONS ***

 final structure:
================
25
 xtb: 6.6.1 (8d0f1dd)
C            2.87256942087604        0.73400947749437       -0.40685226706745
N            1.84360703353137       -0.21580588335810       -0.04419878403195
C            2.12705629429406       -1.38862965115009        0.46953947029747
N            1.16583892398255       -2.26022912744136        0.88967249849628
C           -0.19744990632605       -2.10080389388425        0.52654572427477
C            0.52878720382331        0.16240091389751       -0.28326894108826
C           -0.03718631984728        1.45006879897563       -0.12999432799408
O            0.45114053878776        2.55334545683846       -0.15076518932917
N           -1.45006062723307        1.22243983930572        0.05089710118672
C           -2.38064136852865        2.31962799322490        0.20543797298485
C           -1.78443505329014       -0.05600726900020        0.14878971481595
O           -2.79192005755315       -0.65258452593476        0.35425486773133
N           -0.49160274995827       -0.82747550062649       -0.10624851316168
C           -0.57629674299692       -2.04858349699018       -0.90678324922754
H            3.77598107813940        0.54751781870815        0.16848133344171
H            3.09714003326628        0.65658211223019       -1.47230571925902
H            2.50731884540473        1.74331049049097       -0.21041191374985
H            3.15513166723054       -1.66634090666704        0.62717236467142
H           -1.78695554942571        3.22706106709402        0.30891876869367
H           -3.01977368883876        2.39872344878250       -0.67374252410589
H           -2.99922453196546        2.16563808816766        1.08779303287110
H           -0.90992946942023       -2.45901824406360        1.25562226828675
H            0.18694990595093       -2.17883654066545       -1.66300545324804
H           -1.58170978718747       -2.32827991822179       -1.20138735594022
H            1.45609642138366       -3.17989200560709        1.18701073835359

          :  Hamiltonian                  GFN2-xTB          :
         :: total energy             -42.159816312154 Eh    ::
         :: gradient norm              0.007844609379 Eh/a0 ::
         :: HOMO-LUMO gap              2.420243709416 eV    ::
         :: SCC energy               -42.669092511021 Eh    ::
         :: -> dispersion             -0.023301526423 Eh    ::
         :: repulsion energy           0.509085788713 Eh    ::

    * Orbital Energies and Occupations

         #    Occupation            Energy/Eh            Energy/eV
      -------------------------------------------------------------
         1        2.0000           -0.9185987             -24.9963
       ...           ...                  ...                  ...
        25        2.0000           -0.6757365             -18.3877
        26        2.0000           -0.6719680             -18.2852
        27        2.0000           -0.6647671             -18.0892
        28        2.0000           -0.6554734             -17.8363
        29        2.0000           -0.6398016             -17.4099
        30        1.9999           -0.6360743             -17.3085
        31        1.9999           -0.6331585             -17.2291
        32        1.9998           -0.6127474             -16.6737
        33        1.9996           -0.6044470             -16.4478
        34        1.9992           -0.5939204             -16.1614
        35        1.9958           -0.5669155             -15.4266
        36        1.9918           -0.5562070             -15.1352
        37        1.8782           -0.5125570             -13.9474 (HOMO)
        38        0.1061           -0.4236147             -11.5271 (LUMO)
        39        0.0295           -0.4027019             -10.9581
        40        0.0002           -0.3224074              -8.7732
        41        0.0000           -0.2828037              -7.6955
        42        0.0000           -0.2610911              -7.1047
        43        0.0000           -0.2037932              -5.5455
        44                         -0.1806838              -4.9167
        45                         -0.1660216              -4.5177
        46                         -0.1319698              -3.5911
        47                         -0.0875010              -2.3810
        48                         -0.0701838              -1.9098
       ...                                ...                  ...
        67                          0.6058471              16.4859
      -------------------------------------------------------------
                  HL-Gap            0.0889423 Eh            2.4202 eV

     #   Z          covCN         q      C6AA      α(0)
     1   6 C        3.708    -0.094    22.436     6.770
     2   7 N        2.735     0.063    20.141     6.665
     3   6 C        2.801     0.054    26.768     8.476
     4   7 N        2.687    -0.133    23.876     7.257
     5   6 C        3.734     0.096    19.084     6.235
     6   6 C        2.910    -0.056    29.381     8.888
     7   6 C        2.808     0.251    22.782     7.820
     8   8 O        0.857    -0.380    21.291     6.186
     9   7 N        2.780    -0.082    22.828     7.096
    10   6 C        3.693    -0.059    21.818     6.683
    11   6 C        2.745     0.305    21.824     7.649
    12   8 O        0.857    -0.340    20.518     6.073
    13   7 N        3.663     0.062    20.153     6.668
    14   6 C        3.739    -0.033    21.246     6.577
    15   1 H        0.925     0.097     1.814     2.106
    16   1 H        0.924     0.104     1.745     2.066
    17   1 H        0.924     0.135     1.494     1.912
    18   1 H        0.926     0.109     1.705     2.042
    19   1 H        0.925     0.118     1.630     1.997
    20   1 H        0.925     0.094     1.838     2.120
    21   1 H        0.925     0.094     1.844     2.123
    22   1 H        0.926     0.124     1.580     1.966
    23   1 H        0.925     0.115     1.655     2.012
    24   1 H        0.925     0.132     1.521     1.928
    25   1 H        0.860     0.222     1.003     1.569

Wiberg/Mayer (AO) data.
largest (>0.10) Wiberg bond orders for each atom

     #   Z sym  total        # sym  WBO       # sym  WBO       # sym  WBO
 ---------------------------------------------------------------------------
     1   6 C    3.917 --     2 N    0.976    15 H    0.974    16 H    0.958
                            17 H    0.952
     2   7 N    3.651 --     3 C    1.425     6 C    1.082     1 C    0.976
                             4 N    0.102
     3   6 C    3.829 --     2 N    1.425     4 N    1.207    18 H    0.949
     4   7 N    3.384 --     3 C    1.207     5 C    1.028    25 H    0.922
                             2 N    0.102
     5   6 C    3.895 --     4 N    1.028    14 C    0.959    22 H    0.947
                            13 N    0.891
     6   6 C    3.620 --     7 C    1.216     2 N    1.082    13 N    0.949
                             8 O    0.139
     7   6 C    3.939 --     8 O    1.660     6 C    1.216     9 N    0.954
     8   8 O    2.026 --     7 C    1.660     6 C    0.139     9 N    0.100
     9   7 N    3.569 --    11 C    1.291    10 C    0.967     7 C    0.954
                            12 O    0.195     8 O    0.100
    10   6 C    3.918 --    21 H    0.970     9 N    0.967    19 H    0.967
                            20 H    0.966
    11   6 C    3.929 --    12 O    1.745     9 N    1.291    13 N    0.791
    12   8 O    2.128 --    11 C    1.745     9 N    0.195
    13   7 N    3.710 --     6 C    0.949     5 C    0.891    14 C    0.883
                            11 C    0.791
    14   6 C    3.869 --    23 H    0.964     5 C    0.959    24 H    0.958
                            13 N    0.883
    15   1 H    0.990 --     1 C    0.974
    16   1 H    0.985 --     1 C    0.958
    17   1 H    0.980 --     1 C    0.952
    18   1 H    0.987 --     3 C    0.949
    19   1 H    0.985 --    10 C    0.967
    20   1 H    0.988 --    10 C    0.966
    21   1 H    0.990 --    10 C    0.970
    22   1 H    0.984 --     5 C    0.947
    23   1 H    0.986 --    14 C    0.964
    24   1 H    0.981 --    14 C    0.958
    25   1 H    0.949 --     4 N    0.922
 ---------------------------------------------------------------------------

molecular dipole:
                 x           y           z       tot (Debye)
 q only:        1.606      -2.402       0.023
   full:        1.666      -2.824       0.081       8.336

           -------------------------------------------------
          | TOTAL ENERGY              -42.159816312154 Eh   |
          | GRADIENT NORM               0.007844609379 Eh/α |
          | HOMO-LUMO GAP               2.420243709416 eV   |
           -------------------------------------------------

 * finished run on 2024/06/05 at 20:00:27.350
