   * xtb version 6.6.1 (8d0f1dd) compiled by 'conda@1efc2f54142f' on 2023-08-01
          program call               : xtb struc.xyz --opt loose --input .xc1 --gfn2

   ID    Z sym.   atoms
    1    6 C      1, 3, 5-7, 10, 11, 14
    2    7 N      2, 4, 9, 13
    3    8 O      8, 12
    4    1 H      15-25
constraining bond 4 18 to    4.0600000 Å, actual value:    2.1494719 Å

          :  Hamiltonian                  GFN2-xTB          :
 * total energy  :   -35.7304566 Eh     change       -0.6650680E-10 Eh
 * total energy  :   -38.5843725 Eh     change       -0.2853916E+01 Eh
 * total energy  :   -40.6719748 Eh     change       -0.2087602E+01 Eh
 * total energy  :   -41.6647626 Eh     change       -0.9927878E+00 Eh
 * total energy  :   -41.9142457 Eh     change       -0.2494831E+00 Eh
 * total energy  :   -41.9320335 Eh     change       -0.1778780E-01 Eh
 * total energy  :   -41.9409125 Eh     change       -0.8879032E-02 Eh
 * total energy  :   -41.9549346 Eh     change       -0.1402214E-01 Eh
 * total energy  :   -41.9649716 Eh     change       -0.1003701E-01 Eh
 * total energy  :   -41.9719504 Eh     change       -0.6978774E-02 Eh
 * total energy  :   -42.0479126 Eh     change       -0.1124608E-01 Eh
 * total energy  :   -42.0618566 Eh     change       -0.1394403E-01 Eh
 * total energy  :   -42.0695372 Eh     change       -0.7680590E-02 Eh
 * total energy  :   -42.0720253 Eh     change       -0.2488123E-02 Eh
 * total energy  :   -42.0729921 Eh     change       -0.9667852E-03 Eh
 * total energy  :   -42.0733874 Eh     change       -0.3952588E-03 Eh
 * total energy  :   -42.0735271 Eh     change       -0.1397134E-03 Eh
 * total energy  :   -42.0735963 Eh     change       -0.6920054E-04 Eh
 * total energy  :   -42.0736238 Eh     change       -0.2754194E-04 Eh
   *** GEOMETRY OPTIMIZATION CONVERGED AFTER 29 ITERATIONS ***

 final structure:
================
25
 xtb: 6.6.1 (8d0f1dd)
C            3.06125060968469        1.25258174654966        0.03103173561831
N            2.36875825967777       -0.04954981816486       -0.01729555494994
C            3.21671755069247       -1.01820370280763       -0.04536312620889
N            0.69164362647801       -2.60226943083331        0.00071963454539
C            0.24375816445750       -1.40224097800007       -0.00019230936699
C            0.96918567834376       -0.12846341431798       -0.00593659332505
C            0.17368107730796        1.09410743827270       -0.01549923679450
O            0.62264437411870        2.23553695877725       -0.04010292047612
N           -1.20218679104649        0.96611335928870       -0.00010006295683
C           -2.01525232196437        2.16783192925801       -0.00288242742995
C           -1.90637555479874       -0.22174015354137        0.00849221829484
O           -3.11040130200948       -0.24170118768661        0.01581011767251
N           -1.13768087753336       -1.35978668405744        0.00633555051858
C           -1.83360197415242       -2.62920209211533        0.00637922659754
H            3.50931005105355        1.38990718172462        1.01608753085625
H            3.83647295271288        1.29078564781452       -0.73349160802514
H            2.35889356436999        2.07201043268287       -0.14459791517333
H            4.30931278264381       -0.78563628115817       -0.04926763168821
H           -1.36307385458403        3.03807988665601        0.00532024595877
H           -2.65132904615782        2.17817757884529       -0.88987996525084
H           -2.66615541634346        2.16992461672917        0.87312781530662
H           -1.55200801589844       -3.20924489031486        0.88638504609458
H           -1.55759453974993       -3.20550412162480       -0.87802779734853
H           -2.90447112210508       -2.43220374610809        0.01022833318251
H            1.69893363890257       -2.75107173426828       -0.00610868775156

          :  Hamiltonian                  GFN2-xTB          :
         :: total energy             -42.073623829969 Eh    ::
         :: gradient norm              0.002426563011 Eh/a0 ::
         :: HOMO-LUMO gap              0.379140075944 eV    ::
         :: SCC energy               -42.569892836113 Eh    ::
         :: -> dispersion             -0.022241926629 Eh    ::
         :: repulsion energy           0.495917841895 Eh    ::

    * Orbital Energies and Occupations

         #    Occupation            Energy/Eh            Energy/eV
      -------------------------------------------------------------
         1        2.0000           -0.8954723             -24.3670
       ...           ...                  ...                  ...
        25        1.9997           -0.6768906             -18.4191
        26        1.9989           -0.6568685             -17.8743
        27        1.9983           -0.6503384             -17.6966
        28        1.9977           -0.6452516             -17.5582
        29        1.9949           -0.6329763             -17.2242
        30        1.9911           -0.6241256             -16.9833
        31        1.9888           -0.6204503             -16.8833
        32        1.9473           -0.5955810             -16.2066
        33        1.9146           -0.5876822             -15.9916
        34        1.8868           -0.5829790             -15.8637
        35        1.8342           -0.5764946             -15.6872
        36        1.8143           -0.5745210             -15.6335
        37        1.5065           -0.5561043             -15.1324 (HOMO)
        38        1.1175           -0.5421712             -14.7532 (LUMO)
        39        0.0097           -0.4540984             -12.3566
        40        0.0005           -0.4073609             -11.0849
        41        0.0001           -0.3859676             -10.5027
        42        0.0000           -0.3027261              -8.2376
        43                         -0.2281413              -6.2080
        44                         -0.1759230              -4.7871
        45                         -0.1493288              -4.0634
        46                         -0.1168500              -3.1797
        47                         -0.0698956              -1.9020
        48                         -0.0513878              -1.3983
       ...                                ...                  ...
        67                          0.5073854              13.8067
      -------------------------------------------------------------
                  HL-Gap            0.0139331 Eh            0.3791 eV

     #   Z          covCN         q      C6AA      α(0)
     1   6 C        3.752    -0.101    22.484     6.762
     2   7 N        2.728     0.135    18.950     6.465
     3   6 C        1.913    -0.064    32.853     9.257
     4   7 N        1.809    -0.245    27.228     7.731
     5   6 C        2.826     0.160    24.529     8.115
     6   6 C        2.892    -0.020    28.509     8.754
     7   6 C        2.767     0.265    22.526     7.773
     8   8 O        0.861    -0.359    20.868     6.125
     9   7 N        2.744    -0.060    22.393     7.028
    10   6 C        3.709    -0.063    21.850     6.681
    11   6 C        2.723     0.320    21.566     7.602
    12   8 O        0.860    -0.332    20.375     6.052
    13   7 N        2.776    -0.030    21.823     6.938
    14   6 C        3.711    -0.076    22.091     6.717
    15   1 H        0.924     0.112     1.679     2.026
    16   1 H        0.925     0.110     1.696     2.037
    17   1 H        0.924     0.173     1.246     1.745
    18   1 H        0.920     0.137     1.481     1.903
    19   1 H        0.925     0.125     1.573     1.962
    20   1 H        0.924     0.118     1.633     1.998
    21   1 H        0.924     0.118     1.631     1.997
    22   1 H        0.924     0.121     1.602     1.979
    23   1 H        0.924     0.121     1.604     1.980
    24   1 H        0.925     0.129     1.542     1.942
    25   1 H        0.860     0.204     1.084     1.631

Wiberg/Mayer (AO) data.
largest (>0.10) Wiberg bond orders for each atom

     #   Z sym  total        # sym  WBO       # sym  WBO       # sym  WBO
 ---------------------------------------------------------------------------
     1   6 C    3.788 --    16 H    0.959    15 H    0.957     2 N    0.923
                            17 H    0.874
     2   7 N    3.727 --     3 C    1.624     6 C    1.133     1 C    0.923
     3   6 C    2.800 --     2 N    1.624    18 H    0.906
     4   7 N    2.751 --     5 C    1.620    25 H    0.898
     5   6 C    3.956 --     4 N    1.620    13 N    1.127     6 C    1.109
     6   6 C    3.597 --     2 N    1.133     7 C    1.120     5 C    1.109
     7   6 C    3.937 --     8 O    1.581     9 N    1.129     6 C    1.120
     8   8 O    1.922 --     7 C    1.581     9 N    0.111
     9   7 N    3.482 --     7 C    1.129    11 C    1.090    10 C    0.980
                             8 O    0.111    12 O    0.105
    10   6 C    3.861 --     9 N    0.980    19 H    0.956    21 H    0.941
                            20 H    0.940
    11   6 C    3.957 --    12 O    1.668    13 N    1.115     9 N    1.090
    12   8 O    1.969 --    11 C    1.668    13 N    0.111     9 N    0.105
    13   7 N    3.486 --     5 C    1.127    11 C    1.115    14 C    0.983
                            12 O    0.111
    14   6 C    3.861 --    13 N    0.983    24 H    0.954    23 H    0.938
                            22 H    0.938
    15   1 H    0.982 --     1 C    0.957
    16   1 H    0.981 --     1 C    0.959
    17   1 H    0.939 --     1 C    0.874
    18   1 H    0.935 --     3 C    0.906
    19   1 H    0.976 --    10 C    0.956
    20   1 H    0.958 --    10 C    0.940
    21   1 H    0.959 --    10 C    0.941
    22   1 H    0.956 --    14 C    0.938
    23   1 H    0.956 --    14 C    0.938
    24   1 H    0.974 --    14 C    0.954
    25   1 H    0.948 --     4 N    0.898
 ---------------------------------------------------------------------------

molecular dipole:
                 x           y           z       tot (Debye)
 q only:        1.675      -0.608       0.012
   full:        2.158      -0.355       0.023       5.559

           -------------------------------------------------
          | TOTAL ENERGY              -42.073623829969 Eh   |
          | GRADIENT NORM               0.002426563011 Eh/α |
          | HOMO-LUMO GAP               0.379140075944 eV   |
           -------------------------------------------------

 * finished run on 2024/06/05 at 20:00:08.993
