   * xtb version 6.6.1 (8d0f1dd) compiled by 'conda@1efc2f54142f' on 2023-08-01
          program call               : xtb struc.xyz --opt loose --input .xc1 --gfn2

   ID    Z sym.   atoms
    1    6 C      1, 3, 5-7, 10, 11, 14
    2    7 N      2, 4, 9, 13
    3    8 O      8, 12
    4    1 H      15-25
constraining bond 13 25 to    5.0600000 Å, actual value:    2.8316178 Å

          :  Hamiltonian                  GFN2-xTB          :
 * total energy  :   -33.3814649 Eh     change       -0.6650680E-10 Eh
 * total energy  :   -37.0500507 Eh     change       -0.3668586E+01 Eh
 * total energy  :   -39.5987275 Eh     change       -0.2548677E+01 Eh
 * total energy  :   -41.0552180 Eh     change       -0.1456491E+01 Eh
 * total energy  :   -41.6983172 Eh     change       -0.6430992E+00 Eh
 * total energy  :   -41.8432519 Eh     change       -0.1449347E+00 Eh
 * total energy  :   -41.8708369 Eh     change       -0.2758499E-01 Eh
 * total energy  :   -41.9166471 Eh     change       -0.4581021E-01 Eh
 * total energy  :   -41.9664754 Eh     change       -0.4982823E-01 Eh
 * total energy  :   -42.0016751 Eh     change       -0.3519975E-01 Eh
 * total energy  :   -42.1315502 Eh     change       -0.6017934E-04 Eh
 * total energy  :   -42.1316043 Eh     change       -0.5412820E-04 Eh
 * total energy  :   -42.1316666 Eh     change       -0.6227390E-04 Eh
 * total energy  :   -42.1317573 Eh     change       -0.9069771E-04 Eh
 * total energy  :   -42.1318137 Eh     change       -0.5644958E-04 Eh
 * total energy  :   -42.1318835 Eh     change       -0.6976019E-04 Eh
 * total energy  :   -42.1319306 Eh     change       -0.4716873E-04 Eh
 * total energy  :   -42.1319964 Eh     change       -0.6575672E-04 Eh
 * total energy  :   -42.1320335 Eh     change       -0.3712041E-04 Eh
   *** GEOMETRY OPTIMIZATION CONVERGED AFTER 34 ITERATIONS ***

 final structure:
================
25
 xtb: 6.6.1 (8d0f1dd)
C            3.18447213750381        1.20122725000728        0.01955369951067
N            2.20081115839129        0.15638202607758        0.00641681655838
C            2.42332580737127       -1.17939366650138        0.00692144555767
N            1.31720921809406       -1.88647490811248        0.00448036380343
C            0.31126354408512       -0.98603356764549        0.00317871075105
C            0.84851862086563        0.31251104359878        0.00469884366839
C            0.01125098216842        1.48695545909835       -0.00369900663894
O            0.39920567501476        2.63359688764442       -0.01125471408889
N           -1.34248248590437        1.15026935940939       -0.00403913849402
C           -2.30128076669626        2.24114518554055       -0.00788285688313
C           -1.89598081542442       -0.12597247172431       -0.00076123056741
O           -3.08732611358150       -0.29114996254852        0.00006092370900
N           -1.01450266460358       -1.21354386768184        0.00086782678696
C           -1.54147278928015       -2.55577782461489       -0.00050660004718
H            3.73697300580358        1.18843072179753        0.96153115419615
H            3.89211363253993        1.06264272700491       -0.79910352900633
H            2.68441313250385        2.16384685232938       -0.08715647235109
H            3.40623673565515       -1.60931733152674        0.00858793356466
H           -1.74983064976073        3.17984693993256       -0.00332082504803
H           -2.93543004173291        2.17939513943162       -0.89394883568800
H           -2.94561871023229        2.17580167902643        0.87044820591668
H           -1.17713765329185       -3.09619912327009        0.87420996338003
H           -1.20573856481677       -3.08407905900363       -0.89423012224377
H           -2.62851447662277       -2.50023869362751        0.01621733018427
H            2.56995359605074       -4.78563225304084       -0.04009826863086

          :  Hamiltonian                  GFN2-xTB          :
         :: total energy             -42.132033526135 Eh    ::
         :: gradient norm              0.002530152147 Eh/a0 ::
         :: HOMO-LUMO gap              0.693259170295 eV    ::
         :: SCC energy               -42.643484931444 Eh    ::
         :: -> dispersion             -0.022373637769 Eh    ::
         :: repulsion energy           0.511359157465 Eh    ::

    * Orbital Energies and Occupations

         #    Occupation            Energy/Eh            Energy/eV
      -------------------------------------------------------------
         1        2.0000           -0.8920225             -24.2732
       ...           ...                  ...                  ...
        25        1.9996           -0.6665788             -18.1385
        26        1.9991           -0.6562218             -17.8567
        27        1.9983           -0.6451059             -17.5542
        28        1.9976           -0.6400311             -17.4161
        29        1.9944           -0.6265243             -17.0486
        30        1.9891           -0.6159001             -16.7595
        31        1.9869           -0.6130922             -16.6831
        32        1.9779           -0.6046844             -16.4543
        33        1.9646           -0.5971341             -16.2488
        34        1.9152           -0.5828792             -15.8609
        35        1.8841           -0.5776839             -15.7196
        36        1.8750           -0.5764061             -15.6848
        37        1.5706           -0.5540625             -15.0768 (HOMO)
        38        0.8452           -0.5285857             -14.3835 (LUMO)
        39        0.0030           -0.4305160             -11.7149
        40        0.0002           -0.3888532             -10.5812
        41        0.0001           -0.3728335             -10.1453
        42        0.0000           -0.2943041              -8.0084
        43                         -0.2054437              -5.5904
        44                         -0.1574026              -4.2831
        45                         -0.1366710              -3.7190
        46                         -0.0784389              -2.1344
        47                         -0.0579869              -1.5779
        48                         -0.0381524              -1.0382
       ...                                ...                  ...
        67                          0.5357924              14.5797
      -------------------------------------------------------------
                  HL-Gap            0.0254768 Eh            0.6933 eV

     #   Z          covCN         q      C6AA      α(0)
     1   6 C        3.689    -0.082    22.270     6.754
     2   7 N        2.829     0.051    20.344     6.699
     3   6 C        3.187     0.097    25.412     8.225
     4   7 N        1.898    -0.208    26.350     7.610
     5   6 C        3.167     0.134    24.758     8.131
     6   6 C        3.120    -0.007    28.016     8.669
     7   6 C        2.764     0.274    22.374     7.746
     8   8 O        0.858    -0.332    20.360     6.050
     9   7 N        2.746    -0.069    22.578     7.057
    10   6 C        3.708    -0.062    21.845     6.681
    11   6 C        2.727     0.317    21.614     7.611
    12   8 O        0.860    -0.330    20.323     6.044
    13   7 N        2.739    -0.018    21.592     6.901
    14   6 C        3.700    -0.073    22.057     6.716
    15   1 H        0.924     0.109     1.706     2.042
    16   1 H        0.924     0.107     1.721     2.051
    17   1 H        0.925     0.126     1.565     1.956
    18   1 H        0.926     0.107     1.718     2.050
    19   1 H        0.925     0.123     1.591     1.973
    20   1 H        0.924     0.115     1.654     2.011
    21   1 H        0.924     0.115     1.653     2.011
    22   1 H        0.924     0.113     1.671     2.022
    23   1 H        0.924     0.113     1.671     2.022
    24   1 H        0.925     0.127     1.555     1.950
    25   1 H        0.000     0.151     3.450     3.396

Wiberg/Mayer (AO) data.
largest (>0.10) Wiberg bond orders for each atom

     #   Z sym  total        # sym  WBO       # sym  WBO       # sym  WBO
 ---------------------------------------------------------------------------
     1   6 C    3.904 --     2 N    0.995    17 H    0.960    16 H    0.955
                            15 H    0.949
     2   7 N    3.636 --     3 C    1.267     6 C    1.218     1 C    0.995
     3   6 C    3.869 --     4 N    1.489     2 N    1.267    18 H    0.955
     4   7 N    2.963 --     3 C    1.489     5 C    1.267
     5   6 C    3.900 --     4 N    1.267     6 C    1.253    13 N    1.209
     6   6 C    3.796 --     5 C    1.253     2 N    1.218     7 C    1.076
     7   6 C    3.946 --     8 O    1.672     9 N    1.101     6 C    1.076
     8   8 O    1.960 --     7 C    1.672     9 N    0.127
     9   7 N    3.501 --    11 C    1.105     7 C    1.101    10 C    0.979
                             8 O    0.127    12 O    0.117
    10   6 C    3.868 --     9 N    0.979    19 H    0.959    21 H    0.944
                            20 H    0.943
    11   6 C    3.951 --    12 O    1.686     9 N    1.105    13 N    1.068
    12   8 O    1.975 --    11 C    1.686     9 N    0.117    13 N    0.101
    13   7 N    3.483 --     5 C    1.209    11 C    1.068    14 C    0.984
                            12 O    0.101
    14   6 C    3.885 --    13 N    0.984    24 H    0.962    22 H    0.947
                            23 H    0.946
    15   1 H    0.975 --     1 C    0.949
    16   1 H    0.977 --     1 C    0.955
    17   1 H    0.978 --     1 C    0.960
    18   1 H    0.986 --     3 C    0.955
    19   1 H    0.978 --    10 C    0.959
    20   1 H    0.961 --    10 C    0.943
    21   1 H    0.961 --    10 C    0.944
    22   1 H    0.964 --    14 C    0.947
    23   1 H    0.963 --    14 C    0.946
    24   1 H    0.980 --    14 C    0.962
    25   1 H    0.004
 ---------------------------------------------------------------------------

molecular dipole:
                 x           y           z       tot (Debye)
 q only:        1.744      -1.652       0.003
   full:        2.015      -1.528       0.007       6.428

           -------------------------------------------------
          | TOTAL ENERGY              -42.132033526135 Eh   |
          | GRADIENT NORM               0.002530152147 Eh/α |
          | HOMO-LUMO GAP               0.693259170295 eV   |
           -------------------------------------------------

 * finished run on 2024/06/05 at 19:58:07.274
