   * xtb version 6.6.1 (8d0f1dd) compiled by 'conda@1efc2f54142f' on 2023-08-01
          program call               : xtb xtbopt.xyz --opt crude --input .xc2 --gfn2

   ID    Z sym.   atoms
    1    6 C      1, 3, 5-7, 10, 11, 14
    2    7 N      2, 4, 9, 13
    3    8 O      8, 12
    4    1 H      15-25
########################################################################
[WARNING] Please study the warnings concerning your input carefully
-1- readin_getIntValue: could not parse ''
########################################################################

          :  Hamiltonian                  GFN2-xTB          :
 * total energy  :   -42.1680909 Eh     change       -0.1421085E-12 Eh
   *** GEOMETRY OPTIMIZATION CONVERGED AFTER 1 ITERATIONS ***

 final structure:
================
25
 xtb: 6.6.1 (8d0f1dd)
C            3.68886877376525        1.41680907823093        0.05700143569007
N            2.59549108505740        0.48646469714197        0.03946416509510
C            2.67489633179364       -0.87318278520628        0.02392578620220
N            1.50516169936209       -1.47088388736905        0.02697056379745
C            0.61183927116391       -0.45832417396498        0.04581970924236
C            1.27539674107940        0.76711972606039        0.05434274834372
C            0.29704023230529        1.85462959152916        0.05248703851078
O            0.38266789921562        3.03994603454129        0.06668771195736
N           -0.96399220754881        1.13745961599598        0.02601190980728
C           -2.23428610356808        1.82541045287337        0.02747386829597
C           -0.81421482424613       -0.20526827550355        0.03008971646146
O           -1.79584251070352       -0.99528692423089        0.01768940376013
N           -2.42460561975824       -3.37054042160836       -0.50143359235361
C           -1.57354868960694       -2.63876793727880        0.23534597054557
H            4.17305053738187        1.41201579692626        1.03585572656993
H            4.42727530222414        1.14021875527104       -0.69550249016733
H            3.31501755642749        2.41849252011940       -0.14777300719944
H            3.60631750564350       -1.40345413072265        0.00821928766319
H           -2.03141324781346        2.89425536555057       -0.00939870604659
H           -2.82331264665984        1.53279597325549       -0.84134633908399
H           -2.79276597042313        1.59035351965470        0.93370320131178
H           -1.77335844734136       -2.67035793735075        1.30612844551048
H           -2.24192897345199       -3.48153039615541       -1.48799554762301
H           -3.40263776701439       -3.36940878738077       -0.25708194471452
H           -0.52068441318557       -2.76072692878122       -0.01551344367736

          :  Hamiltonian                  GFN2-xTB          :
         :: total energy             -42.168090909743 Eh    ::
         :: gradient norm              0.007960335273 Eh/a0 ::
         :: HOMO-LUMO gap              2.021817187605 eV    ::
         :: SCC energy               -42.690775905845 Eh    ::
         :: -> dispersion             -0.020887754513 Eh    ::
         :: repulsion energy           0.522635329885 Eh    ::

    * Orbital Energies and Occupations

         #    Occupation            Energy/Eh            Energy/eV
      -------------------------------------------------------------
         1        2.0000           -0.9106654             -24.7805
       ...           ...                  ...                  ...
        25        2.0000           -0.6555345             -17.8380
        26        2.0000           -0.6524130             -17.7531
        27        2.0000           -0.6478630             -17.6292
        28        2.0000           -0.6357936             -17.3008
        29        2.0000           -0.6276496             -17.0792
        30        2.0000           -0.6166365             -16.7795
        31        2.0000           -0.6154590             -16.7475
        32        1.9999           -0.5918355             -16.1047
        33        1.9999           -0.5912669             -16.0892
        34        1.9999           -0.5886792             -16.0188
        35        1.9969           -0.5647072             -15.3665
        36        1.9929           -0.5580379             -15.1850
        37        1.9864           -0.5528454             -15.0437 (HOMO)
        38        0.0242           -0.4785450             -13.0219 (LUMO)
        39        0.0000           -0.3879368             -10.5563
        40                         -0.3377806              -9.1915
        41                         -0.3239672              -8.8156
        42                         -0.3001198              -8.1667
        43                         -0.1934682              -5.2645
        44                         -0.1505165              -4.0958
        45                         -0.1099491              -2.9919
        46                         -0.0999799              -2.7206
        47                         -0.0434931              -1.1835
        48                         -0.0169786              -0.4620
       ...                                ...                  ...
        67                          0.5997631              16.3204
      -------------------------------------------------------------
                  HL-Gap            0.0743004 Eh            2.0218 eV

     #   Z          covCN         q      C6AA      α(0)
     1   6 C        3.689    -0.078    22.182     6.741
     2   7 N        2.832     0.057    20.251     6.684
     3   6 C        3.234     0.090    25.196     8.146
     4   7 N        1.890    -0.213    26.479     7.629
     5   6 C        3.318     0.022    25.442     8.034
     6   6 C        3.205    -0.009    27.629     8.561
     7   6 C        2.816     0.283    22.206     7.721
     8   8 O        0.856    -0.270    19.243     5.881
     9   7 N        2.811    -0.066    22.513     7.047
    10   6 C        3.689    -0.064    21.931     6.702
    11   6 C        2.838     0.258    22.670     7.803
    12   8 O        1.569    -0.245    18.127     5.745
    13   7 N        2.631    -0.218    25.774     7.540
    14   6 C        3.473     0.097    20.885     6.848
    15   1 H        0.924     0.103     1.757     2.073
    16   1 H        0.925     0.101     1.772     2.082
    17   1 H        0.925     0.105     1.739     2.062
    18   1 H        0.926     0.099     1.791     2.093
    19   1 H        0.925     0.113     1.673     2.023
    20   1 H        0.925     0.093     1.850     2.127
    21   1 H        0.925     0.093     1.855     2.130
    22   1 H        0.925     0.115     1.655     2.012
    23   1 H        0.860     0.204     1.084     1.631
    24   1 H        0.860     0.209     1.062     1.615
    25   1 H        0.925     0.121     1.603     1.980

Wiberg/Mayer (AO) data.
largest (>0.10) Wiberg bond orders for each atom

     #   Z sym  total        # sym  WBO       # sym  WBO       # sym  WBO
 ---------------------------------------------------------------------------
     1   6 C    3.936 --     2 N    0.995    17 H    0.974    16 H    0.964
                            15 H    0.955
     2   7 N    3.707 --     3 C    1.264     6 C    1.256     1 C    0.995
     3   6 C    3.944 --     4 N    1.518     2 N    1.264    18 H    0.957
     4   7 N    3.039 --     3 C    1.518     5 C    1.304
     5   6 C    3.963 --     6 C    1.354     4 N    1.304    11 C    1.063
     6   6 C    3.952 --     5 C    1.354     2 N    1.256     7 C    1.026
     7   6 C    3.939 --     8 O    1.843     6 C    1.026     9 N    0.976
     8   8 O    2.166 --     7 C    1.843
     9   7 N    3.580 --    11 C    1.279    10 C    0.979     7 C    0.976
                            12 O    0.104
    10   6 C    3.928 --     9 N    0.979    19 H    0.970    20 H    0.967
                            21 H    0.966
    11   6 C    3.926 --    12 O    1.420     9 N    1.279     5 C    1.063
    12   8 O    2.384 --    11 C    1.420    14 C    0.601     9 N    0.104
                            13 N    0.103
    13   7 N    3.340 --    14 C    1.336    23 H    0.940    24 H    0.938
                            12 O    0.103
    14   6 C    3.883 --    13 N    1.336    25 H    0.954    22 H    0.953
                            12 O    0.601
    15   1 H    0.986 --     1 C    0.955
    16   1 H    0.988 --     1 C    0.964
    17   1 H    0.989 --     1 C    0.974
    18   1 H    0.989 --     3 C    0.957
    19   1 H    0.987 --    10 C    0.970
    20   1 H    0.989 --    10 C    0.967
    21   1 H    0.989 --    10 C    0.966
    22   1 H    0.985 --    14 C    0.953
    23   1 H    0.958 --    13 N    0.940
    24   1 H    0.956 --    13 N    0.938
    25   1 H    0.985 --    14 C    0.954
 ---------------------------------------------------------------------------

molecular dipole:
                 x           y           z       tot (Debye)
 q only:       -0.038      -1.402      -0.108
   full:        0.039      -1.029      -0.182       2.657

           -------------------------------------------------
          | TOTAL ENERGY              -42.168090909743 Eh   |
          | GRADIENT NORM               0.007960335273 Eh/α |
          | HOMO-LUMO GAP               2.021817187605 eV   |
           -------------------------------------------------

 * finished run on 2024/06/05 at 19:58:03.686
