   * xtb version 6.6.1 (8d0f1dd) compiled by 'conda@1efc2f54142f' on 2023-08-01
          program call               : xtb struc.xyz --opt loose --input .xc1 --gfn2

   ID    Z sym.   atoms
    1    6 C      1, 3, 5-7, 10, 11, 14
    2    7 N      2, 4, 9, 13
    3    8 O      8, 12
    4    1 H      15-25
constraining bond 9 11 to    3.9200000 Å, actual value:    1.3842352 Å

          :  Hamiltonian                  GFN2-xTB          :
 * total energy  :   -30.7788948 Eh     change       -0.2401990E-09 Eh
 * total energy  :   -34.9119325 Eh     change       -0.4133038E+01 Eh
 * total energy  :   -38.3889276 Eh     change       -0.3476995E+01 Eh
 * total energy  :   -40.5989830 Eh     change       -0.2210055E+01 Eh
 * total energy  :   -41.5856295 Eh     change       -0.9866466E+00 Eh
 * total energy  :   -41.7710853 Eh     change       -0.1854558E+00 Eh
 * total energy  :   -41.7882420 Eh     change       -0.1715672E-01 Eh
 * total energy  :   -41.8121732 Eh     change       -0.2393115E-01 Eh
 * total energy  :   -41.8518451 Eh     change       -0.3967187E-01 Eh
 * total energy  :   -41.8673887 Eh     change       -0.1554361E-01 Eh
 * total energy  :   -42.2165738 Eh     change       -0.4156255E-03 Eh
 * total energy  :   -42.2170100 Eh     change       -0.4361622E-03 Eh
 * total energy  :   -42.2172871 Eh     change       -0.2771492E-03 Eh
 * total energy  :   -42.2177587 Eh     change       -0.4715519E-03 Eh
 * total energy  :   -42.2181022 Eh     change       -0.3435542E-03 Eh
 * total energy  :   -42.2182083 Eh     change       -0.1060180E-03 Eh
 * total energy  :   -42.2183026 Eh     change       -0.9434581E-04 Eh
 * total energy  :   -42.2183728 Eh     change       -0.7013905E-04 Eh
 * total energy  :   -42.2184111 Eh     change       -0.3838261E-04 Eh
   *** GEOMETRY OPTIMIZATION CONVERGED AFTER 99 ITERATIONS ***

 final structure:
================
25
 xtb: 6.6.1 (8d0f1dd)
C            2.63329919640207        1.35268778439912        0.31359774799851
N            1.89257784873545        0.13309364938191        0.17457885299931
C            2.39128764654682       -1.10672609991776        0.14114434943013
N            1.38092975591897       -1.99637007460531       -0.02243066431054
C            0.20793517593942       -1.30366081083961       -0.09789351154034
C            0.52586985132319        0.05190180890924        0.02691999686550
C           -0.47720869099873        1.07479336476647        0.02781999798423
O           -1.75841213387075        0.41774590846594       -0.15575833175873
N           -0.16228369019395        2.33427831535491        0.17645620194577
C           -1.10922316901048        3.38929489785182        0.20566462067731
C           -2.13296485389984       -0.98379282086891       -0.31371590933425
O           -3.26497168527105       -1.27319852872697       -0.46268051504192
N           -1.03887198471664       -1.83118013315459       -0.26243611613471
C           -1.25273982329070       -3.26079744827670       -0.37243690290499
H            2.17237547532333        1.97333499267133        1.08159636345460
H            3.66397291114434        1.12932392760874        0.57882110745259
H            2.61040546317666        1.91410971482406       -0.62189712147355
H            3.42548518130377       -1.36718730891002        0.23200995724975
H           -0.55997296381195        4.32874130277626        0.14332363321378
H           -1.82755186011688        3.32437317857608       -0.61784344032268
H           -1.67768628068729        3.37338846488645        1.14141956658055
H           -0.91253914309086       -3.77074806733802        0.52915897296827
H           -0.73694557396799       -3.66058055133772       -1.24651930160408
H           -2.32292057933404       -3.42675203130722       -0.48895435013362
H            1.49058544054095       -2.99783489357940       -0.07877358636416

          :  Hamiltonian                  GFN2-xTB          :
         :: total energy             -42.218411136541 Eh    ::
         :: gradient norm              0.002112789063 Eh/a0 ::
         :: HOMO-LUMO gap              2.914447097282 eV    ::
         :: SCC energy               -42.724484683180 Eh    ::
         :: -> dispersion             -0.021719694178 Eh    ::
         :: repulsion energy           0.504400908164 Eh    ::

    * Orbital Energies and Occupations

         #    Occupation            Energy/Eh            Energy/eV
      -------------------------------------------------------------
         1        2.0000           -0.9031171             -24.5751
       ...           ...                  ...                  ...
        25        1.9993           -0.6650750             -18.0976
        26        1.9990           -0.6566514             -17.8684
        27        1.9982           -0.6420717             -17.4717
        28        1.9977           -0.6370131             -17.3340
        29        1.9967           -0.6277480             -17.0819
        30        1.9962           -0.6244218             -16.9914
        31        1.9954           -0.6199160             -16.8688
        32        1.9937           -0.6123469             -16.6628
        33        1.9909           -0.6037723             -16.4295
        34        1.9835           -0.5894882             -16.0408
        35        1.9674           -0.5731412             -15.5960
        36        1.8619           -0.5375521             -14.6275
        37        1.8505           -0.5355266             -14.5724 (HOMO)
        38        0.2397           -0.4284226             -11.6580 (LUMO)
        39        0.1063           -0.4073704             -11.0851
        40        0.0243           -0.3713413             -10.1047
        41        0.0012           -0.2996562              -8.1541
        42        0.0002           -0.2505001              -6.8165
        43        0.0000           -0.1911178              -5.2006
        44        0.0000           -0.1763231              -4.7980
        45        0.0000           -0.1455215              -3.9598
        46                         -0.0764829              -2.0812
        47                         -0.0684935              -1.8638
        48                         -0.0430234              -1.1707
       ...                                ...                  ...
        67                          0.5818214              15.8322
      -------------------------------------------------------------
                  HL-Gap            0.1071040 Eh            2.9144 eV

     #   Z          covCN         q      C6AA      α(0)
     1   6 C        3.692    -0.093    22.463     6.782
     2   7 N        2.826     0.067    20.074     6.654
     3   6 C        3.031     0.040    27.066     8.533
     4   7 N        2.786    -0.065    22.496     7.044
     5   6 C        3.027     0.112    25.514     8.285
     6   6 C        3.091     0.003    27.849     8.650
     7   6 C        2.756     0.212    23.503     7.939
     8   8 O        1.691    -0.307    19.114     5.903
     9   7 N        1.826    -0.188    25.893     7.540
    10   6 C        3.696    -0.036    21.395     6.616
    11   6 C        2.642     0.398    20.278     7.367
    12   8 O        0.857    -0.288    19.558     5.929
    13   7 N        2.731    -0.054    22.287     7.011
    14   6 C        3.698    -0.072    22.054     6.717
    15   1 H        0.925     0.122     1.596     1.976
    16   1 H        0.925     0.105     1.741     2.063
    17   1 H        0.924     0.116     1.650     2.008
    18   1 H        0.926     0.119     1.618     1.989
    19   1 H        0.925     0.096     1.826     2.113
    20   1 H        0.924     0.092     1.862     2.134
    21   1 H        0.924     0.097     1.816     2.107
    22   1 H        0.924     0.087     1.907     2.159
    23   1 H        0.924     0.087     1.904     2.158
    24   1 H        0.925     0.122     1.594     1.974
    25   1 H        0.860     0.227     0.979     1.550

Wiberg/Mayer (AO) data.
largest (>0.10) Wiberg bond orders for each atom

     #   Z sym  total        # sym  WBO       # sym  WBO       # sym  WBO
 ---------------------------------------------------------------------------
     1   6 C    3.918 --     2 N    0.994    16 H    0.972    15 H    0.954
                            17 H    0.952
     2   7 N    3.613 --     3 C    1.337     6 C    1.149     1 C    0.994
     3   6 C    3.742 --     2 N    1.337     4 N    1.251    18 H    0.954
     4   7 N    3.546 --     3 C    1.251     5 C    1.191    25 H    0.920
     5   6 C    3.859 --     6 C    1.326     4 N    1.191    13 N    1.160
     6   6 C    3.866 --     5 C    1.326     2 N    1.149     7 C    1.141
     7   6 C    3.833 --     9 N    1.622     6 C    1.141     8 O    0.951
     8   8 O    2.221 --     7 C    0.951    11 C    0.942    12 O    0.134
                             9 N    0.101
     9   7 N    2.904 --     7 C    1.622    10 C    1.055     8 O    0.101
    10   6 C    3.901 --     9 N    1.055    19 H    0.954    20 H    0.932
                            21 H    0.924
    11   6 C    3.905 --    12 O    1.800    13 N    1.090     8 O    0.942
    12   8 O    2.139 --    11 C    1.800     8 O    0.134    13 N    0.128
    13   7 N    3.508 --     5 C    1.160    11 C    1.090    14 C    0.973
                            12 O    0.128
    14   6 C    3.919 --    13 N    0.973    22 H    0.968    23 H    0.968
                            24 H    0.966
    15   1 H    0.979 --     1 C    0.954
    16   1 H    0.986 --     1 C    0.972
    17   1 H    0.978 --     1 C    0.952
    18   1 H    0.985 --     3 C    0.954
    19   1 H    0.967 --    10 C    0.954
    20   1 H    0.953 --    10 C    0.932
    21   1 H    0.954 --    10 C    0.924
    22   1 H    0.985 --    14 C    0.968
    23   1 H    0.985 --    14 C    0.968
    24   1 H    0.983 --    14 C    0.966
    25   1 H    0.948 --     4 N    0.920
 ---------------------------------------------------------------------------

molecular dipole:
                 x           y           z       tot (Debye)
 q only:        2.920      -1.164       0.220
   full:        2.951      -1.560       0.197       8.499

           -------------------------------------------------
          | TOTAL ENERGY              -42.218411136541 Eh   |
          | GRADIENT NORM               0.002112789063 Eh/α |
          | HOMO-LUMO GAP               2.914447097282 eV   |
           -------------------------------------------------

 * finished run on 2024/06/05 at 19:58:52.664
