   * xtb version 6.6.1 (8d0f1dd) compiled by 'conda@1efc2f54142f' on 2023-08-01
          program call               : xtb xtbopt.xyz --opt crude --input .xc2 --gfn2

   ID    Z sym.   atoms
    1    6 C      1, 3, 5-7, 10, 11, 14
    2    7 N      2, 4, 9, 13
    3    8 O      8, 12
    4    1 H      15-25
########################################################################
[WARNING] Please study the warnings concerning your input carefully
-1- readin_getIntValue: could not parse ''
########################################################################

          :  Hamiltonian                  GFN2-xTB          :
 * total energy  :   -42.2199996 Eh     change       -0.7602807E-12 Eh
 * total energy  :   -42.2310269 Eh     change       -0.1102737E-01 Eh
 * total energy  :   -42.2353560 Eh     change       -0.4329109E-02 Eh
 * total energy  :   -42.2361009 Eh     change       -0.7448636E-03 Eh
 * total energy  :   -42.2367293 Eh     change       -0.6284018E-03 Eh
 * total energy  :   -42.2368831 Eh     change       -0.1537891E-03 Eh
   *** GEOMETRY OPTIMIZATION CONVERGED AFTER 6 ITERATIONS ***

 final structure:
================
25
 xtb: 6.6.1 (8d0f1dd)
C            2.68103232603136        1.34389498243831        0.32487632037766
N            1.95455471039139        0.11611274421564        0.18560553157686
C            2.45196766059165       -1.12701114115899        0.13982275334699
N            1.43855791719938       -2.02000373667744       -0.02514536897894
C            0.26941716610719       -1.32124047157626       -0.08730829905758
C            0.59135788293079        0.02669790164313        0.04513860789854
C           -0.43909413817080        1.01378928195570        0.03460628975418
O           -1.71388789200765        0.47847586230589       -0.14286611380703
N           -0.23142985088202        2.25728430295672        0.17314653066387
C           -1.22222937285040        3.27024294570295        0.17608035757079
C           -2.04623667499307       -0.81351025958613       -0.28169668200270
O           -3.18106671223455       -1.14918511489683       -0.42899531198399
N           -1.00324507750391       -1.76248995408096       -0.24497085589360
C           -1.32046341974933       -3.16950938045915       -0.37626390277195
H            2.21175892538810        1.95711781348940        1.09396551614563
H            3.71500702783184        1.13629870330232        0.58905284759987
H            2.64886418298395        1.90516225872979       -0.61058740484796
H            3.48672396181973       -1.38720237855791        0.22236552967224
H           -0.70861442163295        4.22704939025632        0.07641573706445
H           -1.94880615602376        3.15011755192717       -0.63477393880434
H           -1.77406157259225        3.26250580786333        1.12061979535932
H           -1.01254222406072       -3.71399660867538        0.51731927175453
H           -0.83528732688718       -3.58905573202583       -1.25832718409028
H           -2.40116283268080       -3.25227682349608       -0.49037960210276
H            1.54931742508779       -3.02102940398559       -0.08652880654708

          :  Hamiltonian                  GFN2-xTB          :
         :: total energy             -42.236883087636 Eh    ::
         :: gradient norm              0.006532815886 Eh/a0 ::
         :: HOMO-LUMO gap              2.861955394788 eV    ::
         :: SCC energy               -42.757433800088 Eh    ::
         :: -> dispersion             -0.021917361166 Eh    ::
         :: repulsion energy           0.520459638183 Eh    ::

    * Orbital Energies and Occupations

         #    Occupation            Energy/Eh            Energy/eV
      -------------------------------------------------------------
         1        2.0000           -0.9055917             -24.6424
       ...           ...                  ...                  ...
        25        1.9993           -0.6647732             -18.0894
        26        1.9993           -0.6640599             -18.0700
        27        1.9985           -0.6451288             -17.5548
        28        1.9979           -0.6373805             -17.3440
        29        1.9967           -0.6264505             -17.0466
        30        1.9960           -0.6220884             -16.9279
        31        1.9958           -0.6209636             -16.8973
        32        1.9945           -0.6143600             -16.7176
        33        1.9932           -0.6090649             -16.5735
        34        1.9797           -0.5831146             -15.8674
        35        1.9713           -0.5747181             -15.6389
        36        1.8761           -0.5388223             -14.6621
        37        1.8406           -0.5323845             -14.4869 (HOMO)
        38        0.2422           -0.4272096             -11.6250 (LUMO)
        39        0.0941           -0.4028291             -10.9615
        40        0.0255           -0.3710120             -10.0957
        41        0.0009           -0.2901110              -7.8943
        42        0.0000           -0.1955836              -5.3221
        43        0.0000           -0.1894823              -5.1561
        44        0.0000           -0.1452793              -3.9533
        45        0.0000           -0.1336466              -3.6367
        46        0.0000           -0.0768989              -2.0925
        47                         -0.0605632              -1.6480
        48                         -0.0397611              -1.0820
       ...                                ...                  ...
        67                          0.5355242              14.5724
      -------------------------------------------------------------
                  HL-Gap            0.1051749 Eh            2.8620 eV

     #   Z          covCN         q      C6AA      α(0)
     1   6 C        3.691    -0.092    22.451     6.780
     2   7 N        2.822     0.068    20.058     6.652
     3   6 C        3.042     0.038    27.105     8.539
     4   7 N        2.784    -0.066    22.514     7.047
     5   6 C        3.032     0.113    25.488     8.281
     6   6 C        3.106    -0.008    28.079     8.682
     7   6 C        2.777     0.216    23.437     7.929
     8   8 O        1.708    -0.233    17.856     5.705
     9   7 N        1.828    -0.193    25.994     7.555
    10   6 C        3.699    -0.039    21.440     6.622
    11   6 C        2.655     0.402    20.215     7.356
    12   8 O        0.858    -0.330    20.330     6.045
    13   7 N        2.734    -0.073    22.655     7.069
    14   6 C        3.695    -0.070    22.030     6.714
    15   1 H        0.925     0.120     1.613     1.986
    16   1 H        0.925     0.106     1.735     2.060
    17   1 H        0.924     0.114     1.660     2.015
    18   1 H        0.927     0.119     1.621     1.991
    19   1 H        0.924     0.098     1.807     2.102
    20   1 H        0.924     0.090     1.884     2.146
    21   1 H        0.924     0.097     1.815     2.107
    22   1 H        0.924     0.085     1.924     2.169
    23   1 H        0.924     0.086     1.923     2.169
    24   1 H        0.925     0.126     1.565     1.956
    25   1 H        0.860     0.227     0.980     1.551

Wiberg/Mayer (AO) data.
largest (>0.10) Wiberg bond orders for each atom

     #   Z sym  total        # sym  WBO       # sym  WBO       # sym  WBO
 ---------------------------------------------------------------------------
     1   6 C    3.920 --     2 N    0.994    16 H    0.972    15 H    0.956
                            17 H    0.953
     2   7 N    3.605 --     3 C    1.330     6 C    1.152     1 C    0.994
     3   6 C    3.727 --     2 N    1.330     4 N    1.242    18 H    0.955
     4   7 N    3.541 --     3 C    1.242     5 C    1.191    25 H    0.921
     5   6 C    3.874 --     6 C    1.323     4 N    1.191    13 N    1.179
     6   6 C    3.864 --     5 C    1.323     2 N    1.152     7 C    1.128
     7   6 C    3.849 --     9 N    1.645     6 C    1.128     8 O    0.958
     8   8 O    2.340 --    11 C    1.073     7 C    0.958    12 O    0.125
     9   7 N    2.920 --     7 C    1.645    10 C    1.050
    10   6 C    3.905 --     9 N    1.050    19 H    0.954    20 H    0.935
                            21 H    0.927
    11   6 C    3.908 --    12 O    1.727     8 O    1.073    13 N    1.037
    12   8 O    2.053 --    11 C    1.727     8 O    0.125    13 N    0.121
    13   7 N    3.491 --     5 C    1.179    11 C    1.037    14 C    0.977
                            12 O    0.121
    14   6 C    3.917 --    13 N    0.977    23 H    0.967    22 H    0.967
                            24 H    0.962
    15   1 H    0.980 --     1 C    0.956
    16   1 H    0.987 --     1 C    0.972
    17   1 H    0.978 --     1 C    0.953
    18   1 H    0.985 --     3 C    0.955
    19   1 H    0.966 --    10 C    0.954
    20   1 H    0.956 --    10 C    0.935
    21   1 H    0.959 --    10 C    0.927
    22   1 H    0.984 --    14 C    0.967
    23   1 H    0.984 --    14 C    0.967
    24   1 H    0.981 --    14 C    0.962
    25   1 H    0.948 --     4 N    0.921
 ---------------------------------------------------------------------------

molecular dipole:
                 x           y           z       tot (Debye)
 q only:        2.929      -0.997       0.221
   full:        3.000      -1.423       0.195       8.453

           -------------------------------------------------
          | TOTAL ENERGY              -42.236883087636 Eh   |
          | GRADIENT NORM               0.006532815886 Eh/α |
          | HOMO-LUMO GAP               2.861955394788 eV   |
           -------------------------------------------------

 * finished run on 2024/06/05 at 19:58:52.937
