   * xtb version 6.6.1 (8d0f1dd) compiled by 'conda@1efc2f54142f' on 2023-08-01
          program call               : xtb xtbopt.xyz --opt crude --input .xc2 --gfn2

   ID    Z sym.   atoms
    1    7 N      1, 17
    2    6 C      2-6, 8, 9, 11-16, 18-23, 25, 26, 28-33
    3    8 O      7, 10, 24, 27
    4    1 H      34-72

          :  Hamiltonian                  GFN2-xTB          :
 * total energy  :   -99.2926043 Eh     change       -0.9157475E-10 Eh
   *** GEOMETRY OPTIMIZATION CONVERGED AFTER 1 ITERATIONS ***

 final structure:
================
72
 xtb: 6.6.1 (8d0f1dd)
N           -1.93218730738952        2.85348964317387        2.22181669975791
C           -1.88491306058404        2.13963839285159        1.19869472872637
C           -3.03555417551862        1.92988412657402        0.25235698217988
C           -3.50715859897031        0.48649607129911        0.33933519128546
C           -4.44284734951214        0.00800889833054       -0.58012917458659
C           -4.91859333549857       -1.29140248710547       -0.52036772834522
O           -5.83133690744750       -1.82529368824876       -1.35629305394091
C           -6.45700512138058       -1.00135191951702       -2.31208139704556
C           -4.43225823173979       -2.16931103699830        0.48710455354222
O           -4.93716580823019       -3.41764176648120        0.46055951816518
C           -4.54735170638104       -4.33825497847235        1.45296538906019
C           -3.50606515758900       -1.68674930713995        1.39831849226870
C           -3.05416738286856       -0.37490808571616        1.32689716895622
C           -2.48311745716840        2.22611384460006       -1.16731197072384
C           -1.58082818827296        1.12235816811491       -1.74905014408320
C           -0.24261997219001        1.06240492952912       -1.12250196830174
N            0.38392662857950       -0.04195121980694       -0.74427701630027
C            1.76256374805343        0.00252429023825       -0.31694744944911
C            2.72163952550424       -0.51981892580361       -1.40742229032440
C            4.14131067089236       -0.35946522489748       -0.94913552252597
C            4.81157123806954        0.85278104135918       -1.15041524937186
C            6.09066210042653        1.03933137005314       -0.70615965137286
C            6.81607166300703        0.01399908675188       -0.01026331254435
O            7.97182494957834        0.16883296311200        0.39971250304537
C           10.46205102526469        2.84878343208590        0.30557962845340
C            6.08709009869168       -1.25059022917487        0.18340666752535
O            6.79321808072506       -2.18494509883726        0.82605309515343
C            6.23386142549948       -3.45478221674333        1.06053275636541
C            4.79231568070753       -1.39411278675677       -0.28099972772044
C           -0.24259543087900       -1.34099894146767       -0.81282087186845
C           -4.25021911312104        2.85963925318369        0.54881902717750
C           -4.88946144664394        2.53432855069719        1.89648103160832
C           -3.89893112380002        4.34353711699551        0.48886906088216
H           -4.81567621666018        0.66795828365906       -1.34556808065514
H           -6.97170975060061       -0.15971657941329       -1.83893510815653
H           -7.18720191718467       -1.63561305842270       -2.81059076148848
H           -5.74189875980239       -0.62621581694406       -3.05132190585614
H           -4.81566443336446       -3.98725870977180        2.45375016621209
H           -5.09417165340073       -5.25297927965909        1.23305222551613
H           -3.47219671307480       -4.54048463612350        1.41233146641445
H           -3.13732899307972       -2.32208558368956        2.18706386755553
H           -2.35903561051349       -0.02759746107241        2.07544439835233
H           -3.32316445193065        2.36684965622378       -1.84628967684894
H           -1.92480859198733        3.16247846400352       -1.13766885188734
H           -2.09408688218510        0.16371269085518       -1.69932784643630
H           -1.43253743228619        1.36647584633855       -2.80908625655297
H           -0.97338531166435        1.61366522325514        0.85688361052456
H            0.32438902376801        1.98080316724122       -1.07557313924875
H            1.87720135443316       -0.60290425296542        0.58654167926631
H            2.03295340768524        1.03224419287583       -0.07528655282327
H            2.55869437590510        0.05633662358138       -2.32034788250973
H            2.50587198401489       -1.56839035487702       -1.61514118700912
H            4.30792626445272        1.65039157363632       -1.67863637759238
H            6.61166290859711        1.96991502432338       -0.86665921499343
H            9.91048035001932        3.58066823025104        0.85747347068203
H           10.53131900603594        2.92402949295242       -0.75914025898256
H           10.91684272025365        2.02410946444649        0.81557143884455
H            7.00132645935892       -4.02533235386409        1.58016340309047
H            5.34248967983495       -3.38785370390511        1.69254599207069
H            5.98048129576765       -3.95809145240187        0.12233850560889
H            4.27077969336087       -2.32957825397610       -0.13825853981214
H           -0.40387947012837       -1.64733330988170       -1.84862931901163
H           -1.20497320596036       -1.32842022761023       -0.29563464098455
H            0.39894354419314       -2.07376585981510       -0.32996100249922
H           -4.99250807340688        2.65696031171597       -0.23170775150882
H           -4.19075130133502        2.74214199624023        2.70040594799285
H           -5.18824258636281        1.49013044043502        1.94891271141572
H           -5.77332649255812        3.15058407714200        2.03788834297325
H           -3.15026905106371        4.58455222007914        1.23716291242592
H           -3.53348143900602        4.63576265358793       -0.49195847361439
H           -4.78968480592316        4.92928995597454        0.69980940337002
H           -1.08859328700348        2.94812756230820        2.77832216310844

          :  Hamiltonian                  GFN2-xTB          :
         :: total energy             -99.292604294646 Eh    ::
         :: gradient norm              0.002846123326 Eh/a0 ::
         :: HOMO-LUMO gap              0.382694090452 eV    ::
         :: SCC energy              -100.677479340445 Eh    ::
         :: -> dispersion             -0.073123358490 Eh    ::
         :: repulsion energy           1.383586841002 Eh    ::

    * Orbital Energies and Occupations

         #    Occupation            Energy/Eh            Energy/eV
      -------------------------------------------------------------
         1        2.0000           -0.8144047             -22.1611
       ...           ...                  ...                  ...
        78        1.9980           -0.5333631             -14.5135
        79        1.9978           -0.5319332             -14.4746
        80        1.9972           -0.5278241             -14.3628
        81        1.9970           -0.5271776             -14.3452
        82        1.9952           -0.5193427             -14.1320
        83        1.9942           -0.5166179             -14.0579
        84        1.9933           -0.5141347             -13.9903
        85        1.9788           -0.4958743             -13.4934
        86        1.9626           -0.4867136             -13.2442
        87        1.9280           -0.4760591             -12.9542
        88        1.8578           -0.4646989             -12.6451
        89        1.8303           -0.4616668             -12.5626
        90        1.2658           -0.4326329             -11.7725 (HOMO)
        91        0.8299           -0.4185692             -11.3898 (LUMO)
        92        0.3653           -0.4002823             -10.8922
        93        0.0128           -0.3441636              -9.3652
        94        0.0032           -0.3221018              -8.7648
        95        0.0027           -0.3191156              -8.6836
        96        0.0012           -0.3068052              -8.3486
        97        0.0007           -0.2989806              -8.1357
        98        0.0000           -0.1965524              -5.3485
        99        0.0000           -0.1847780              -5.0281
       100                         -0.1415889              -3.8528
       101                         -0.0744457              -2.0258
       ...                                ...                  ...
       171                          0.6075577              16.5325
      -------------------------------------------------------------
                  HL-Gap            0.0140637 Eh            0.3827 eV

     #   Z          covCN         q      C6AA      α(0)
     1   7 N        1.774    -0.265    27.693     7.793
     2   6 C        2.826     0.102    25.741     8.314
     3   6 C        3.907     0.006    20.413     6.422
     4   6 C        2.974     0.003    27.961     8.674
     5   6 C        2.920    -0.080    30.000     8.982
     6   6 C        2.862     0.130    25.149     8.220
     7   8 O        1.706    -0.228    17.775     5.692
     8   6 C        3.645     0.027    20.462     6.502
     9   6 C        2.864     0.129    25.169     8.223
    10   8 O        1.706    -0.226    17.748     5.688
    11   6 C        3.645     0.026    20.470     6.503
    12   6 C        2.913    -0.075    29.860     8.960
    13   6 C        2.921    -0.053    29.315     8.879
    14   6 C        3.812    -0.065    21.739     6.636
    15   6 C        3.802    -0.070    21.835     6.653
    16   6 C        2.844     0.010    27.790     8.639
    17   7 N        2.729     0.016    20.970     6.801
    18   6 C        3.756    -0.017    20.929     6.523
    19   6 C        3.807    -0.069    21.824     6.650
    20   6 C        2.969     0.003    27.944     8.671
    21   6 C        2.912    -0.043    29.060     8.840
    22   6 C        2.909    -0.061    29.507     8.907
    23   6 C        2.828     0.201    23.726     7.982
    24   8 O        0.858    -0.360    20.903     6.130
    25   6 C        2.780    -0.105    30.623     9.064
    26   6 C        2.856     0.129    25.162     8.222
    27   8 O        1.706    -0.195    17.253     5.608
    28   6 C        3.645     0.024    20.498     6.507
    29   6 C        2.910    -0.079    29.972     8.977
    30   6 C        3.700    -0.072    22.038     6.714
    31   6 C        3.853    -0.007    20.673     6.467
    32   6 C        3.756    -0.119    22.831     6.813
    33   6 C        3.755    -0.119    22.842     6.815
    34   1 H        0.926     0.053     2.280     2.361
    35   1 H        0.924     0.055     2.257     2.349
    36   1 H        0.925     0.083     1.952     2.185
    37   1 H        0.924     0.048     2.340     2.392
    38   1 H        0.924     0.057     2.239     2.340
    39   1 H        0.925     0.083     1.952     2.185
    40   1 H        0.924     0.049     2.337     2.391
    41   1 H        0.926     0.053     2.279     2.361
    42   1 H        0.926     0.040     2.452     2.449
    43   1 H        0.925     0.062     2.178     2.308
    44   1 H        0.924     0.055     2.262     2.352
    45   1 H        0.925     0.067     2.116     2.275
    46   1 H        0.924     0.083     1.950     2.184
    47   1 H        0.922     0.006     2.960     2.691
    48   1 H        0.926     0.072     2.059     2.244
    49   1 H        0.924     0.069     2.098     2.265
    50   1 H        0.924     0.069     2.092     2.262
    51   1 H        0.924     0.057     2.237     2.339
    52   1 H        0.924     0.056     2.246     2.344
    53   1 H        0.926     0.046     2.372     2.408
    54   1 H        0.926     0.069     2.093     2.262
    55   1 H        0.927     0.088     1.899     2.155
    56   1 H        0.927     0.089     1.887     2.148
    57   1 H        0.926     0.099     1.797     2.096
    58   1 H        0.925     0.087     1.912     2.162
    59   1 H        0.924     0.053     2.278     2.360
    60   1 H        0.924     0.058     2.226     2.333
    61   1 H        0.926     0.044     2.395     2.420
    62   1 H        0.924     0.079     1.994     2.208
    63   1 H        0.924     0.080     1.975     2.197
    64   1 H        0.925     0.082     1.962     2.191
    65   1 H        0.924     0.038     2.473     2.459
    66   1 H        0.925     0.070     2.089     2.260
    67   1 H        0.925     0.036     2.505     2.475
    68   1 H        0.925     0.053     2.287     2.365
    69   1 H        0.925     0.062     2.174     2.305
    70   1 H        0.925     0.035     2.510     2.478
    71   1 H        0.925     0.056     2.250     2.345
    72   1 H        0.860     0.159     1.340     1.813

Wiberg/Mayer (AO) data.
largest (>0.10) Wiberg bond orders for each atom

     #   Z sym  total        # sym  WBO       # sym  WBO       # sym  WBO
 ---------------------------------------------------------------------------
     1   7 N    3.039 --     2 C    1.959    72 H    0.941
     2   6 C    3.932 --     1 N    1.959     3 C    0.994    47 H    0.903
     3   6 C    3.974 --     2 C    0.994     4 C    0.970    14 C    0.957
                            31 C    0.942
     4   6 C    3.946 --    13 C    1.412     5 C    1.368     3 C    0.970
     5   6 C    3.961 --     6 C    1.400     4 C    1.368    34 H    0.958
     6   6 C    3.903 --     5 C    1.400     9 C    1.219     7 O    1.102
     7   8 O    2.255 --     6 C    1.102     8 C    0.977
     8   6 C    3.930 --     7 O    0.977    36 H    0.976    35 H    0.973
                            37 H    0.973
     9   6 C    3.899 --    12 C    1.390     6 C    1.219    10 O    1.105
    10   8 O    2.254 --     9 C    1.105    11 C    0.977
    11   6 C    3.930 --    10 O    0.977    39 H    0.977    40 H    0.973
                            38 H    0.973
    12   6 C    3.960 --    13 C    1.404     9 C    1.390    41 H    0.964
    13   6 C    3.951 --     4 C    1.412    12 C    1.404    42 H    0.962
    14   6 C    3.972 --    15 C    0.980    44 H    0.972    43 H    0.968
                             3 C    0.957
    15   6 C    3.986 --    16 C    1.061    14 C    0.980    45 H    0.961
                            46 H    0.926
    16   6 C    3.608 --    17 N    1.416    15 C    1.061    48 H    0.956
    17   7 N    3.493 --    16 C    1.416    30 C    0.997    18 C    0.988
    18   6 C    3.947 --    17 N    0.988    50 H    0.968    49 H    0.963
                            19 C    0.962
    19   6 C    3.976 --    20 C    1.013    52 H    0.971    51 H    0.970
                            18 C    0.962
    20   6 C    3.804 --    29 C    1.377    21 C    1.319    19 C    1.013
    21   6 C    3.944 --    22 C    1.539    20 C    1.319    53 H    0.963
    22   6 C    3.795 --    21 C    1.539    23 C    1.151    54 H    0.963
    23   6 C    3.880 --    24 O    1.590    22 C    1.151    26 C    1.047
    24   8 O    1.724 --    23 C    1.590
    25   6 C    2.968 --    55 H    0.990    56 H    0.990    57 H    0.988
    26   6 C    3.739 --    29 C    1.405    27 O    1.146    23 C    1.047
    27   8 O    2.257 --    26 C    1.146    28 C    0.975
    28   6 C    3.926 --    58 H    0.976    27 O    0.975    59 H    0.971
                            60 H    0.971
    29   6 C    3.944 --    26 C    1.405    20 C    1.377    61 H    0.958
    30   6 C    3.956 --    17 N    0.997    64 H    0.977    62 H    0.966
                            63 H    0.961
    31   6 C    3.971 --    33 C    1.009    32 C    1.008    65 H    0.959
                             3 C    0.942
    32   6 C    3.977 --    31 C    1.008    67 H    0.981    68 H    0.981
                            66 H    0.973
    33   6 C    3.981 --    31 C    1.009    70 H    0.982    71 H    0.980
                            69 H    0.975
    34   1 H    0.996 --     5 C    0.958
    35   1 H    0.993 --     8 C    0.973
    36   1 H    0.992 --     8 C    0.976
    37   1 H    0.993 --     8 C    0.973
    38   1 H    0.992 --    11 C    0.973
    39   1 H    0.992 --    11 C    0.977
    40   1 H    0.993 --    11 C    0.973
    41   1 H    0.995 --    12 C    0.964
    42   1 H    0.998 --    13 C    0.962
    43   1 H    0.995 --    14 C    0.968
    44   1 H    0.996 --    14 C    0.972
    45   1 H    0.995 --    15 C    0.961
    46   1 H    0.970 --    15 C    0.926
    47   1 H    0.985 --     2 C    0.903
    48   1 H    0.994 --    16 C    0.956
    49   1 H    0.990 --    18 C    0.963
    50   1 H    0.994 --    18 C    0.968
    51   1 H    0.993 --    19 C    0.970
    52   1 H    0.995 --    19 C    0.971
    53   1 H    0.992 --    21 C    0.963
    54   1 H    0.990 --    22 C    0.963
    55   1 H    0.992 --    25 C    0.990
    56   1 H    0.992 --    25 C    0.990
    57   1 H    0.990 --    25 C    0.988
    58   1 H    0.992 --    28 C    0.976
    59   1 H    0.989 --    28 C    0.971
    60   1 H    0.988 --    28 C    0.971
    61   1 H    0.993 --    29 C    0.958
    62   1 H    0.985 --    30 C    0.966
    63   1 H    0.987 --    30 C    0.961
    64   1 H    0.993 --    30 C    0.977
    65   1 H    0.991 --    31 C    0.959
    66   1 H    0.990 --    32 C    0.973
    67   1 H    0.996 --    32 C    0.981
    68   1 H    0.993 --    32 C    0.981
    69   1 H    0.992 --    33 C    0.975
    70   1 H    0.997 --    33 C    0.982
    71   1 H    0.993 --    33 C    0.980
    72   1 H    0.969 --     1 N    0.941
 ---------------------------------------------------------------------------

molecular dipole:
                 x           y           z       tot (Debye)
 q only:       -0.477      -0.083      -0.932
   full:       -0.375      -0.305      -1.106       3.067

           -------------------------------------------------
          | TOTAL ENERGY              -99.292604294646 Eh   |
          | GRADIENT NORM               0.002846123326 Eh/α |
          | HOMO-LUMO GAP               0.382694090452 eV   |
           -------------------------------------------------

 * finished run on 2024/04/06 at 11:14:29.655
