   * xtb version 6.6.1 (8d0f1dd) compiled by 'conda@1efc2f54142f' on 2023-08-01
          program call               : xtb struc.xyz --opt loose --input .xc1 --gfn2

   ID    Z sym.   atoms
    1    7 N      1, 17
    2    6 C      2-6, 8, 9, 11-16, 18-23, 25, 26, 28-33
    3    8 O      7, 10, 24, 27
    4    1 H      34-72
constraining bond 19 61 to    5.1400000 Å, actual value:    2.6952975 Å

          :  Hamiltonian                  GFN2-xTB          :
 * total energy  :   -98.3369951 Eh     change       -0.4035485E-08 Eh
 * total energy  :   -98.6888951 Eh     change       -0.3519000E+00 Eh
 * total energy  :   -98.9177036 Eh     change       -0.2288084E+00 Eh
 * total energy  :   -99.0274579 Eh     change       -0.1097544E+00 Eh
 * total energy  :   -99.0740882 Eh     change       -0.4663031E-01 Eh
 * total energy  :   -99.0987026 Eh     change       -0.2461439E-01 Eh
 * total energy  :   -99.1159563 Eh     change       -0.1725363E-01 Eh
 * total energy  :   -99.1280033 Eh     change       -0.1204701E-01 Eh
 * total energy  :   -99.1362735 Eh     change       -0.8270230E-02 Eh
 * total energy  :   -99.1431867 Eh     change       -0.6913218E-02 Eh
 * total energy  :   -99.2520627 Eh     change       -0.2532800E-03 Eh
 * total energy  :   -99.2522878 Eh     change       -0.2250176E-03 Eh
 * total energy  :   -99.2525184 Eh     change       -0.2306780E-03 Eh
 * total energy  :   -99.2526768 Eh     change       -0.1583976E-03 Eh
 * total energy  :   -99.2528119 Eh     change       -0.1350308E-03 Eh
 * total energy  :   -99.2529122 Eh     change       -0.1003191E-03 Eh
 * total energy  :   -99.2529927 Eh     change       -0.8051350E-04 Eh
 * total energy  :   -99.2530689 Eh     change       -0.7621994E-04 Eh
 * total energy  :   -99.2531037 Eh     change       -0.3472648E-04 Eh
   *** GEOMETRY OPTIMIZATION CONVERGED AFTER 46 ITERATIONS ***

 final structure:
================
72
 xtb: 6.6.1 (8d0f1dd)
N           -1.96809322136757        2.90544343591041        2.23534677651436
C           -1.90281483574808        2.17938971222724        1.22131051726940
C           -3.03500896343402        1.94865603116003        0.25913691792932
C           -3.49005416681388        0.49953741529538        0.34551314539354
C           -4.39846557713265        0.00307227064762       -0.59171669192419
C           -4.85621775150426       -1.30247486500116       -0.53570485764134
O           -5.74018437156881       -1.85548172929431       -1.39232290713409
C           -6.35283242875358       -1.04568218446785       -2.36786573172097
C           -4.38360018902529       -2.16627580472210        0.48869967897958
O           -4.87385821961116       -3.42217807641326        0.46074953046131
C           -4.51943218628927       -4.31812930526623        1.48797608695647
C           -3.48419808262119       -1.66696278022001        1.41681926057573
C           -3.04671630340216       -0.34992950237107        1.34687088265994
C           -2.45997045215553        2.23793780920575       -1.15253950632453
C           -1.51283582129705        1.15034238629998       -1.69088381015015
C           -0.18763252718636        1.13938129186674       -1.03234982922528
N            0.46910135759617        0.05636427822244       -0.63781619820635
C            1.84575204547470        0.15062590689929       -0.21182437488422
C            2.81950001228090       -0.29072945297989       -1.31984924845107
C            4.23547616402752       -0.09394805095114       -0.85207832442623
C            4.93768077390411        1.06994295918424       -1.17094978087632
C            6.23413126235140        1.27258184695217       -0.72819927312590
C            6.87929375389150        0.31681842122372        0.04782163018810
O            8.13172140284646        0.39236110095738        0.52840861378319
C            8.92406149035491        1.51671481730845        0.21338218745301
C            6.15765644395570       -0.87032096102987        0.36874604334724
O            6.83088911263640       -1.80397403556867        1.09370653804409
C            6.27244539430114       -2.94358760175314        1.39560977572014
C            4.86043642195182       -1.03856294554875       -0.06976966419674
C           -0.12017754709970       -1.26000849512065       -0.68926382340896
C           -4.26655035772758        2.86366402055347        0.52752505045429
C           -4.91583703346040        2.54572648054778        1.87238457493554
C           -3.93793932970996        4.35213456472613        0.45287656372157
H           -4.76416201975241        0.65345494853899       -1.36876605136198
H           -6.88685275016162       -0.20561032406179       -1.91365463291823
H           -7.06516525431321       -1.69152263576750       -2.87739743988272
H           -5.62549060229353       -0.66876076603856       -3.09439572712018
H           -4.81606401805188       -3.93908428281056        2.47039138812327
H           -5.06442776075084       -5.23577321167710        1.27576069017965
H           -3.44475736181102       -4.52698781892397        1.48576536521318
H           -3.12353459075936       -2.29318781038498        2.21656363415748
H           -2.37141144701347        0.01085144587583        2.10724605592453
H           -3.28851592804901        2.34003553911502       -1.85259043353570
H           -1.93053381031223        3.19125232221707       -1.12817541341061
H           -1.99975964112126        0.17840487801234       -1.63233132043924
H           -1.34630478760577        1.37639777811536       -2.75234656129724
H           -0.98139306323121        1.65848128374219        0.89661649149158
H            0.35596580523619        2.07223496705264       -0.99499639543656
H            1.99627215343483       -0.47851046998905        0.66898259473725
H            2.06838336811025        1.18388581410429        0.06214444754098
H            2.63337202961699        0.30509428617837       -2.21527047330496
H            2.65297559351306       -1.34220856085879       -1.55813856918989
H            4.46642696520188        1.82480061582146       -1.78501340886425
H            6.74238945989823        2.18375563514348       -1.00058479368240
H            8.48992008717981        2.43627159133752        0.61624512356941
H            9.06057035451196        1.61724393096835       -0.86669351445283
H            9.88795635889994        1.33517975607709        0.68483537880292
H            6.87574874577759       -3.61815926546429        1.97508916713963
H            5.21108568797343       -3.08706387156161        1.25419766776148
H            6.40578113211925       -3.84461970191797       -0.45642795273958
H            6.40851056062334       -3.97362903145992       -1.25159993953899
H           -0.25771286258297       -1.59165929142078       -1.72071427041882
H           -1.09056690424200       -1.26293561968477       -0.18663733785395
H            0.53523503052707       -1.96463146618547       -0.18370150018405
H           -4.99621008242107        2.63936958816206       -0.25889556035801
H           -4.23012447807358        2.77792555245502        2.68069395646731
H           -5.19516339451236        1.49683082978045        1.93607745207699
H           -5.81284483420937        3.14696814558638        1.99484614762284
H           -3.19545171975628        4.61268548452656        1.20069681112660
H           -3.57447859514312        4.63961779068049       -0.53018217257359
H           -4.83873462789558        4.92573289883554        0.65486096926258
H           -1.13014347122397        3.00955960989793        2.79901521727971

          :  Hamiltonian                  GFN2-xTB          :
         :: total energy             -99.253103654227 Eh    ::
         :: gradient norm              0.002965064143 Eh/a0 ::
         :: HOMO-LUMO gap              0.673922610283 eV    ::
         :: SCC energy              -100.639532695037 Eh    ::
         :: -> dispersion             -0.074963187742 Eh    ::
         :: repulsion energy           1.385138542296 Eh    ::

    * Orbital Energies and Occupations

         #    Occupation            Energy/Eh            Energy/eV
      -------------------------------------------------------------
         1        2.0000           -0.8390934             -22.8329
       ...           ...                  ...                  ...
        78        1.9986           -0.5288402             -14.3905
        79        1.9984           -0.5261320             -14.3168
        80        1.9983           -0.5257644             -14.3068
        81        1.9976           -0.5200926             -14.1524
        82        1.9961           -0.5125099             -13.9461
        83        1.9954           -0.5098951             -13.8750
        84        1.9946           -0.5071814             -13.8011
        85        1.9865           -0.4927059             -13.4072
        86        1.9818           -0.4878635             -13.2754
        87        1.9447           -0.4699883             -12.7890
        88        1.9366           -0.4677509             -12.7282
        89        1.8781           -0.4569229             -12.4335
        90        1.3142           -0.4239175             -11.5354 (HOMO)
        91        0.5725           -0.3991513             -10.8615 (LUMO)
        92        0.3885           -0.3910920             -10.6422
        93        0.0150           -0.3362798              -9.1506
        94        0.0037           -0.3139228              -8.5423
        95        0.0030           -0.3107897              -8.4570
        96        0.0025           -0.3080157              -8.3815
        97        0.0016           -0.3005605              -8.1787
        98        0.0000           -0.1881237              -5.1191
        99        0.0000           -0.1812702              -4.9326
       100                         -0.1318754              -3.5885
       101                         -0.0657572              -1.7893
       ...                                ...                  ...
       171                          0.5751705              15.6512
      -------------------------------------------------------------
                  HL-Gap            0.0247662 Eh            0.6739 eV

     #   Z          covCN         q      C6AA      α(0)
     1   7 N        1.774    -0.270    27.814     7.810
     2   6 C        2.827     0.101    25.748     8.315
     3   6 C        3.907     0.006    20.414     6.422
     4   6 C        2.974     0.002    27.978     8.676
     5   6 C        2.921    -0.080    30.002     8.982
     6   6 C        2.862     0.129    25.169     8.223
     7   8 O        1.706    -0.231    17.831     5.701
     8   6 C        3.644     0.028    20.441     6.498
     9   6 C        2.864     0.128    25.191     8.227
    10   8 O        1.706    -0.230    17.809     5.698
    11   6 C        3.645     0.027    20.450     6.499
    12   6 C        2.914    -0.075    29.868     8.962
    13   6 C        2.921    -0.053    29.328     8.881
    14   6 C        3.812    -0.064    21.727     6.635
    15   6 C        3.802    -0.069    21.820     6.650
    16   6 C        2.844     0.008    27.844     8.648
    17   7 N        2.729     0.013    21.031     6.811
    18   6 C        3.757    -0.016    20.921     6.521
    19   6 C        3.807    -0.068    21.793     6.645
    20   6 C        2.970     0.009    27.815     8.651
    21   6 C        2.924    -0.042    29.035     8.837
    22   6 C        2.913    -0.072    29.804     8.952
    23   6 C        2.862     0.137    25.006     8.197
    24   8 O        1.705    -0.230    17.810     5.698
    25   6 C        3.645     0.026    20.463     6.501
    26   6 C        2.891     0.109    25.596     8.295
    27   8 O        1.709    -0.107    15.929     5.389
    28   6 C        2.752     0.047    26.926     8.497
    29   6 C        1.997    -0.153    35.367     9.604
    30   6 C        3.700    -0.071    22.028     6.712
    31   6 C        3.853    -0.007    20.673     6.467
    32   6 C        3.756    -0.118    22.824     6.812
    33   6 C        3.755    -0.118    22.824     6.812
    34   1 H        0.926     0.052     2.301     2.372
    35   1 H        0.924     0.053     2.279     2.361
    36   1 H        0.925     0.081     1.973     2.196
    37   1 H        0.924     0.047     2.359     2.402
    38   1 H        0.924     0.055     2.264     2.353
    39   1 H        0.925     0.081     1.973     2.197
    40   1 H        0.924     0.048     2.350     2.398
    41   1 H        0.926     0.051     2.302     2.372
    42   1 H        0.926     0.038     2.472     2.459
    43   1 H        0.925     0.060     2.201     2.320
    44   1 H        0.924     0.053     2.282     2.363
    45   1 H        0.925     0.066     2.128     2.281
    46   1 H        0.923     0.079     1.987     2.205
    47   1 H        0.922     0.005     2.965     2.693
    48   1 H        0.926     0.069     2.097     2.265
    49   1 H        0.924     0.072     2.069     2.249
    50   1 H        0.924     0.065     2.146     2.291
    51   1 H        0.924     0.049     2.335     2.390
    52   1 H        0.924     0.061     2.191     2.315
    53   1 H        0.926     0.047     2.351     2.398
    54   1 H        0.926     0.057     2.238     2.340
    55   1 H        0.924     0.054     2.267     2.355
    56   1 H        0.924     0.056     2.252     2.347
    57   1 H        0.925     0.081     1.970     2.195
    58   1 H        0.926     0.094     1.843     2.123
    59   1 H        0.926     0.078     1.995     2.209
    60   1 H        0.710     0.002     3.208     2.842
    61   1 H        0.710     0.019     2.919     2.711
    62   1 H        0.924     0.077     2.015     2.220
    63   1 H        0.924     0.079     1.987     2.205
    64   1 H        0.925     0.082     1.956     2.187
    65   1 H        0.924     0.037     2.494     2.470
    66   1 H        0.925     0.069     2.101     2.267
    67   1 H        0.925     0.035     2.515     2.480
    68   1 H        0.925     0.050     2.314     2.379
    69   1 H        0.925     0.061     2.192     2.315
    70   1 H        0.925     0.034     2.530     2.487
    71   1 H        0.925     0.054     2.273     2.357
    72   1 H        0.860     0.156     1.361     1.828

Wiberg/Mayer (AO) data.
largest (>0.10) Wiberg bond orders for each atom

     #   Z sym  total        # sym  WBO       # sym  WBO       # sym  WBO
 ---------------------------------------------------------------------------
     1   7 N    3.039 --     2 C    1.956    72 H    0.942
     2   6 C    3.929 --     1 N    1.956     3 C    0.995    47 H    0.901
     3   6 C    3.976 --     2 C    0.995     4 C    0.969    14 C    0.957
                            31 C    0.943
     4   6 C    3.951 --    13 C    1.416     5 C    1.368     3 C    0.969
     5   6 C    3.963 --     6 C    1.402     4 C    1.368    34 H    0.958
     6   6 C    3.907 --     5 C    1.402     9 C    1.223     7 O    1.098
     7   8 O    2.254 --     6 C    1.098     8 C    0.978
     8   6 C    3.933 --     7 O    0.978    36 H    0.977    35 H    0.974
                            37 H    0.974
     9   6 C    3.903 --    12 C    1.393     6 C    1.223    10 O    1.100
    10   8 O    2.252 --     9 C    1.100    11 C    0.978
    11   6 C    3.932 --    10 O    0.978    39 H    0.977    40 H    0.974
                            38 H    0.974
    12   6 C    3.963 --    13 C    1.402     9 C    1.393    41 H    0.964
    13   6 C    3.956 --     4 C    1.416    12 C    1.402    42 H    0.963
    14   6 C    3.973 --    15 C    0.982    44 H    0.972    43 H    0.969
                             3 C    0.957
    15   6 C    3.987 --    16 C    1.059    14 C    0.982    45 H    0.961
                            46 H    0.927
    16   6 C    3.598 --    17 N    1.407    15 C    1.059    48 H    0.957
    17   7 N    3.483 --    16 C    1.407    30 C    0.998    18 C    0.987
    18   6 C    3.954 --    17 N    0.987    50 H    0.968    19 C    0.967
                            49 H    0.963
    19   6 C    3.966 --    20 C    1.000    51 H    0.974    52 H    0.970
                            18 C    0.967
    20   6 C    3.924 --    29 C    1.415    21 C    1.354    19 C    1.000
    21   6 C    3.879 --    22 C    1.432    20 C    1.354    53 H    0.960
    22   6 C    3.958 --    21 C    1.432    23 C    1.372    54 H    0.959
    23   6 C    3.842 --    22 C    1.372    26 C    1.200    24 O    1.112
    24   8 O    2.259 --    23 C    1.112    25 C    0.971
    25   6 C    3.924 --    57 H    0.977    56 H    0.974    55 H    0.974
                            24 O    0.971
    26   6 C    3.848 --    29 C    1.366    23 C    1.200    27 O    1.037
    27   8 O    2.412 --    28 C    1.280    26 C    1.037
    28   6 C    3.414 --    27 O    1.280    58 H    0.966    59 H    0.958
    29   6 C    2.976 --    20 C    1.415    26 C    1.366
    30   6 C    3.957 --    17 N    0.998    64 H    0.977    62 H    0.966
                            63 H    0.962
    31   6 C    3.973 --    33 C    1.009    32 C    1.008    65 H    0.960
                             3 C    0.943
    32   6 C    3.980 --    31 C    1.008    67 H    0.982    68 H    0.982
                            66 H    0.974
    33   6 C    3.983 --    31 C    1.009    70 H    0.983    71 H    0.980
                            69 H    0.977
    34   1 H    0.996 --     5 C    0.958
    35   1 H    0.994 --     8 C    0.974
    36   1 H    0.993 --     8 C    0.977
    37   1 H    0.994 --     8 C    0.974
    38   1 H    0.993 --    11 C    0.974
    39   1 H    0.993 --    11 C    0.977
    40   1 H    0.994 --    11 C    0.974
    41   1 H    0.996 --    12 C    0.964
    42   1 H    0.998 --    13 C    0.963
    43   1 H    0.995 --    14 C    0.969
    44   1 H    0.996 --    14 C    0.972
    45   1 H    0.995 --    15 C    0.961
    46   1 H    0.970 --    15 C    0.927
    47   1 H    0.987 --     2 C    0.901
    48   1 H    0.995 --    16 C    0.957
    49   1 H    0.990 --    18 C    0.963
    50   1 H    0.995 --    18 C    0.968
    51   1 H    0.997 --    19 C    0.974
    52   1 H    0.994 --    19 C    0.970
    53   1 H    0.986 --    21 C    0.960
    54   1 H    0.989 --    22 C    0.959
    55   1 H    0.993 --    25 C    0.974
    56   1 H    0.993 --    25 C    0.974
    57   1 H    0.992 --    25 C    0.977
    58   1 H    0.990 --    28 C    0.966
    59   1 H    0.993 --    28 C    0.958
    60   1 H    0.999 --    61 H    0.926
    61   1 H    0.957 --    60 H    0.926
    62   1 H    0.985 --    30 C    0.966
    63   1 H    0.987 --    30 C    0.962
    64   1 H    0.993 --    30 C    0.977
    65   1 H    0.993 --    31 C    0.960
    66   1 H    0.991 --    32 C    0.974
    67   1 H    0.997 --    32 C    0.982
    68   1 H    0.994 --    32 C    0.982
    69   1 H    0.993 --    33 C    0.977
    70   1 H    0.997 --    33 C    0.983
    71   1 H    0.994 --    33 C    0.980
    72   1 H    0.971 --     1 N    0.942
 ---------------------------------------------------------------------------

molecular dipole:
                 x           y           z       tot (Debye)
 q only:        1.251      -0.280      -0.554
   full:        1.766      -0.048      -0.752       4.880

           -------------------------------------------------
          | TOTAL ENERGY              -99.253103654227 Eh   |
          | GRADIENT NORM               0.002965064143 Eh/α |
          | HOMO-LUMO GAP               0.673922610283 eV   |
           -------------------------------------------------

 * finished run on 2024/04/06 at 11:13:52.642
