   * xtb version 6.6.1 (8d0f1dd) compiled by 'conda@1efc2f54142f' on 2023-08-01
          program call               : xtb struc.xyz --opt loose --input .xc1 --gfn2

   ID    Z sym.   atoms
    1    6 C      1, 3, 5-7, 10, 11, 14
    2    7 N      2, 4, 9, 13
    3    8 O      8, 12
    4    1 H      15-25
constraining bond 11 21 to    3.7133300 Å, actual value:    2.6553777 Å

          :  Hamiltonian                  GFN2-xTB          :
 * total energy  :   -44.2437635 Eh     change       -0.6633627E-10 Eh
 * total energy  :   -47.8905294 Eh     change       -0.3646766E+01 Eh
 * total energy  :   -53.3624168 Eh     change       -0.5471887E+01 Eh
 * total energy  :   -59.4001647 Eh     change       -0.6037748E+01 Eh
 * total energy  :   -58.2339461 Eh     change        0.1166219E+01 Eh
 * total energy  :   -59.4944913 Eh     change       -0.1260545E+01 Eh
 * total energy  :   -59.5120943 Eh     change       -0.1760296E-01 Eh
 * total energy  :   -59.5453110 Eh     change       -0.3321676E-01 Eh
 * total energy  :   -59.5638315 Eh     change       -0.1852052E-01 Eh
 * total energy  :   -59.5970682 Eh     change       -0.3323666E-01 Eh
 * total energy  :   -59.7285863 Eh     change       -0.7789669E-04 Eh
 * total energy  :   -59.7286553 Eh     change       -0.6902462E-04 Eh
 * total energy  :   -59.7275847 Eh     change        0.1070557E-02 Eh
 * total energy  :   -59.7287536 Eh     change       -0.1168855E-02 Eh
 * total energy  :   -59.7287781 Eh     change       -0.2453185E-04 Eh
 * total energy  :   -59.7288291 Eh     change       -0.5094613E-04 Eh
 * total energy  :   -59.7288582 Eh     change       -0.2908379E-04 Eh
 * total energy  :   -59.7288941 Eh     change       -0.3590586E-04 Eh
 * total energy  :   -59.7289207 Eh     change       -0.2665304E-04 Eh
   *** GEOMETRY OPTIMIZATION CONVERGED AFTER 50 ITERATIONS ***

 final structure:
================
25
 xtb: 6.6.1 (8d0f1dd)
C            3.21216616212115        1.13938144232726        0.07530944337600
N            2.21123018288373        0.10787498704020        0.06175465294785
C            2.43511854479123       -1.18453781313098       -0.00171178722613
N            1.26553911804540       -1.85375009407578        0.03119229663351
C            0.23374744692388       -0.94808899962880        0.12757823466021
C            0.84550828668503        0.32274268359183        0.13246982386325
C            0.19405316360233        1.59857825905233       -0.05363664925192
O            0.72750108449078        2.66703315833733       -0.21242285139270
N           -1.22186228340565        1.41251608496355       -0.09824263174273
C           -2.00930737554427        2.29718206211534       -0.53087852072805
C           -2.03230882036223       -0.17671948343592        0.85003577217040
O           -3.16463471433651       -0.29160177509411        0.42423872152009
N           -1.04666399756434       -1.24448311751163        0.19612440443092
C           -1.59210310379334       -2.53023536415121       -0.15607009808040
H            3.40120514738021        1.46389236267806        1.10142767255349
H            4.13703241368013        0.76433538686153       -0.35859389240391
H            2.85495295473198        2.00390020484678       -0.48561938063126
H            3.39983637451725       -1.64951428546018       -0.07240543970162
H           -1.67170662087776        3.26569797941460       -0.89103026522778
H           -3.06666350957519        2.06086481655746       -0.53746001150804
H           -1.84567475775704       -0.00876509469073        1.19187844080142
H           -1.42480796908170       -3.26980060414226        0.63029999026632
H           -1.17836570557115       -2.88613698810056       -1.09908907887470
H           -2.66652779451912       -2.38500676288292       -0.27796281263178
H            1.16316728663508       -2.85712050388093       -0.01601441592250

          :  Hamiltonian                  GFN2-xTB          :
         :: total energy             -59.728920720585 Eh    ::
         :: gradient norm              0.002921434686 Eh/a0 ::
         :: HOMO-LUMO gap              2.019448789885 eV    ::
         :: SCC energy               -42.692652431324 Eh    ::
         :: -> dispersion             -0.022992445222 Eh    ::
         :: repulsion energy           2.280800735617 Eh    ::

    * Orbital Energies and Occupations

         #    Occupation            Energy/Eh            Energy/eV
      -------------------------------------------------------------
         1        2.0000           -0.9064723             -24.6664
       ...           ...                  ...                  ...
        25        2.0000           -0.6691701             -18.2090
        26        2.0000           -0.6610403             -17.9878
        27        2.0000           -0.6544033             -17.8072
        28        2.0000           -0.6388669             -17.3845
        29        2.0000           -0.6377762             -17.3548
        30        2.0000           -0.6326736             -17.2159
        31        2.0000           -0.6156561             -16.7529
        32        2.0000           -0.6140000             -16.7078
        33        2.0000           -0.6084875             -16.5578
        34        1.9999           -0.5783028             -15.7364
        35        1.9996           -0.5627869             -15.3142
        36        1.9980           -0.5506492             -14.9839
        37        1.9829           -0.5335284             -14.5180 (HOMO)
        38        0.0195           -0.4593151             -12.4986 (LUMO)
        39        0.0001           -0.4153647             -11.3026
        40        0.0000           -0.4014421             -10.9238
        41                         -0.3597615              -9.7896
        42                         -0.3068935              -8.3510
        43                         -0.2362263              -6.4280
        44                         -0.1888355              -5.1385
        45                         -0.1456628              -3.9637
        46                         -0.1012915              -2.7563
        47                         -0.0883307              -2.4036
        48                         -0.0377027              -1.0259
       ...                                ...                  ...
        67                         10.6815446             290.6596
      -------------------------------------------------------------
                  HL-Gap            0.0742134 Eh            2.0194 eV

     #   Z          covCN         q      C6AA      α(0)
     1   6 C        3.693    -0.093    22.470     6.782
     2   7 N        2.832     0.088    19.708     6.593
     3   6 C        3.024     0.061    26.598     8.460
     4   7 N        2.799    -0.070    22.595     7.060
     5   6 C        2.986     0.130    25.155     8.227
     6   6 C        3.100    -0.036    28.778     8.791
     7   6 C        2.773     0.287    22.139     7.706
     8   8 O        0.857    -0.341    20.532     6.075
     9   7 N        2.146    -0.160    25.003     7.419
    10   6 C        2.788     0.067    26.476     8.429
    11   6 C        2.989     0.205    23.661     7.979
    12   8 O        0.863    -0.332    20.361     6.050
    13   7 N        2.710    -0.112    23.437     7.190
    14   6 C        3.693    -0.065    21.936     6.701
    15   1 H        0.924     0.114     1.664     2.018
    16   1 H        0.925     0.100     1.783     2.088
    17   1 H        0.924     0.135     1.501     1.916
    18   1 H        0.926     0.122     1.595     1.975
    19   1 H        0.925     0.116     1.643     2.004
    20   1 H        0.925     0.133     1.514     1.924
    21   1 H        0.938     0.162     1.315     1.793
    22   1 H        0.924     0.072     2.062     2.245
    23   1 H        0.925     0.071     2.071     2.251
    24   1 H        0.924     0.117     1.635     2.000
    25   1 H        0.860     0.227     0.976     1.548

Wiberg/Mayer (AO) data.
largest (>0.10) Wiberg bond orders for each atom

     #   Z sym  total        # sym  WBO       # sym  WBO       # sym  WBO
 ---------------------------------------------------------------------------
     1   6 C    3.920 --     2 N    0.989    16 H    0.973    17 H    0.953
                            15 H    0.952
     2   7 N    3.729 --     3 C    1.445     6 C    1.139     1 C    0.989
     3   6 C    3.933 --     2 N    1.445     4 N    1.277    18 H    0.951
     4   7 N    3.596 --     3 C    1.277     5 C    1.157    25 H    0.919
     5   6 C    3.962 --    13 N    1.347     6 C    1.276     4 N    1.157
     6   6 C    3.909 --     5 C    1.276     2 N    1.139     7 C    1.111
     7   6 C    3.952 --     8 O    1.749     6 C    1.111     9 N    0.985
     8   8 O    2.096 --     7 C    1.749
     9   7 N    3.386 --    10 C    1.871     7 C    0.985    11 C    0.275
                            12 O    0.126
    10   6 C    3.868 --     9 N    1.871    20 H    0.948    19 H    0.943
    11   6 C    3.925 --    12 O    1.825    21 H    0.961    13 N    0.785
                             9 N    0.275
    12   8 O    2.172 --    11 C    1.825    13 N    0.134     9 N    0.126
    13   7 N    3.515 --     5 C    1.347    14 C    0.993    11 C    0.785
                            12 O    0.134
    14   6 C    3.942 --    13 N    0.993    23 H    0.972    22 H    0.967
                            24 H    0.962
    15   1 H    0.987 --     1 C    0.952
    16   1 H    0.989 --     1 C    0.973
    17   1 H    0.982 --     1 C    0.953
    18   1 H    0.984 --     3 C    0.951
    19   1 H    0.985 --    10 C    0.943
    20   1 H    0.981 --    10 C    0.948
    21   1 H    0.973 --    11 C    0.961
    22   1 H    0.991 --    14 C    0.967
    23   1 H    0.993 --    14 C    0.972
    24   1 H    0.985 --    14 C    0.962
    25   1 H    0.948 --     4 N    0.919
 ---------------------------------------------------------------------------

molecular dipole:
                 x           y           z       tot (Debye)
 q only:        2.163      -1.397       0.056
   full:        2.450      -1.621       0.017       7.466

           -------------------------------------------------
          | TOTAL ENERGY              -59.728920720585 Eh   |
          | GRADIENT NORM               0.002921434686 Eh/α |
          | HOMO-LUMO GAP               2.019448789885 eV   |
           -------------------------------------------------

 * finished run on 2024/06/05 at 19:58:15.942
