   * xtb version 6.6.1 (8d0f1dd) compiled by 'conda@1efc2f54142f' on 2023-08-01
          program call               : xtb xtbopt.xyz --opt crude --input .xc2 --gfn2

   ID    Z sym.   atoms
    1    6 C      1, 3, 5-7, 10, 11, 14
    2    7 N      2, 4, 9, 13
    3    8 O      8, 12
    4    1 H      15-25
########################################################################
[WARNING] Please study the warnings concerning your input carefully
-1- readin_getIntValue: could not parse ''
########################################################################

          :  Hamiltonian                  GFN2-xTB          :
 * total energy  :   -40.4116950 Eh     change        0.1421085E-13 Eh
 * total energy  :   -42.0839633 Eh     change       -0.1672268E+01 Eh
 * total energy  :   -42.1274277 Eh     change       -0.4346446E-01 Eh
 * total energy  :   -42.1384853 Eh     change       -0.1105761E-01 Eh
 * total energy  :   -42.1413604 Eh     change       -0.2875048E-02 Eh
 * total energy  :   -42.1417881 Eh     change       -0.4277288E-03 Eh
 * total energy  :   -42.1423934 Eh     change       -0.6052917E-03 Eh
 * total energy  :   -42.1431801 Eh     change       -0.7866670E-03 Eh
 * total energy  :   -42.1438627 Eh     change       -0.6826574E-03 Eh
 * total energy  :   -42.1441590 Eh     change       -0.2962937E-03 Eh
   *** GEOMETRY OPTIMIZATION CONVERGED AFTER 10 ITERATIONS ***

 final structure:
================
25
 xtb: 6.6.1 (8d0f1dd)
C            3.19873208658369        1.13533291069387        0.09891403937711
N            2.20330718785795        0.09982008708924        0.06752102937074
C            2.42675268679804       -1.19481235589726        0.01559938340793
N            1.25577442690325       -1.86231811821903        0.03961035868507
C            0.23240079591068       -0.95299514081782        0.11683174437285
C            0.83922616467423        0.31446521697104        0.11744521158304
C            0.17020523485983        1.58486543502837       -0.12455259070146
O            0.71062133841371        2.64568037873336       -0.30515481363379
N           -1.22603567413158        1.35637599931289       -0.22303913698611
C           -2.04748610151909        2.25069606798904       -0.57043016410427
C           -1.96917508472684       -0.24059398772962        0.76266073238200
O           -3.13963957219882       -0.26823599318727        0.52269636154160
N           -1.06295055540607       -1.23226407374392        0.19728267765974
C           -1.61784437393840       -2.50232898941231       -0.22164012803833
H            3.31439283950601        1.50802651085715        1.11903262594741
H            4.15240763050648        0.74763683189187       -0.25256578205943
H            2.87727406036744        1.97140715077612       -0.52347232861371
H            3.39223893092633       -1.65978235519642       -0.04332409793945
H           -1.75706362684948        3.27325153036408       -0.79204035207684
H           -3.08766493932035        1.96051608103127       -0.64625975040339
H           -1.51118233669828        0.19019508082520        1.66371044232314
H           -1.46181597979934       -3.27525510129444        0.53384153052960
H           -1.18979441873745       -2.81410461599161       -1.17344483163312
H           -2.69016000299593       -2.35148679821902       -0.34679729051951
H            1.14791079711388       -2.86585321025445       -0.00125325257098

          :  Hamiltonian                  GFN2-xTB          :
         :: total energy             -42.144159007133 Eh    ::
         :: gradient norm              0.007125460801 Eh/a0 ::
         :: HOMO-LUMO gap              2.007716939333 eV    ::
         :: SCC energy               -42.681002542701 Eh    ::
         :: -> dispersion             -0.023214686003 Eh    ::
         :: repulsion energy           0.536677916940 Eh    ::

    * Orbital Energies and Occupations

         #    Occupation            Energy/Eh            Energy/eV
      -------------------------------------------------------------
         1        2.0000           -0.9125527             -24.8318
       ...           ...                  ...                  ...
        25        2.0000           -0.6687337             -18.1972
        26        2.0000           -0.6581928             -17.9103
        27        2.0000           -0.6484160             -17.6443
        28        2.0000           -0.6404676             -17.4280
        29        2.0000           -0.6363279             -17.3154
        30        2.0000           -0.6228336             -16.9482
        31        2.0000           -0.6188624             -16.8401
        32        2.0000           -0.6172429             -16.7960
        33        2.0000           -0.6119352             -16.6516
        34        1.9999           -0.5766964             -15.6927
        35        1.9984           -0.5520684             -15.0225
        36        1.9976           -0.5487543             -14.9324
        37        1.9831           -0.5332674             -14.5109 (HOMO)
        38        0.0208           -0.4594851             -12.5032 (LUMO)
        39        0.0001           -0.4183335             -11.3834
        40        0.0000           -0.4022138             -10.9448
        41                         -0.3356007              -9.1322
        42                         -0.3099930              -8.4353
        43                         -0.1944852              -5.2922
        44                         -0.1803053              -4.9064
        45                         -0.1331198              -3.6224
        46                         -0.0891847              -2.4268
        47                         -0.0757548              -2.0614
        48                         -0.0390914              -1.0637
       ...                                ...                  ...
        67                          0.5501139              14.9694
      -------------------------------------------------------------
                  HL-Gap            0.0737822 Eh            2.0077 eV

     #   Z          covCN         q      C6AA      α(0)
     1   6 C        3.693    -0.094    22.475     6.783
     2   7 N        2.835     0.091    19.667     6.587
     3   6 C        3.035     0.060    26.626     8.464
     4   7 N        2.799    -0.063    22.448     7.037
     5   6 C        3.011     0.123    25.276     8.247
     6   6 C        3.105    -0.032    28.666     8.773
     7   6 C        2.774     0.290    22.078     7.696
     8   8 O        0.857    -0.336    20.447     6.063
     9   7 N        2.151    -0.166    25.123     7.437
    10   6 C        2.789     0.068    26.466     8.427
    11   6 C        3.023     0.253    22.743     7.823
    12   8 O        0.856    -0.341    20.531     6.075
    13   7 N        2.730    -0.059    22.376     7.026
    14   6 C        3.695    -0.071    22.031     6.714
    15   1 H        0.924     0.116     1.644     2.005
    16   1 H        0.925     0.102     1.769     2.080
    17   1 H        0.924     0.136     1.493     1.911
    18   1 H        0.926     0.126     1.569     1.959
    19   1 H        0.925     0.113     1.671     2.021
    20   1 H        0.925     0.133     1.514     1.924
    21   1 H        0.923     0.044     2.401     2.423
    22   1 H        0.924     0.077     2.009     2.216
    23   1 H        0.925     0.075     2.032     2.229
    24   1 H        0.925     0.123     1.587     1.970
    25   1 H        0.860     0.231     0.963     1.537

Wiberg/Mayer (AO) data.
largest (>0.10) Wiberg bond orders for each atom

     #   Z sym  total        # sym  WBO       # sym  WBO       # sym  WBO
 ---------------------------------------------------------------------------
     1   6 C    3.919 --     2 N    0.989    16 H    0.973    17 H    0.952
                            15 H    0.951
     2   7 N    3.731 --     3 C    1.441     6 C    1.148     1 C    0.989
     3   6 C    3.931 --     2 N    1.441     4 N    1.279    18 H    0.951
     4   7 N    3.604 --     3 C    1.279     5 C    1.173    25 H    0.918
     5   6 C    3.961 --     6 C    1.304    13 N    1.293     4 N    1.173
     6   6 C    3.917 --     5 C    1.304     2 N    1.148     7 C    1.085
     7   6 C    3.951 --     8 O    1.759     6 C    1.085     9 N    1.006
     8   8 O    2.097 --     7 C    1.759
     9   7 N    3.356 --    10 C    1.852     7 C    1.006    11 C    0.247
                            12 O    0.111
    10   6 C    3.869 --     9 N    1.852    20 H    0.948    19 H    0.944
    11   6 C    3.942 --    12 O    1.778    13 N    0.934    21 H    0.913
                             9 N    0.247
    12   8 O    2.113 --    11 C    1.778     9 N    0.111
    13   7 N    3.549 --     5 C    1.293    14 C    0.976    11 C    0.934
    14   6 C    3.934 --    13 N    0.976    23 H    0.975    22 H    0.969
                            24 H    0.963
    15   1 H    0.986 --     1 C    0.951
    16   1 H    0.989 --     1 C    0.973
    17   1 H    0.981 --     1 C    0.952
    18   1 H    0.983 --     3 C    0.951
    19   1 H    0.985 --    10 C    0.944
    20   1 H    0.981 --    10 C    0.948
    21   1 H    0.995 --    11 C    0.913
    22   1 H    0.991 --    14 C    0.969
    23   1 H    0.993 --    14 C    0.975
    24   1 H    0.984 --    14 C    0.963
    25   1 H    0.946 --     4 N    0.918
 ---------------------------------------------------------------------------

molecular dipole:
                 x           y           z       tot (Debye)
 q only:        2.402      -1.639      -0.142
   full:        2.706      -1.815      -0.108       8.287

           -------------------------------------------------
          | TOTAL ENERGY              -42.144159007133 Eh   |
          | GRADIENT NORM               0.007125460801 Eh/α |
          | HOMO-LUMO GAP               2.007716939333 eV   |
           -------------------------------------------------

 * finished run on 2024/06/05 at 19:58:16.368
