   * xtb version 6.6.1 (8d0f1dd) compiled by 'conda@1efc2f54142f' on 2023-08-01
          program call               : xtb struc.xyz --opt loose --input .xc1 --gfn2

   ID    Z sym.   atoms
    1    6 C      1, 3, 5-7, 10, 11, 14
    2    7 N      2, 4, 9, 13
    3    8 O      8, 12
    4    1 H      15-25
constraining bond 1 3 to    5.0000000 Å, actual value:    2.4701363 Å

          :  Hamiltonian                  GFN2-xTB          :
 * total energy  :   -30.8200778 Eh     change       -0.6650680E-10 Eh
 * total energy  :   -35.0164583 Eh     change       -0.4196380E+01 Eh
 * total energy  :   -38.3467333 Eh     change       -0.3330275E+01 Eh
 * total energy  :   -40.4889888 Eh     change       -0.2142255E+01 Eh
 * total energy  :   -41.4893960 Eh     change       -0.1000407E+01 Eh
 * total energy  :   -41.6940347 Eh     change       -0.2046387E+00 Eh
 * total energy  :   -41.7141106 Eh     change       -0.2007591E-01 Eh
 * total energy  :   -41.7467980 Eh     change       -0.3268734E-01 Eh
 * total energy  :   -41.7993058 Eh     change       -0.5250785E-01 Eh
 * total energy  :   -41.8478768 Eh     change       -0.4857099E-01 Eh
 * total energy  :   -42.0218737 Eh     change       -0.3082748E-01 Eh
 * total energy  :   -42.0492796 Eh     change       -0.2740590E-01 Eh
 * total energy  :   -42.0557293 Eh     change       -0.6449778E-02 Eh
 * total energy  :   -42.0591519 Eh     change       -0.3422550E-02 Eh
 * total energy  :   -42.0603235 Eh     change       -0.1171554E-02 Eh
 * total energy  :   -42.0609569 Eh     change       -0.6334056E-03 Eh
 * total energy  :   -42.0612696 Eh     change       -0.3127465E-03 Eh
 * total energy  :   -42.0613755 Eh     change       -0.1058617E-03 Eh
 * total energy  :   -42.0614139 Eh     change       -0.3846980E-04 Eh
   *** GEOMETRY OPTIMIZATION CONVERGED AFTER 30 ITERATIONS ***

 final structure:
================
25
 xtb: 6.6.1 (8d0f1dd)
C            3.07157766501768        1.82604542934967        0.03596622312563
N            2.44046829355908        0.54843880867413        0.00455346572016
C            2.31234815597184       -3.10118229712712       -0.06156512469118
N            1.22321941441104       -2.42187037404455       -0.01794665233180
C            0.63330221755982       -1.12229841858618       -0.00788490025449
C            1.19166207350067        0.21054993393250       -0.00026558104994
C            0.18201616206121        1.36126343465141       -0.00570035710225
O            0.53733596426919        2.51870586083517       -0.01410410496984
N           -1.14164323207526        1.05569805647929       -0.00264874557019
C           -2.12131831573633        2.13691272122638       -0.00308614971331
C           -1.66671070089355       -0.21183937170691        0.00774636735637
O           -2.85490135036387       -0.39843631682092        0.01954229081765
N           -0.74761703585895       -1.26370035545245        0.00199830001261
C           -1.41178463627301       -2.56789997079406        0.00331494545671
H            3.51153444964189        1.96056267262762        1.02828907986407
H            3.88170760470771        1.79496938282446       -0.69604102545219
H            2.39010313793300        2.65625810841470       -0.18061253578012
H            3.29443712271219       -2.64331102521818       -0.09620459952467
H           -1.59399659129160        3.08682367503807        0.00588955717380
H           -2.74639329191049        2.05740878196178       -0.89199726762704
H           -2.75841774024429        2.04631160833137        0.87610851649395
H           -1.20038850294284       -3.14211887528031        0.90953285762918
H           -1.20970016545222       -3.13833947840526       -0.90710157803488
H           -2.48592700223027       -2.35943436587269        0.01038710441209
H            0.42951781802737       -3.07127908343797        0.01300153193978

          :  Hamiltonian                  GFN2-xTB          :
         :: total energy             -42.061413935454 Eh    ::
         :: gradient norm              0.003165984876 Eh/a0 ::
         :: HOMO-LUMO gap              0.180509922518 eV    ::
         :: SCC energy               -42.556434333239 Eh    ::
         :: -> dispersion             -0.021715986464 Eh    ::
         :: repulsion energy           0.494565668544 Eh    ::

    * Orbital Energies and Occupations

         #    Occupation            Energy/Eh            Energy/eV
      -------------------------------------------------------------
         1        2.0000           -0.8953345             -24.3633
       ...           ...                  ...                  ...
        25        1.9999           -0.6731018             -18.3160
        26        1.9998           -0.6630883             -18.0436
        27        1.9995           -0.6465499             -17.5935
        28        1.9994           -0.6435329             -17.5114
        29        1.9989           -0.6343260             -17.2609
        30        1.9986           -0.6311409             -17.1742
        31        1.9974           -0.6212902             -16.9062
        32        1.9946           -0.6095934             -16.5879
        33        1.9914           -0.6021688             -16.3858
        34        1.9809           -0.5894526             -16.0398
        35        1.9713           -0.5828735             -15.8608
        36        1.6135           -0.5385513             -14.6547
        37        1.3070           -0.5259698             -14.3124 (HOMO)
        38        1.1074           -0.5193362             -14.1319 (LUMO)
        39        0.0382           -0.4535745             -12.3424
        40        0.0019           -0.4059585             -11.0467
        41        0.0005           -0.3843411             -10.4585
        42        0.0000           -0.3058933              -8.3238
        43                         -0.2258891              -6.1468
        44                         -0.2018679              -5.4931
        45                         -0.1629329              -4.4336
        46                         -0.1126964              -3.0666
        47                         -0.0991433              -2.6978
        48                         -0.0723385              -1.9684
       ...                                ...                  ...
        67                          0.5241961              14.2641
      -------------------------------------------------------------
                  HL-Gap            0.0066336 Eh            0.1805 eV

     #   Z          covCN         q      C6AA      α(0)
     1   6 C        3.686    -0.060    21.861     6.693
     2   7 N        1.827    -0.115    24.268     7.300
     3   6 C        1.837    -0.057    32.696     9.238
     4   7 N        2.692    -0.012    21.492     6.885
     5   6 C        2.812     0.082    26.150     8.378
     6   6 C        2.875     0.059    26.667     8.466
     7   6 C        2.771     0.267    22.501     7.769
     8   8 O        0.860    -0.326    20.260     6.035
     9   7 N        2.740    -0.059    22.388     7.027
    10   6 C        3.710    -0.063    21.859     6.682
    11   6 C        2.735     0.318    21.591     7.608
    12   8 O        0.860    -0.357    20.834     6.120
    13   7 N        2.749    -0.056    22.329     7.018
    14   6 C        3.707    -0.091    22.396     6.765
    15   1 H        0.924     0.127     1.558     1.952
    16   1 H        0.924     0.125     1.575     1.962
    17   1 H        0.924     0.155     1.359     1.823
    18   1 H        0.925     0.123     1.593     1.974
    19   1 H        0.925     0.115     1.652     2.010
    20   1 H        0.925     0.107     1.719     2.050
    21   1 H        0.925     0.108     1.715     2.048
    22   1 H        0.924     0.098     1.803     2.100
    23   1 H        0.924     0.098     1.801     2.098
    24   1 H        0.924     0.150     1.392     1.845
    25   1 H        0.860     0.264     0.831     1.428

Wiberg/Mayer (AO) data.
largest (>0.10) Wiberg bond orders for each atom

     #   Z sym  total        # sym  WBO       # sym  WBO       # sym  WBO
 ---------------------------------------------------------------------------
     1   6 C    3.840 --     2 N    1.093    16 H    0.921    15 H    0.911
                            17 H    0.857
     2   7 N    2.811 --     6 C    1.580     1 C    1.093
     3   6 C    2.693 --     4 N    1.653    18 H    0.917
     4   7 N    3.641 --     3 C    1.653     5 C    1.062    25 H    0.830
     5   6 C    3.632 --     6 C    1.207    13 N    1.186     4 N    1.062
     6   6 C    3.912 --     2 N    1.580     5 C    1.207     7 C    0.917
     7   6 C    3.888 --     8 O    1.686     9 N    1.181     6 C    0.917
     8   8 O    2.020 --     7 C    1.686     9 N    0.134
     9   7 N    3.552 --     7 C    1.181    11 C    1.105    10 C    0.958
                             8 O    0.134    12 O    0.115
    10   6 C    3.891 --    19 H    0.967    21 H    0.960    20 H    0.959
                             9 N    0.958
    11   6 C    3.940 --    12 O    1.680     9 N    1.105    13 N    1.072
    12   8 O    2.002 --    11 C    1.680     9 N    0.115    13 N    0.113
    13   7 N    3.471 --     5 C    1.186    11 C    1.072    14 C    0.977
                            12 O    0.113
    14   6 C    3.911 --    13 N    0.977    23 H    0.953    22 H    0.951
                            24 H    0.937
    15   1 H    0.946 --     1 C    0.911
    16   1 H    0.947 --     1 C    0.921
    17   1 H    0.904 --     1 C    0.857
    18   1 H    0.934 --     3 C    0.917
    19   1 H    0.984 --    10 C    0.967
    20   1 H    0.980 --    10 C    0.959
    21   1 H    0.980 --    10 C    0.960
    22   1 H    0.980 --    14 C    0.951
    23   1 H    0.981 --    14 C    0.953
    24   1 H    0.974 --    14 C    0.937
    25   1 H    0.907 --     4 N    0.830
 ---------------------------------------------------------------------------

molecular dipole:
                 x           y           z       tot (Debye)
 q only:        1.283      -1.411       0.014
   full:        1.309      -1.219       0.024       4.546

           -------------------------------------------------
          | TOTAL ENERGY              -42.061413935454 Eh   |
          | GRADIENT NORM               0.003165984876 Eh/α |
          | HOMO-LUMO GAP               0.180509922518 eV   |
           -------------------------------------------------

 * finished run on 2024/06/05 at 19:57:48.658
