   * xtb version 6.6.1 (8d0f1dd) compiled by 'conda@1efc2f54142f' on 2023-08-01
          program call               : xtb xtbopt.xyz --opt crude --input .xc2 --gfn2

   ID    Z sym.   atoms
    1    6 C      1, 3, 5-7, 10, 11, 14
    2    7 N      2, 4, 9, 13
    3    8 O      8, 12
    4    1 H      15-25
########################################################################
[WARNING] Please study the warnings concerning your input carefully
-1- readin_getIntValue: could not parse ''
########################################################################

          :  Hamiltonian                  GFN2-xTB          :
 * total energy  :   -42.1883630 Eh     change       -0.1890044E-11 Eh
   *** GEOMETRY OPTIMIZATION CONVERGED AFTER 1 ITERATIONS ***

 final structure:
================
25
 xtb: 6.6.1 (8d0f1dd)
C            3.10382987946163        1.21951345435584       -0.04997941032682
N            2.17635909057237        0.12121371252837       -0.06714231170046
C            2.50066212650686       -1.18620201227827       -0.05962651266175
N            1.37288249345920       -1.93394109151634       -0.02884288545287
C            0.30606671348794       -1.09299227464842       -0.01390104281915
C            0.80056639060713        0.21648552750361       -0.03740127907948
C           -0.08401259480152        1.28900216239237       -0.03227600251361
O            0.32333009268681        2.57162153551500       -0.01531589124697
N           -1.43279303352709        1.00578447636305       -0.02270176985431
C           -2.35813234686117        1.97817955512251       -0.05681627821756
C           -1.94678207898719       -0.33907275393032        0.05627229960346
O           -3.12973800497850       -0.53297657505611        0.11711443804981
N           -1.02300528504365       -1.36517342463695        0.04583487087233
C           -1.49909144480240       -2.73589365030386        0.09280563081862
H            3.50658214411967        1.36409341198148        0.95488181457278
H            3.92822110509874        1.02189287805040       -0.73364458309415
H            2.58646512156852        2.12647662288586       -0.35312898330961
H            3.49752389228267       -1.57223972871941       -0.07448782748967
H           -0.42735652945840        3.13681721494253        0.22978493559506
H           -2.11457228184107        2.99158700928166       -0.30275340768994
H           -3.37536301044389        1.69831006356918        0.09006437026481
H           -1.14266995790721       -3.22903605082317        0.99737287407574
H           -1.16526031212920       -3.28182014052023       -0.78991554742908
H           -2.58734554883031       -2.71113505743928        0.10688205639960
H            1.34406489386009       -2.94225632301950       -0.02190793946670

          :  Hamiltonian                  GFN2-xTB          :
         :: total energy             -42.188363012173 Eh    ::
         :: gradient norm              0.006695138113 Eh/a0 ::
         :: HOMO-LUMO gap              1.470393348862 eV    ::
         :: SCC energy               -42.710846471286 Eh    ::
         :: -> dispersion             -0.022964054329 Eh    ::
         :: repulsion energy           0.522367312501 Eh    ::

    * Orbital Energies and Occupations

         #    Occupation            Energy/Eh            Energy/eV
      -------------------------------------------------------------
         1        2.0000           -0.8906519             -24.2359
       ...           ...                  ...                  ...
        25        2.0000           -0.6676200             -18.1669
        26        2.0000           -0.6611349             -17.9904
        27        2.0000           -0.6582458             -17.9118
        28        2.0000           -0.6448292             -17.5467
        29        2.0000           -0.6259365             -17.0326
        30        2.0000           -0.6220822             -16.9277
        31        2.0000           -0.6173694             -16.7995
        32        1.9999           -0.6110782             -16.6283
        33        1.9999           -0.6049864             -16.4625
        34        1.9999           -0.6028702             -16.4049
        35        1.9992           -0.5713776             -15.5480
        36        1.9972           -0.5520648             -15.0224
        37        1.6657           -0.4735336             -12.8855 (HOMO)
        38        0.2820           -0.4194976             -11.4151 (LUMO)
        39        0.0449           -0.3883526             -10.5676
        40        0.0114           -0.3663509              -9.9689
        41        0.0001           -0.2815963              -7.6626
        42        0.0000           -0.1977803              -5.3819
        43        0.0000           -0.1824420              -4.9645
        44                         -0.1450560              -3.9472
        45                         -0.1241315              -3.3778
        46                         -0.1030551              -2.8043
        47                         -0.0640009              -1.7416
        48                         -0.0433475              -1.1795
       ...                                ...                  ...
        67                          0.5346565              14.5487
      -------------------------------------------------------------
                  HL-Gap            0.0540360 Eh            1.4704 eV

     #   Z          covCN         q      C6AA      α(0)
     1   6 C        3.690    -0.087    22.359     6.767
     2   7 N        2.822     0.050    20.369     6.703
     3   6 C        3.034     0.030    27.288     8.568
     4   7 N        2.778    -0.057    22.342     7.020
     5   6 C        3.046     0.083    26.105     8.380
     6   6 C        3.084     0.001    27.900     8.659
     7   6 C        2.786     0.150    24.729     8.146
     8   8 O        1.659    -0.365    20.181     6.064
     9   7 N        2.741    -0.011    21.476     6.883
    10   6 C        2.815    -0.086    30.131     8.994
    11   6 C        2.740     0.303    21.850     7.653
    12   8 O        0.859    -0.360    20.895     6.129
    13   7 N        2.736    -0.050    22.211     7.000
    14   6 C        3.700    -0.072    22.046     6.715
    15   1 H        0.924     0.098     1.803     2.100
    16   1 H        0.925     0.097     1.812     2.105
    17   1 H        0.925     0.118     1.629     1.996
    18   1 H        0.927     0.113     1.673     2.022
    19   1 H        0.804     0.342     0.608     1.225
    20   1 H        0.926     0.078     1.998     2.211
    21   1 H        0.927     0.112     1.678     2.025
    22   1 H        0.925     0.083     1.950     2.184
    23   1 H        0.924     0.082     1.959     2.189
    24   1 H        0.925     0.124     1.578     1.964
    25   1 H        0.860     0.223     0.998     1.565

Wiberg/Mayer (AO) data.
largest (>0.10) Wiberg bond orders for each atom

     #   Z sym  total        # sym  WBO       # sym  WBO       # sym  WBO
 ---------------------------------------------------------------------------
     1   6 C    3.930 --     2 N    0.991    16 H    0.969    17 H    0.967
                            15 H    0.960
     2   7 N    3.591 --     3 C    1.299     6 C    1.133     1 C    0.991
     3   6 C    3.720 --     2 N    1.299     4 N    1.260    18 H    0.957
     4   7 N    3.565 --     3 C    1.260     5 C    1.200    25 H    0.922
     5   6 C    3.866 --     6 C    1.266     4 N    1.200    13 N    1.159
     6   6 C    3.939 --     7 C    1.279     5 C    1.266     2 N    1.133
     7   6 C    3.752 --     6 C    1.279     9 N    1.134     8 O    1.098
                            10 C    0.131
     8   8 O    2.102 --     7 C    1.098    19 H    0.836
     9   7 N    3.636 --    10 C    1.305     7 C    1.134    11 C    0.980
    10   6 C    3.539 --     9 N    1.305    21 H    0.963    20 H    0.958
                             7 C    0.131
    11   6 C    3.908 --    12 O    1.699    13 N    1.119     9 N    0.980
    12   8 O    2.033 --    11 C    1.699    13 N    0.147
    13   7 N    3.543 --     5 C    1.159    11 C    1.119    14 C    0.972
                            12 O    0.147
    14   6 C    3.927 --    23 H    0.972    13 N    0.972    22 H    0.971
                            24 H    0.966
    15   1 H    0.983 --     1 C    0.960
    16   1 H    0.987 --     1 C    0.969
    17   1 H    0.985 --     1 C    0.967
    18   1 H    0.986 --     3 C    0.957
    19   1 H    0.882 --     8 O    0.836
    20   1 H    0.993 --    10 C    0.958
    21   1 H    0.987 --    10 C    0.963
    22   1 H    0.990 --    14 C    0.971
    23   1 H    0.991 --    14 C    0.972
    24   1 H    0.984 --    14 C    0.966
    25   1 H    0.950 --     4 N    0.922
 ---------------------------------------------------------------------------

molecular dipole:
                 x           y           z       tot (Debye)
 q only:        2.207      -0.783       0.066
   full:        2.326      -0.925       0.086       6.365

           -------------------------------------------------
          | TOTAL ENERGY              -42.188363012173 Eh   |
          | GRADIENT NORM               0.006695138113 Eh/α |
          | HOMO-LUMO GAP               1.470393348862 eV   |
           -------------------------------------------------

 * finished run on 2024/06/05 at 20:00:22.207
