   * xtb version 6.6.1 (8d0f1dd) compiled by 'conda@1efc2f54142f' on 2023-08-01
          program call               : xtb xtbopt.xyz --opt crude --input .xc2 --gfn2

   ID    Z sym.   atoms
    1    6 C      1, 3, 5-7, 10, 11, 14
    2    7 N      2, 4, 9, 13
    3    8 O      8, 12
    4    1 H      15-25

          :  Hamiltonian                  GFN2-xTB          :
 * total energy  :   -42.0345934 Eh     change       -0.2795986E-10 Eh
   *** GEOMETRY OPTIMIZATION CONVERGED AFTER 1 ITERATIONS ***

 final structure:
================
25
 xtb: 6.6.1 (8d0f1dd)
C            3.14820748158960        1.03306949547351        0.05060210001513
N            2.25427401190157       -0.09028836714893        0.02341759356299
C            2.56764801516939       -1.38173519014867       -0.00591108611012
N            1.44231223324501       -2.13560398252314       -0.01596622621947
C            0.37617719804841       -1.29498009913738        0.01026367667558
C            0.88021071211124        0.01863326184960        0.03553605769646
C            0.05380696786452        1.12603055886706        0.04482842005930
O           -0.86269794781643        4.32936510581285       -0.06214605720755
N           -1.27782998826656        0.86383876511572        0.04028347429621
C           -2.14130286655531        1.86785332585482        0.03611738323765
C           -1.84866604547983       -0.48247734838780        0.03725655861767
O           -3.03475456680199       -0.64112360492549        0.05456462961718
N           -0.95157666814216       -1.54101356126039        0.00943819290761
C           -1.47011312697520       -2.89809981066498       -0.02675157182619
H            3.49316291173980        1.22201559126822        1.06836356842619
H            4.01077205722586        0.84811558927665       -0.58658901900762
H            2.60417669989419        1.90998868007331       -0.29653757831629
H            3.56274883313441       -1.78012813166570       -0.02136940435275
H           -1.31712516081847        5.14683758320781       -0.27392525044441
H           -3.19596986345197        1.65099595762436        0.02833577131072
H           -1.72013720620458        2.89188250903319        0.02781559920985
H           -1.09733978761079       -3.46746978297854        0.82449378602563
H           -1.18460353817854       -3.38615136909324       -0.95934349345348
H           -2.55615110827421       -2.84520730419373        0.02802218762957
H            1.42520226673262       -3.14610932975352       -0.03962769446366

          :  Hamiltonian                  GFN2-xTB          :
         :: total energy             -42.034593357438 Eh    ::
         :: gradient norm              0.002004452225 Eh/a0 ::
         :: HOMO-LUMO gap              0.487186891207 eV    ::
         :: SCC energy               -42.549614173184 Eh    ::
         :: -> dispersion             -0.021550395612 Eh    ::
         :: repulsion energy           0.514957077930 Eh    ::

    * Orbital Energies and Occupations

         #    Occupation            Energy/Eh            Energy/eV
      -------------------------------------------------------------
         1        2.0000           -0.9099186             -24.7601
       ...           ...                  ...                  ...
        25        2.0000           -0.6582438             -17.9117
        26        2.0000           -0.6574999             -17.8915
        27        1.9998           -0.6350387             -17.2803
        28        1.9998           -0.6303451             -17.1526
        29        1.9997           -0.6276247             -17.0785
        30        1.9996           -0.6218304             -16.9209
        31        1.9995           -0.6166642             -16.7803
        32        1.9985           -0.5999418             -16.3252
        33        1.9972           -0.5899755             -16.0540
        34        1.9904           -0.5703002             -15.5187
        35        1.6737           -0.5116627             -13.9231
        36        1.6242           -0.5089533             -13.8493
        37        1.5613           -0.5058776             -13.7656 (HOMO)
        38        1.0693           -0.4879738             -13.2784 (LUMO)
        39        0.0739           -0.4341394             -11.8135
        40        0.0107           -0.4030432             -10.9674
        41        0.0025           -0.3797425             -10.3333
        42        0.0000           -0.2875954              -7.8259
        43                         -0.2078826              -5.6568
        44                         -0.1961900              -5.3386
        45                         -0.1520752              -4.1382
        46                         -0.1196511              -3.2559
        47                         -0.0799789              -2.1763
        48                         -0.0567745              -1.5449
       ...                                ...                  ...
        67                          0.5283783              14.3779
      -------------------------------------------------------------
                  HL-Gap            0.0179038 Eh            0.4872 eV

     #   Z          covCN         q      C6AA      α(0)
     1   6 C        3.692    -0.093    22.465     6.782
     2   7 N        2.825     0.072    19.986     6.640
     3   6 C        3.051     0.052    26.782     8.487
     4   7 N        2.780    -0.055    22.303     7.014
     5   6 C        3.048     0.101    25.727     8.319
     6   6 C        3.108     0.029    27.222     8.548
     7   6 C        1.950    -0.093    33.628     9.365
     8   8 O        0.806    -0.523    24.332     6.612
     9   7 N        2.749     0.069    20.036     6.648
    10   6 C        2.828    -0.029    28.708     8.780
    11   6 C        2.735     0.303    21.849     7.653
    12   8 O        0.858    -0.335    20.418     6.058
    13   7 N        2.736    -0.035    21.929     6.955
    14   6 C        3.699    -0.073    22.068     6.719
    15   1 H        0.924     0.112     1.679     2.026
    16   1 H        0.925     0.104     1.750     2.069
    17   1 H        0.925     0.130     1.537     1.939
    18   1 H        0.926     0.121     1.604     1.981
    19   1 H        0.805     0.287     0.763     1.372
    20   1 H        0.926     0.130     1.536     1.938
    21   1 H        0.922     0.204     1.078     1.624
    22   1 H        0.925     0.085     1.927     2.171
    23   1 H        0.924     0.086     1.914     2.163
    24   1 H        0.925     0.125     1.575     1.963
    25   1 H        0.860     0.226     0.984     1.554

Wiberg/Mayer (AO) data.
largest (>0.10) Wiberg bond orders for each atom

     #   Z sym  total        # sym  WBO       # sym  WBO       # sym  WBO
 ---------------------------------------------------------------------------
     1   6 C    3.918 --     2 N    0.989    16 H    0.968    17 H    0.964
                            15 H    0.952
     2   7 N    3.648 --     3 C    1.386     6 C    1.126     1 C    0.989
     3   6 C    3.813 --     2 N    1.386     4 N    1.267    18 H    0.954
     4   7 N    3.592 --     3 C    1.267     5 C    1.205    25 H    0.919
     5   6 C    3.818 --     6 C    1.239     4 N    1.205    13 N    1.194
     6   6 C    3.911 --     7 C    1.324     5 C    1.239     2 N    1.126
     7   6 C    2.695 --     6 C    1.324     9 N    1.203
     8   8 O    1.023 --    19 H    0.914
     9   7 N    3.710 --    10 C    1.408     7 C    1.203    11 C    0.942
    10   6 C    3.347 --     9 N    1.408    20 H    0.954    21 H    0.846
    11   6 C    3.897 --    12 O    1.739    13 N    1.113     9 N    0.942
    12   8 O    2.046 --    11 C    1.739    13 N    0.142
    13   7 N    3.567 --     5 C    1.194    11 C    1.113    14 C    0.968
                            12 O    0.142
    14   6 C    3.920 --    22 H    0.971    23 H    0.970    13 N    0.968
                            24 H    0.966
    15   1 H    0.981 --     1 C    0.952
    16   1 H    0.986 --     1 C    0.968
    17   1 H    0.982 --     1 C    0.964
    18   1 H    0.984 --     3 C    0.954
    19   1 H    0.917 --     8 O    0.914
    20   1 H    0.977 --    10 C    0.954
    21   1 H    0.954 --    10 C    0.846
    22   1 H    0.990 --    14 C    0.971
    23   1 H    0.990 --    14 C    0.970
    24   1 H    0.984 --    14 C    0.966
    25   1 H    0.947 --     4 N    0.919
 ---------------------------------------------------------------------------

molecular dipole:
                 x           y           z       tot (Debye)
 q only:        2.351      -2.516      -0.085
   full:        2.416      -3.016      -0.133       9.830

           -------------------------------------------------
          | TOTAL ENERGY              -42.034593357438 Eh   |
          | GRADIENT NORM               0.002004452225 Eh/α |
          | HOMO-LUMO GAP               0.487186891207 eV   |
           -------------------------------------------------

 * finished run on 2024/06/05 at 20:00:13.003
