   * xtb version 6.6.1 (8d0f1dd) compiled by 'conda@1efc2f54142f' on 2023-08-01
          program call               : xtb struc.xyz --opt loose --input .xc1 --gfn2

   ID    Z sym.   atoms
    1    6 C      1, 3, 5-7, 10, 11, 14
    2    7 N      2, 4, 9, 13
    3    8 O      8, 12
    4    1 H      15-25
constraining bond 4 18 to    4.0600000 Å, actual value:    2.1494719 Å

          :  Hamiltonian                  GFN2-xTB          :
 * total energy  :   -29.2130546 Eh     change       -0.6650680E-10 Eh
 * total energy  :   -35.8925060 Eh     change       -0.6679451E+01 Eh
 * total energy  :   -39.8359883 Eh     change       -0.3943482E+01 Eh
 * total energy  :   -41.5629538 Eh     change       -0.1726965E+01 Eh
 * total energy  :   -41.9011996 Eh     change       -0.3382458E+00 Eh
 * total energy  :   -41.9189588 Eh     change       -0.1775915E-01 Eh
 * total energy  :   -41.9291902 Eh     change       -0.1023139E-01 Eh
 * total energy  :   -41.9397131 Eh     change       -0.1052292E-01 Eh
 * total energy  :   -41.9523737 Eh     change       -0.1266061E-01 Eh
 * total energy  :   -41.9630377 Eh     change       -0.1066400E-01 Eh
 * total energy  :   -42.0413062 Eh     change       -0.6450614E-02 Eh
 * total energy  :   -42.0450251 Eh     change       -0.3718856E-02 Eh
 * total energy  :   -42.0479476 Eh     change       -0.2922482E-02 Eh
 * total energy  :   -42.0619495 Eh     change       -0.1400194E-01 Eh
 * total energy  :   -42.0701845 Eh     change       -0.8235000E-02 Eh
 * total energy  :   -42.0726420 Eh     change       -0.2457451E-02 Eh
 * total energy  :   -42.0733168 Eh     change       -0.6747984E-03 Eh
 * total energy  :   -42.0734457 Eh     change       -0.1289789E-03 Eh
 * total energy  :   -42.0734703 Eh     change       -0.2458711E-04 Eh
   *** GEOMETRY OPTIMIZATION CONVERGED AFTER 27 ITERATIONS ***

 final structure:
================
25
 xtb: 6.6.1 (8d0f1dd)
C            3.06394535505175        1.25355590890045        0.02261733513292
N            2.36999039869888       -0.04937901816905       -0.00834732242064
C            3.21741110429768       -1.01933309350390       -0.01803071779654
N            0.68571741510430       -2.60564890675124       -0.00911496963499
C            0.24440126146430       -1.40234294398435       -0.00398456383985
C            0.97145960434437       -0.13044239455082       -0.00414868618130
C            0.17472555404133        1.09358893963230       -0.01079081538701
O            0.62397924733278        2.23450187392333       -0.02781095912410
N           -1.20027571001460        0.96567255106675        0.00038539813846
C           -2.01270706639497        2.16855703864546       -0.00094978118240
C           -1.90668238794401       -0.21985850218726        0.00671949525552
O           -3.11052475760753       -0.23881490502352        0.01393868657212
N           -1.13801473302717       -1.35877938824745        0.00235665887846
C           -1.83714935145826       -2.62612203072563        0.00098245757013
H            3.52761752802907        1.39498638573827        0.99981456714520
H            3.82678007807219        1.28494748732688       -0.75427465880279
H            2.36115532614796        2.07404794346936       -0.14547092838509
H            4.30953074130439       -0.78792142056826       -0.01519968194708
H           -1.36027743649479        3.03891302236580        0.00649532395523
H           -2.64966168117276        2.17886383202148       -0.88724399345468
H           -2.66195062712858        2.17100745732379        0.87621902473831
H           -1.55532110043586       -3.20972898013998        0.87830164667944
H           -1.56757283240673       -3.20081461591408       -0.88616307383203
H           -2.90737610344349       -2.42557771479128        0.00914742806384
H            1.69123168773978       -2.76563998425714       -0.01427625224113

          :  Hamiltonian                  GFN2-xTB          :
         :: total energy             -42.073470324441 Eh    ::
         :: gradient norm              0.001639362421 Eh/a0 ::
         :: HOMO-LUMO gap              0.373274561731 eV    ::
         :: SCC energy               -42.569529871110 Eh    ::
         :: -> dispersion             -0.022237517485 Eh    ::
         :: repulsion energy           0.495823614912 Eh    ::

    * Orbital Energies and Occupations

         #    Occupation            Energy/Eh            Energy/eV
      -------------------------------------------------------------
         1        2.0000           -0.8955392             -24.3689
       ...           ...                  ...                  ...
        25        1.9997           -0.6769042             -18.4195
        26        1.9989           -0.6566768             -17.8691
        27        1.9983           -0.6502895             -17.6953
        28        1.9977           -0.6452064             -17.5570
        29        1.9949           -0.6328391             -17.2204
        30        1.9911           -0.6240424             -16.9811
        31        1.9888           -0.6203536             -16.8807
        32        1.9474           -0.5955712             -16.2063
        33        1.9153           -0.5877452             -15.9934
        34        1.8871           -0.5829703             -15.8634
        35        1.8320           -0.5762015             -15.6792
        36        1.8135           -0.5743931             -15.6300
        37        1.5045           -0.5559600             -15.1284 (HOMO)
        38        1.1215           -0.5422424             -14.7552 (LUMO)
        39        0.0097           -0.4540661             -12.3558
        40        0.0005           -0.4074101             -11.0862
        41        0.0001           -0.3858578             -10.4997
        42        0.0000           -0.3027301              -8.2377
        43                         -0.2282899              -6.2121
        44                         -0.1762139              -4.7950
        45                         -0.1493174              -4.0631
        46                         -0.1163903              -3.1671
        47                         -0.0698069              -1.8995
        48                         -0.0517988              -1.4095
       ...                                ...                  ...
        67                          0.5081455              13.8273
      -------------------------------------------------------------
                  HL-Gap            0.0137176 Eh            0.3733 eV

     #   Z          covCN         q      C6AA      α(0)
     1   6 C        3.751    -0.101    22.486     6.763
     2   7 N        2.728     0.135    18.950     6.465
     3   6 C        1.913    -0.065    32.857     9.257
     4   7 N        1.810    -0.245    27.223     7.730
     5   6 C        2.825     0.160    24.530     8.115
     6   6 C        2.892    -0.020    28.499     8.753
     7   6 C        2.767     0.265    22.523     7.772
     8   8 O        0.861    -0.358    20.863     6.124
     9   7 N        2.745    -0.059    22.391     7.028
    10   6 C        3.710    -0.063    21.851     6.681
    11   6 C        2.724     0.320    21.564     7.602
    12   8 O        0.860    -0.332    20.374     6.052
    13   7 N        2.777    -0.030    21.829     6.939
    14   6 C        3.711    -0.076    22.093     6.717
    15   1 H        0.924     0.112     1.679     2.026
    16   1 H        0.925     0.110     1.696     2.037
    17   1 H        0.924     0.173     1.247     1.746
    18   1 H        0.920     0.137     1.483     1.904
    19   1 H        0.925     0.125     1.574     1.962
    20   1 H        0.924     0.118     1.634     1.999
    21   1 H        0.924     0.118     1.631     1.997
    22   1 H        0.924     0.121     1.602     1.979
    23   1 H        0.924     0.121     1.603     1.980
    24   1 H        0.925     0.129     1.541     1.941
    25   1 H        0.860     0.204     1.085     1.632

Wiberg/Mayer (AO) data.
largest (>0.10) Wiberg bond orders for each atom

     #   Z sym  total        # sym  WBO       # sym  WBO       # sym  WBO
 ---------------------------------------------------------------------------
     1   6 C    3.788 --    16 H    0.960    15 H    0.957     2 N    0.923
                            17 H    0.874
     2   7 N    3.727 --     3 C    1.623     6 C    1.134     1 C    0.923
     3   6 C    2.796 --     2 N    1.623    18 H    0.907
     4   7 N    2.750 --     5 C    1.619    25 H    0.900
     5   6 C    3.956 --     4 N    1.619    13 N    1.126     6 C    1.111
     6   6 C    3.597 --     2 N    1.134     7 C    1.117     5 C    1.111
     7   6 C    3.937 --     8 O    1.583     9 N    1.131     6 C    1.117
     8   8 O    1.922 --     7 C    1.583     9 N    0.111
     9   7 N    3.483 --     7 C    1.131    11 C    1.091    10 C    0.979
                             8 O    0.111    12 O    0.106
    10   6 C    3.861 --     9 N    0.979    19 H    0.956    21 H    0.941
                            20 H    0.941
    11   6 C    3.957 --    12 O    1.668    13 N    1.114     9 N    1.091
    12   8 O    1.970 --    11 C    1.668    13 N    0.112     9 N    0.106
    13   7 N    3.485 --     5 C    1.126    11 C    1.114    14 C    0.983
                            12 O    0.112
    14   6 C    3.860 --    13 N    0.983    24 H    0.954    22 H    0.938
                            23 H    0.938
    15   1 H    0.982 --     1 C    0.957
    16   1 H    0.981 --     1 C    0.960
    17   1 H    0.939 --     1 C    0.874
    18   1 H    0.935 --     3 C    0.907
    19   1 H    0.976 --    10 C    0.956
    20   1 H    0.958 --    10 C    0.941
    21   1 H    0.959 --    10 C    0.941
    22   1 H    0.956 --    14 C    0.938
    23   1 H    0.956 --    14 C    0.938
    24   1 H    0.974 --    14 C    0.954
    25   1 H    0.948 --     4 N    0.900
 ---------------------------------------------------------------------------

molecular dipole:
                 x           y           z       tot (Debye)
 q only:        1.673      -0.610       0.006
   full:        2.159      -0.360       0.016       5.563

           -------------------------------------------------
          | TOTAL ENERGY              -42.073470324441 Eh   |
          | GRADIENT NORM               0.001639362421 Eh/α |
          | HOMO-LUMO GAP               0.373274561731 eV   |
           -------------------------------------------------

 * finished run on 2024/06/05 at 19:59:10.823
