   * xtb version 6.6.1 (8d0f1dd) compiled by 'conda@1efc2f54142f' on 2023-08-01
          program call               : xtb xtbopt.xyz --opt crude --input .xc2 --gfn2

   ID    Z sym.   atoms
    1    6 C      1, 3, 5-7, 10, 11, 14
    2    7 N      2, 4, 9, 13
    3    8 O      8, 12
    4    1 H      15-25
########################################################################
[WARNING] Please study the warnings concerning your input carefully
-1- readin_getIntValue: could not parse ''
########################################################################

          :  Hamiltonian                  GFN2-xTB          :
 * total energy  :   -42.0735922 Eh     change       -0.1555378E-10 Eh
 * total energy  :   -42.0827856 Eh     change       -0.9193370E-02 Eh
 * total energy  :   -42.0915644 Eh     change       -0.8778871E-02 Eh
 * total energy  :   -42.0953497 Eh     change       -0.3785290E-02 Eh
 * total energy  :   -42.0969193 Eh     change       -0.1569597E-02 Eh
 * total energy  :   -42.0976729 Eh     change       -0.7535683E-03 Eh
 * total energy  :   -42.0979048 Eh     change       -0.2319043E-03 Eh
 * total energy  :   -42.0980873 Eh     change       -0.1824509E-03 Eh
   *** GEOMETRY OPTIMIZATION CONVERGED AFTER 8 ITERATIONS ***

 final structure:
================
25
 xtb: 6.6.1 (8d0f1dd)
C            3.11366137337557        1.14258336678860        0.02759338375913
N            2.27483559781059       -0.05045452173394       -0.00963816771220
C            2.86349892365136       -1.19731557394931       -0.03236767135695
N            0.93802409170593       -2.36778900420032       -0.01495844834696
C            0.26356232343027       -1.27419288745371       -0.00388424911850
C            0.90837224137589        0.01562571272999       -0.00145549251698
C            0.12037399628179        1.23192719899640       -0.01469208964567
O            0.57828362013929        2.35855827226987       -0.04060326081769
N           -1.25110287874465        1.02232079115725        0.00026674714272
C           -2.12480095637708        2.18273180709461       -0.00321702505458
C           -1.89976943530923       -0.20038585899775        0.01178499888657
O           -3.09858313342514       -0.28189448261955        0.02357240657290
N           -1.09356005165645       -1.33269720038293        0.00620137160176
C           -1.71958868342513       -2.64037150168869        0.00548629533931
H            3.56895938878464        1.23739200991173        1.01430867216439
H            3.90364850513753        1.06694357304947       -0.71793770768792
H            2.50535730178541        2.02849375775899       -0.16383484888486
H            3.91452892511372       -1.40762615911563       -0.02431316615235
H           -1.51041403592701        3.08035437082524        0.00464307802086
H           -2.75925223758660        2.16495895240617       -0.89083108879690
H           -2.77374945150457        2.15659261478773        0.87341769795875
H           -1.39930699453344       -3.20084941706985        0.88472842100690
H           -1.41409961951743       -3.19263545228330       -0.88420443210038
H           -2.79938759315683       -2.50630839369452        0.01502420924032
H            2.05094029667166       -2.21772343298670       -0.03391801560168

          :  Hamiltonian                  GFN2-xTB          :
         :: total energy             -42.098087258427 Eh    ::
         :: gradient norm              0.006099318048 Eh/a0 ::
         :: HOMO-LUMO gap              1.362862292769 eV    ::
         :: SCC energy               -42.605269870351 Eh    ::
         :: -> dispersion             -0.022442185467 Eh    ::
         :: repulsion energy           0.507065633562 Eh    ::

    * Orbital Energies and Occupations

         #    Occupation            Energy/Eh            Energy/eV
      -------------------------------------------------------------
         1        2.0000           -0.8968600             -24.4048
       ...           ...                  ...                  ...
        25        1.9998           -0.6747259             -18.3602
        26        1.9993           -0.6566288             -17.8678
        27        1.9990           -0.6504910             -17.7008
        28        1.9985           -0.6441901             -17.5293
        29        1.9974           -0.6358528             -17.3024
        30        1.9941           -0.6227915             -16.9470
        31        1.9907           -0.6156151             -16.7517
        32        1.9831           -0.6060511             -16.4915
        33        1.9557           -0.5906061             -16.0712
        34        1.9336           -0.5840117             -15.8918
        35        1.9102           -0.5790338             -15.7563
        36        1.8740           -0.5733686             -15.6022
        37        1.7931           -0.5648215             -15.3696 (HOMO)
        38        0.5365           -0.5147372             -14.0067 (LUMO)
        39        0.0346           -0.4666858             -12.6992
        40        0.0007           -0.4035811             -10.9820
        41        0.0002           -0.3846232             -10.4661
        42        0.0000           -0.2965791              -8.0703
        43                         -0.2106639              -5.7325
        44                         -0.1640756              -4.4647
        45                         -0.1460563              -3.9744
        46                         -0.0797340              -2.1697
        47                         -0.0455835              -1.2404
        48                         -0.0393632              -1.0711
       ...                                ...                  ...
        67                          0.5261631              14.3176
      -------------------------------------------------------------
                  HL-Gap            0.0500843 Eh            1.3629 eV

     #   Z          covCN         q      C6AA      α(0)
     1   6 C        3.716    -0.102    22.585     6.789
     2   7 N        2.740     0.148    18.734     6.428
     3   6 C        2.726    -0.044    29.077     8.828
     4   7 N        1.816    -0.264    27.705     7.799
     5   6 C        2.844     0.160    24.546     8.120
     6   6 C        2.950    -0.039    28.965     8.827
     7   6 C        2.764     0.272    22.410     7.753
     8   8 O        0.859    -0.360    20.901     6.130
     9   7 N        2.743    -0.069    22.585     7.058
    10   6 C        3.709    -0.062    21.830     6.678
    11   6 C        2.720     0.321    21.552     7.600
    12   8 O        0.860    -0.333    20.388     6.054
    13   7 N        2.753    -0.036    21.937     6.956
    14   6 C        3.705    -0.070    22.000     6.706
    15   1 H        0.924     0.120     1.612     1.986
    16   1 H        0.925     0.114     1.660     2.015
    17   1 H        0.924     0.156     1.352     1.818
    18   1 H        0.926     0.150     1.388     1.842
    19   1 H        0.925     0.121     1.606     1.982
    20   1 H        0.924     0.113     1.674     2.024
    21   1 H        0.924     0.113     1.671     2.021
    22   1 H        0.924     0.109     1.703     2.041
    23   1 H        0.924     0.109     1.703     2.041
    24   1 H        0.925     0.125     1.576     1.963
    25   1 H        1.601     0.249     0.875     1.460

Wiberg/Mayer (AO) data.
largest (>0.10) Wiberg bond orders for each atom

     #   Z sym  total        # sym  WBO       # sym  WBO       # sym  WBO
 ---------------------------------------------------------------------------
     1   6 C    3.855 --    16 H    0.962    15 H    0.951     2 N    0.938
                            17 H    0.932
     2   7 N    3.761 --     3 C    1.570     6 C    1.182     1 C    0.938
     3   6 C    3.435 --     2 N    1.570    18 H    0.929    25 H    0.381
                             4 N    0.251     6 C    0.137
     4   7 N    2.622 --     5 C    1.579    25 H    0.537     3 C    0.251
     5   6 C    3.965 --     4 N    1.579    13 N    1.162     6 C    1.122
     6   6 C    3.742 --     2 N    1.182     5 C    1.122     7 C    1.101
                             3 C    0.137
     7   6 C    3.951 --     8 O    1.634     9 N    1.113     6 C    1.101
     8   8 O    1.971 --     7 C    1.634     9 N    0.122
     9   7 N    3.500 --     7 C    1.113    11 C    1.101    10 C    0.977
                             8 O    0.122    12 O    0.113
    10   6 C    3.873 --     9 N    0.977    19 H    0.961    21 H    0.946
                            20 H    0.946
    11   6 C    3.956 --    12 O    1.688     9 N    1.101    13 N    1.081
    12   8 O    2.002 --    11 C    1.688     9 N    0.113    13 N    0.112
    13   7 N    3.499 --     5 C    1.162    11 C    1.081    14 C    0.976
                            12 O    0.112
    14   6 C    3.884 --    13 N    0.976    24 H    0.962    22 H    0.950
                            23 H    0.950
    15   1 H    0.983 --     1 C    0.951
    16   1 H    0.985 --     1 C    0.962
    17   1 H    0.969 --     1 C    0.932
    18   1 H    0.959 --     3 C    0.929
    19   1 H    0.979 --    10 C    0.961
    20   1 H    0.963 --    10 C    0.946
    21   1 H    0.963 --    10 C    0.946
    22   1 H    0.969 --    14 C    0.950
    23   1 H    0.969 --    14 C    0.950
    24   1 H    0.980 --    14 C    0.962
    25   1 H    0.937 --     4 N    0.537     3 C    0.381
 ---------------------------------------------------------------------------

molecular dipole:
                 x           y           z       tot (Debye)
 q only:        2.229      -0.823       0.018
   full:        2.521      -0.762       0.031       6.695

           -------------------------------------------------
          | TOTAL ENERGY              -42.098087258427 Eh   |
          | GRADIENT NORM               0.006099318048 Eh/α |
          | HOMO-LUMO GAP               1.362862292769 eV   |
           -------------------------------------------------

 * finished run on 2024/06/05 at 19:59:11.187
