   * xtb version 6.6.1 (8d0f1dd) compiled by 'conda@1efc2f54142f' on 2023-08-01
          program call               : xtb xtbopt.xyz --opt crude --input .xc2 --gfn2

   ID    Z sym.   atoms
    1    6 C      1, 3, 5-7, 10, 11, 14
    2    7 N      2, 4, 9, 13
    3    8 O      8, 12
    4    1 H      15-25
########################################################################
[WARNING] Please study the warnings concerning your input carefully
-1- readin_getIntValue: could not parse ''
########################################################################

          :  Hamiltonian                  GFN2-xTB          :
 * total energy  :   -42.1882585 Eh     change       -0.1534772E-11 Eh
   *** GEOMETRY OPTIMIZATION CONVERGED AFTER 1 ITERATIONS ***

 final structure:
================
25
 xtb: 6.6.1 (8d0f1dd)
C            3.09124217723349        1.20546194948644       -0.27670823618697
N            2.17236632114868        0.10509690536390       -0.18091306067750
C            2.49266577783916       -1.20086618932451       -0.12443745420629
N            1.36632694164678       -1.93989137619752        0.00974716352435
C            0.30364351739221       -1.09317440669196        0.04514952451778
C            0.80152154411922        0.21045603562530       -0.06981045629726
C           -0.07778776605509        1.28718454601869       -0.06205906117563
O            0.31388698299159        2.56192051679769       -0.23938548028895
N           -1.41492869032287        1.01452126551471        0.13635706825222
C           -2.31461890219246        2.00281477890746        0.26916073857234
C           -1.94292171443111       -0.32529770413925        0.14546833488000
O           -3.12785319243940       -0.50970600620720        0.18777351729057
N           -1.02593396179179       -1.35885806292988        0.11798515219312
C           -1.51099893957931       -2.72506196540597        0.18293661444926
H            3.33517877203845        1.58649892806045        0.71722541814565
H            4.00647938061098        0.87997301051794       -0.76675631519586
H            2.63415037801239        2.01035197451757       -0.84810031922405
H            3.48476246206832       -1.59701937557217       -0.17459048583295
H           -2.01636083000676        3.00606550969901        0.49385791046880
H           -0.46164624457152        3.09453694322282       -0.48683806109435
H           -3.34646866806722        1.73669845181351        0.28959135843463
H           -1.14595170670996       -3.21477498242666        1.08726158713895
H           -1.19266354959141       -3.28060062665862       -0.70048376002214
H           -2.59980641341841       -2.69151992678790        0.21031524925653
H            1.33614783817425       -2.94657165159409        0.06842467098095

          :  Hamiltonian                  GFN2-xTB          :
         :: total energy             -42.188258519411 Eh    ::
         :: gradient norm              0.006550984869 Eh/a0 ::
         :: HOMO-LUMO gap              1.468856183618 eV    ::
         :: SCC energy               -42.710199815570 Eh    ::
         :: -> dispersion             -0.022977988697 Eh    ::
         :: repulsion energy           0.521822094012 Eh    ::

    * Orbital Energies and Occupations

         #    Occupation            Energy/Eh            Energy/eV
      -------------------------------------------------------------
         1        2.0000           -0.8907541             -24.2387
       ...           ...                  ...                  ...
        25        2.0000           -0.6672515             -18.1568
        26        2.0000           -0.6600443             -17.9607
        27        2.0000           -0.6582716             -17.9125
        28        2.0000           -0.6439604             -17.5231
        29        2.0000           -0.6260582             -17.0359
        30        2.0000           -0.6233175             -16.9613
        31        2.0000           -0.6175096             -16.8033
        32        1.9999           -0.6111292             -16.6297
        33        1.9999           -0.6049250             -16.4608
        34        1.9999           -0.6017977             -16.3757
        35        1.9992           -0.5712919             -15.5456
        36        1.9972           -0.5519843             -15.0203
        37        1.6646           -0.4732927             -12.8789 (HOMO)
        38        0.2820           -0.4193132             -11.4101 (LUMO)
        39        0.0458           -0.3885105             -10.5719
        40        0.0116           -0.3664692              -9.9721
        41        0.0001           -0.2827495              -7.6940
        42        0.0000           -0.1964325              -5.3452
        43        0.0000           -0.1824593              -4.9650
        44                         -0.1431295              -3.8948
        45                         -0.1233867              -3.3575
        46                         -0.0974688              -2.6523
        47                         -0.0656960              -1.7877
        48                         -0.0415026              -1.1293
       ...                                ...                  ...
        67                          0.5358846              14.5822
      -------------------------------------------------------------
                  HL-Gap            0.0539795 Eh            1.4689 eV

     #   Z          covCN         q      C6AA      α(0)
     1   6 C        3.690    -0.085    22.317     6.760
     2   7 N        2.822     0.051    20.354     6.701
     3   6 C        3.033     0.031    27.272     8.566
     4   7 N        2.779    -0.058    22.357     7.023
     5   6 C        3.044     0.083    26.107     8.380
     6   6 C        3.086     0.001    27.913     8.661
     7   6 C        2.788     0.150    24.736     8.147
     8   8 O        1.658    -0.364    20.157     6.061
     9   7 N        2.741    -0.013    21.499     6.886
    10   6 C        2.815    -0.087    30.155     8.997
    11   6 C        2.738     0.303    21.850     7.653
    12   8 O        0.859    -0.360    20.889     6.128
    13   7 N        2.736    -0.051    22.221     7.001
    14   6 C        3.700    -0.072    22.041     6.714
    15   1 H        0.924     0.101     1.772     2.081
    16   1 H        0.925     0.096     1.818     2.108
    17   1 H        0.925     0.114     1.664     2.017
    18   1 H        0.927     0.112     1.676     2.024
    19   1 H        0.926     0.081     1.973     2.197
    20   1 H        0.804     0.342     0.608     1.225
    21   1 H        0.927     0.111     1.689     2.033
    22   1 H        0.924     0.082     1.955     2.187
    23   1 H        0.924     0.082     1.960     2.189
    24   1 H        0.925     0.124     1.579     1.965
    25   1 H        0.860     0.223     0.998     1.565

Wiberg/Mayer (AO) data.
largest (>0.10) Wiberg bond orders for each atom

     #   Z sym  total        # sym  WBO       # sym  WBO       # sym  WBO
 ---------------------------------------------------------------------------
     1   6 C    3.931 --     2 N    0.992    16 H    0.973    17 H    0.966
                            15 H    0.958
     2   7 N    3.592 --     3 C    1.301     6 C    1.131     1 C    0.992
     3   6 C    3.723 --     2 N    1.301     4 N    1.259    18 H    0.957
     4   7 N    3.564 --     3 C    1.259     5 C    1.198    25 H    0.922
     5   6 C    3.865 --     6 C    1.267     4 N    1.198    13 N    1.159
     6   6 C    3.938 --     7 C    1.280     5 C    1.267     2 N    1.131
     7   6 C    3.751 --     6 C    1.280     9 N    1.131     8 O    1.098
                            10 C    0.131
     8   8 O    2.100 --     7 C    1.098    20 H    0.839
     9   7 N    3.634 --    10 C    1.303     7 C    1.131    11 C    0.982
    10   6 C    3.537 --     9 N    1.303    21 H    0.964    19 H    0.960
                             7 C    0.131
    11   6 C    3.908 --    12 O    1.700    13 N    1.117     9 N    0.982
    12   8 O    2.033 --    11 C    1.700    13 N    0.147
    13   7 N    3.542 --     5 C    1.159    11 C    1.117    14 C    0.972
                            12 O    0.147
    14   6 C    3.927 --    13 N    0.972    23 H    0.972    22 H    0.971
                            24 H    0.966
    15   1 H    0.982 --     1 C    0.958
    16   1 H    0.989 --     1 C    0.973
    17   1 H    0.985 --     1 C    0.966
    18   1 H    0.986 --     3 C    0.957
    19   1 H    0.992 --    10 C    0.960
    20   1 H    0.881 --     8 O    0.839
    21   1 H    0.987 --    10 C    0.964
    22   1 H    0.990 --    14 C    0.971
    23   1 H    0.990 --    14 C    0.972
    24   1 H    0.984 --    14 C    0.966
    25   1 H    0.950 --     4 N    0.922
 ---------------------------------------------------------------------------

molecular dipole:
                 x           y           z       tot (Debye)
 q only:        2.208      -0.804      -0.217
   full:        2.327      -0.957      -0.209       6.417

           -------------------------------------------------
          | TOTAL ENERGY              -42.188258519411 Eh   |
          | GRADIENT NORM               0.006550984869 Eh/α |
          | HOMO-LUMO GAP               1.468856183618 eV   |
           -------------------------------------------------

 * finished run on 2024/06/05 at 19:59:24.010
