   * xtb version 6.6.1 (8d0f1dd) compiled by 'conda@1efc2f54142f' on 2023-08-01
          program call               : xtb xtbopt.xyz --opt crude --input .xc2 --gfn2

   ID    Z sym.   atoms
    1    7 N      1, 17
    2    6 C      2-6, 8, 9, 11-16, 18-23, 25, 26, 28-33
    3    8 O      7, 10, 24, 27
    4    1 H      34-72

          :  Hamiltonian                  GFN2-xTB          :
 * total energy  :   -99.2916675 Eh     change       -0.7332801E-11 Eh
   *** GEOMETRY OPTIMIZATION CONVERGED AFTER 1 ITERATIONS ***

 final structure:
================
72
 xtb: 6.6.1 (8d0f1dd)
N           -1.90303947715056        2.82412171890018        2.24883367531982
C           -1.83698890053455        2.11527140794952        1.22275944153072
C           -2.97187568642163        1.89977074545994        0.25908981278676
C           -3.46095498568774        0.46235767003790        0.34445405724853
C           -4.41356444385387        0.00238043084586       -0.56586919267233
C           -4.90159595491002       -1.29392993964340       -0.51172028597803
O           -5.83226805285680       -1.81128230496129       -1.33168850590308
C           -6.44019980430678       -0.99070468474010       -2.30223150734381
C           -4.40669840883516       -2.18796390631872        0.48105725534746
O           -4.92499227287569       -3.42681056464907        0.44997192192619
C           -4.52132863761665       -4.37150608986872        1.41416685140447
C           -3.45989693844297       -1.72221910425493        1.38195153995565
C           -3.00092159741521       -0.41426880735422        1.31767446915600
C           -2.39239057782895        2.17161229418253       -1.15469663268291
C           -1.46664989434935        1.06630855923949       -1.69792083200103
C           -0.11759966502826        1.05087394555495       -1.08223321781585
N            0.49066739400370       -0.00252727601365       -0.54386955045918
C            1.89662072452183        0.15852447279163       -0.18747030506992
C            2.81383277204332       -0.31294459748947       -1.32651672760680
C            4.24822279989022       -0.12750331446069       -0.91735756303897
C            4.89653680223636        1.07810417375875       -1.14460822085480
C            6.20031757783943        1.27598415897184       -0.71990047490677
C            6.88665407694868        0.27008699639287       -0.05180684673174
O            8.14451733171490        0.35118552121653        0.41080439823229
C            8.88197702332901        1.53616988978337        0.21263352906742
C            6.23132170263614       -0.97366394167020        0.18203672984046
O            6.96866528179622       -1.89305560770397        0.82874317616096
C            6.42423768419272       -3.16635179030088        1.08550025969469
C            4.92445276492376       -1.14567821338647       -0.25139227348778
C           -0.03889256103692       -1.20123383292745       -0.33685930874080
C           -4.18096855580051        2.84540923117634        0.53110309095170
C           -4.83707894300911        2.53923611872022        1.87513154526239
C           -3.81359791025833        4.32444301250764        0.45824305977189
H           -4.78663438161280        0.66893898399929       -1.32553105365903
H           -6.94634899463467       -0.13637912095660       -1.84247596542340
H           -7.17598919657272       -1.62140191416504       -2.79746596369617
H           -5.71438905645494       -0.63564952551551       -3.04029085379699
H           -4.75097657819705       -4.03173164381994        2.42834077975499
H           -5.09226252573218       -5.27222209851339        1.19696195192781
H           -3.45241689692431       -4.59222106770242        1.33470756860724
H           -3.07603213800387       -2.37237999397403        2.15107659084871
H           -2.28448439918791       -0.08222579543695        2.05264721834089
H           -3.22103265437293        2.28838582563835       -1.85246528156228
H           -1.84468205451681        3.11500923851578       -1.13447999198387
H           -1.95330950517125        0.09749265705613       -1.61435032112622
H           -1.32976522163488        1.26933058763976       -2.76698625209791
H           -0.91222519225335        1.61451890055577        0.88891245569954
H            0.47926867708999        1.94393520912148       -1.19082267626268
H            2.10657146698801       -0.42437377793269        0.71184451475115
H            2.09945084597096        1.20939397188230        0.02930736623290
H            2.59835836041309        0.26783103567765       -2.22470301514419
H            2.60583452335378       -1.36175908207800       -1.54201025638613
H            4.38841831756789        1.87375555345943       -1.66758816353794
H            6.67859319665360        2.22164656989536       -0.91533140730242
H            8.41048776739955        2.38877986229135        0.71061571312338
H            9.00670568197107        1.75659158781196       -0.85147166935993
H            9.85684921813399        1.35142097813633        0.65986111467564
H            7.21033345784996       -3.72278680339098        1.59222395965011
H            5.54807826632177       -3.10315385146239        1.73843768208513
H            6.15528796596193       -3.68147588726711        0.15853817273869
H            4.42218101820527       -2.08546414791881       -0.08389373087943
H           -0.49529663284000       -1.55202312989975       -2.88044534947702
H           -1.07291378654876       -1.39671255942145       -0.52965357420289
H            0.55459496003233       -1.93923250708421        0.17663892178470
H           -4.91692056526961        2.64373980047047       -0.25531842790440
H           -4.14181934363998        2.74391354262882        2.68347125190475
H           -5.14954365070311        1.49921935246183        1.93323883651545
H           -5.71360835043007        3.16863564107538        2.00556479283382
H           -3.05622677827430        4.56336679087948        1.19890918279890
H           -3.45237268585462        4.60358421769348       -0.52795676667715
H           -4.69542685416249        4.92291593154235        0.67173107071230
H           -1.06634135178102        2.93272981886147        2.81346304972954

          :  Hamiltonian                  GFN2-xTB          :
         :: total energy             -99.291667488759 Eh    ::
         :: gradient norm              0.006938532044 Eh/a0 ::
         :: HOMO-LUMO gap              0.603113908591 eV    ::
         :: SCC energy              -100.672768388923 Eh    ::
         :: -> dispersion             -0.077025291714 Eh    ::
         :: repulsion energy           1.379783202806 Eh    ::

    * Orbital Energies and Occupations

         #    Occupation            Energy/Eh            Energy/eV
      -------------------------------------------------------------
         1        2.0000           -0.8167944             -22.2261
       ...           ...                  ...                  ...
        78        1.9968           -0.5339703             -14.5301
        79        1.9967           -0.5336259             -14.5207
        80        1.9954           -0.5280939             -14.3702
        81        1.9952           -0.5274774             -14.3534
        82        1.9924           -0.5202119             -14.1557
        83        1.9917           -0.5187102             -14.1148
        84        1.9892           -0.5146230             -14.0036
        85        1.9673           -0.4969039             -13.5214
        86        1.9660           -0.4962447             -13.5035
        87        1.9081           -0.4800367             -13.0625
        88        1.7776           -0.4649173             -12.6510
        89        1.7689           -0.4642317             -12.6324
        90        1.6210           -0.4550169             -12.3816 (HOMO)
        91        1.0267           -0.4328529             -11.7785 (LUMO)
        92        0.0107           -0.3492003              -9.5022
        93        0.0078           -0.3443254              -9.3696
        94        0.0020           -0.3223087              -8.7705
        95        0.0017           -0.3203661              -8.7176
        96        0.0016           -0.3195677              -8.6959
        97        0.0015           -0.3182660              -8.6605
        98        0.0000           -0.1971326              -5.3643
        99        0.0000           -0.1962408              -5.3400
       100                         -0.1217051              -3.3118
       101                         -0.0704385              -1.9167
       ...                                ...                  ...
       171                          0.5660557              15.4032
      -------------------------------------------------------------
                  HL-Gap            0.0221640 Eh            0.6031 eV

     #   Z          covCN         q      C6AA      α(0)
     1   7 N        1.774    -0.259    27.563     7.774
     2   6 C        2.826     0.102    25.723     8.311
     3   6 C        3.907     0.008    20.388     6.418
     4   6 C        2.973     0.010    27.785     8.646
     5   6 C        2.920    -0.075    29.869     8.962
     6   6 C        2.862     0.136    25.037     8.202
     7   8 O        1.706    -0.217    17.596     5.664
     8   6 C        3.644     0.024    20.505     6.509
     9   6 C        2.863     0.135    25.056     8.205
    10   8 O        1.706    -0.215    17.573     5.660
    11   6 C        3.645     0.024    20.508     6.509
    12   6 C        2.913    -0.069    29.725     8.940
    13   6 C        2.921    -0.046    29.145     8.853
    14   6 C        3.811    -0.065    21.734     6.636
    15   6 C        3.802    -0.064    21.728     6.636
    16   6 C        2.861    -0.022    28.545     8.757
    17   7 N        2.730     0.096    19.594     6.574
    18   6 C        3.781    -0.020    20.953     6.521
    19   6 C        3.808    -0.069    21.813     6.648
    20   6 C        2.970     0.006    27.879     8.661
    21   6 C        2.922    -0.045    29.124     8.850
    22   6 C        2.913    -0.065    29.624     8.925
    23   6 C        2.864     0.136    25.021     8.199
    24   8 O        1.706    -0.213    17.535     5.654
    25   6 C        3.645     0.022    20.536     6.513
    26   6 C        2.862     0.136    25.022     8.199
    27   8 O        1.706    -0.216    17.582     5.661
    28   6 C        3.645     0.024    20.506     6.509
    29   6 C        2.919    -0.077    29.923     8.970
    30   6 C        2.810    -0.074    29.838     8.949
    31   6 C        3.853    -0.008    20.677     6.468
    32   6 C        3.755    -0.119    22.843     6.815
    33   6 C        3.755    -0.119    22.833     6.813
    34   1 H        0.926     0.058     2.220     2.330
    35   1 H        0.924     0.057     2.231     2.336
    36   1 H        0.925     0.086     1.921     2.168
    37   1 H        0.924     0.056     2.247     2.344
    38   1 H        0.924     0.059     2.214     2.327
    39   1 H        0.925     0.086     1.922     2.168
    40   1 H        0.924     0.055     2.256     2.349
    41   1 H        0.926     0.057     2.229     2.335
    42   1 H        0.926     0.042     2.417     2.431
    43   1 H        0.925     0.060     2.196     2.317
    44   1 H        0.924     0.054     2.274     2.358
    45   1 H        0.925     0.067     2.114     2.274
    46   1 H        0.924     0.081     1.968     2.194
    47   1 H        0.923     0.016     2.799     2.616
    48   1 H        0.926     0.059     2.212     2.326
    49   1 H        0.924     0.072     2.063     2.246
    50   1 H        0.924     0.069     2.096     2.264
    51   1 H        0.924     0.063     2.159     2.298
    52   1 H        0.924     0.067     2.121     2.278
    53   1 H        0.926     0.052     2.293     2.368
    54   1 H        0.926     0.063     2.164     2.300
    55   1 H        0.924     0.058     2.218     2.329
    56   1 H        0.924     0.061     2.192     2.315
    57   1 H        0.925     0.086     1.917     2.165
    58   1 H        0.925     0.086     1.923     2.168
    59   1 H        0.924     0.053     2.281     2.362
    60   1 H        0.924     0.058     2.220     2.330
    61   1 H        0.926     0.054     2.265     2.353
    62   1 H        0.000    -0.210    28.944     9.837
    63   1 H        0.927     0.078     1.996     2.209
    64   1 H        0.926     0.068     2.104     2.268
    65   1 H        0.924     0.042     2.425     2.435
    66   1 H        0.925     0.072     2.060     2.244
    67   1 H        0.925     0.037     2.491     2.468
    68   1 H        0.925     0.054     2.265     2.353
    69   1 H        0.925     0.062     2.179     2.309
    70   1 H        0.925     0.039     2.463     2.454
    71   1 H        0.925     0.057     2.231     2.336
    72   1 H        0.860     0.161     1.329     1.806

Wiberg/Mayer (AO) data.
largest (>0.10) Wiberg bond orders for each atom

     #   Z sym  total        # sym  WBO       # sym  WBO       # sym  WBO
 ---------------------------------------------------------------------------
     1   7 N    3.022 --     2 C    1.957    72 H    0.939
     2   6 C    3.929 --     1 N    1.957     3 C    0.993    47 H    0.906
     3   6 C    3.966 --     2 C    0.993     4 C    0.970    14 C    0.954
                            31 C    0.939
     4   6 C    3.928 --    13 C    1.399     5 C    1.374     3 C    0.970
     5   6 C    3.950 --     6 C    1.391     4 C    1.374    34 H    0.956
     6   6 C    3.886 --     5 C    1.391     9 C    1.206     7 O    1.115
     7   8 O    2.255 --     6 C    1.115     8 C    0.975
     8   6 C    3.925 --    36 H    0.976     7 O    0.975    35 H    0.972
                            37 H    0.971
     9   6 C    3.879 --    12 C    1.380     6 C    1.206    10 O    1.117
    10   8 O    2.252 --     9 C    1.117    11 C    0.975
    11   6 C    3.925 --    39 H    0.976    10 O    0.975    40 H    0.972
                            38 H    0.971
    12   6 C    3.950 --    13 C    1.414     9 C    1.380    41 H    0.963
    13   6 C    3.934 --    12 C    1.414     4 C    1.399    42 H    0.962
    14   6 C    3.965 --    15 C    0.977    44 H    0.971    43 H    0.968
                             3 C    0.954
    15   6 C    3.977 --    16 C    1.055    14 C    0.977    45 H    0.958
                            46 H    0.931
    16   6 C    3.645 --    17 N    1.342    15 C    1.055    48 H    0.961
                            30 C    0.167
    17   7 N    3.736 --    30 C    1.361    16 C    1.342    18 C    0.965
    18   6 C    3.951 --    19 C    0.974    50 H    0.968    49 H    0.968
                            17 N    0.965
    19   6 C    3.983 --    20 C    1.008    18 C    0.974    51 H    0.970
                            52 H    0.969
    20   6 C    3.929 --    21 C    1.396    29 C    1.387    19 C    1.008
    21   6 C    3.934 --    22 C    1.423    20 C    1.396    53 H    0.967
    22   6 C    3.950 --    21 C    1.423    23 C    1.374    54 H    0.962
    23   6 C    3.878 --    22 C    1.374    26 C    1.208    24 O    1.121
    24   8 O    2.253 --    23 C    1.121    25 C    0.974
    25   6 C    3.923 --    57 H    0.976    24 O    0.974    55 H    0.971
                            56 H    0.971
    26   6 C    3.882 --    29 C    1.386    23 C    1.208    27 O    1.115
    27   8 O    2.253 --    26 C    1.115    28 C    0.976
    28   6 C    3.926 --    58 H    0.976    27 O    0.976    59 H    0.972
                            60 H    0.972
    29   6 C    3.951 --    20 C    1.387    26 C    1.386    61 H    0.961
    30   6 C    3.609 --    17 N    1.361    64 H    0.973    63 H    0.963
                            16 C    0.167
    31   6 C    3.963 --    33 C    1.009    32 C    1.008    65 H    0.956
                             3 C    0.939
    32   6 C    3.969 --    31 C    1.008    67 H    0.980    68 H    0.979
                            66 H    0.969
    33   6 C    3.975 --    31 C    1.009    70 H    0.981    71 H    0.978
                            69 H    0.974
    34   1 H    0.995 --     5 C    0.956
    35   1 H    0.990 --     8 C    0.972
    36   1 H    0.992 --     8 C    0.976
    37   1 H    0.990 --     8 C    0.971
    38   1 H    0.990 --    11 C    0.971
    39   1 H    0.992 --    11 C    0.976
    40   1 H    0.990 --    11 C    0.972
    41   1 H    0.994 --    12 C    0.963
    42   1 H    0.997 --    13 C    0.962
    43   1 H    0.994 --    14 C    0.968
    44   1 H    0.995 --    14 C    0.971
    45   1 H    0.995 --    15 C    0.958
    46   1 H    0.971 --    15 C    0.931
    47   1 H    0.975 --     2 C    0.906
    48   1 H    0.996 --    16 C    0.961
    49   1 H    0.994 --    18 C    0.968
    50   1 H    0.995 --    18 C    0.968
    51   1 H    0.994 --    19 C    0.970
    52   1 H    0.994 --    19 C    0.969
    53   1 H    0.996 --    21 C    0.967
    54   1 H    0.994 --    22 C    0.962
    55   1 H    0.989 --    25 C    0.971
    56   1 H    0.989 --    25 C    0.971
    57   1 H    0.992 --    25 C    0.976
    58   1 H    0.992 --    28 C    0.976
    59   1 H    0.990 --    28 C    0.972
    60   1 H    0.990 --    28 C    0.972
    61   1 H    0.995 --    29 C    0.961
    62   1 H    0.101
    63   1 H    0.993 --    30 C    0.963
    64   1 H    0.995 --    30 C    0.973
    65   1 H    0.987 --    31 C    0.956
    66   1 H    0.987 --    32 C    0.969
    67   1 H    0.995 --    32 C    0.980
    68   1 H    0.992 --    32 C    0.979
    69   1 H    0.990 --    33 C    0.974
    70   1 H    0.995 --    33 C    0.981
    71   1 H    0.992 --    33 C    0.978
    72   1 H    0.966 --     1 N    0.939
 ---------------------------------------------------------------------------

molecular dipole:
                 x           y           z       tot (Debye)
 q only:        0.899       0.556       0.549
   full:        1.198       0.458       0.386       3.403

           -------------------------------------------------
          | TOTAL ENERGY              -99.291667488759 Eh   |
          | GRADIENT NORM               0.006938532044 Eh/α |
          | HOMO-LUMO GAP               0.603113908591 eV   |
           -------------------------------------------------

 * finished run on 2024/04/06 at 11:15:16.499
