   * xtb version 6.6.1 (8d0f1dd) compiled by 'conda@1efc2f54142f' on 2023-08-01
          program call               : xtb struc.xyz --opt loose --input .xc1 --gfn2

   ID    Z sym.   atoms
    1    6 C      1, 3, 5-7, 10, 11, 14
    2    7 N      2, 4, 9, 13
    3    8 O      8, 12
    4    1 H      15-25
constraining bond 6 18 to    3.7133300 Å, actual value:    3.2169490 Å

          :  Hamiltonian                  GFN2-xTB          :
 * total energy  :   -42.6852280 Eh     change       -0.6633627E-10 Eh
 * total energy  :   -44.5876602 Eh     change       -0.1902432E+01 Eh
 * total energy  :   -47.1872554 Eh     change       -0.2599595E+01 Eh
 * total energy  :   -50.2316985 Eh     change       -0.3044443E+01 Eh
 * total energy  :   -53.9419090 Eh     change       -0.3710210E+01 Eh
 * total energy  :   -56.9612343 Eh     change       -0.3019325E+01 Eh
 * total energy  :   -58.2758328 Eh     change       -0.1314598E+01 Eh
 * total energy  :   -58.9366472 Eh     change       -0.6608145E+00 Eh
 * total energy  :   -55.8398078 Eh     change        0.3096839E+01 Eh
 * total energy  :   -55.7259367 Eh     change        0.1138711E+00 Eh
 * total energy  :   -59.6176488 Eh     change       -0.1508987E-03 Eh
 * total energy  :   -59.6177868 Eh     change       -0.1379922E-03 Eh
 * total energy  :   -59.6179684 Eh     change       -0.1815828E-03 Eh
 * total energy  :   -59.6181944 Eh     change       -0.2260735E-03 Eh
 * total energy  :   -59.6183591 Eh     change       -0.1646937E-03 Eh
 * total energy  :   -59.6184566 Eh     change       -0.9745247E-04 Eh
 * total energy  :   -59.6184761 Eh     change       -0.1956030E-04 Eh
 * total energy  :   -59.6185732 Eh     change       -0.9705705E-04 Eh
 * total energy  :   -59.6185992 Eh     change       -0.2603972E-04 Eh
   *** GEOMETRY OPTIMIZATION CONVERGED AFTER 80 ITERATIONS ***

 final structure:
================
25
 xtb: 6.6.1 (8d0f1dd)
C            2.70023538209148        1.54812502936673        0.56055113888981
N            1.50531747602647        0.80601094471927        0.19049207807634
C            1.99656542026965       -2.87501279369890       -1.66887275808843
N            1.03243682228715       -2.64890664111931       -0.90703393003715
C            0.71198133083936       -1.38416950803272       -0.29706205913382
C            1.74321359030216       -0.45230074564968       -0.36359914805530
C            0.32731421289136        1.54279405680341        0.29806718137172
O            0.34537092856499        2.64020184118630        0.77303743284612
N           -0.84184648994942        1.02046331294997       -0.28592488015587
C           -1.82604218728892        2.05396512341742       -0.61991126859010
C           -1.41843035827661       -0.20559530083543       -0.04268198626146
O           -2.59603480320785       -0.40151560857348       -0.05976916966704
N           -0.53214003701963       -1.27947856269971        0.24889862468990
C           -1.17022346287606       -2.47537213815128        0.77299326565295
H            2.68108888124227        1.75704550053547        1.63126425106739
H            3.58508374701370        0.96839683922257        0.31455708209292
H            2.72194884214023        2.50731702768007        0.04154516361238
H            2.13112385953768       -0.54223775546640       -0.51038207922712
H           -1.30035430472497        2.93537935695811       -0.97822406223589
H           -2.48750435633153        1.66068307763160       -1.38873748672613
H           -2.42236252271668        2.32710286899918        0.25287046687749
H           -0.48111674471779       -3.00765897563429        1.42791618862739
H           -1.55006581367368       -3.12865706529955       -0.02171440999422
H           -2.03870438961102       -2.16197716645355        1.35246060039604
H            0.34357649128244       -3.38636417625267       -0.68956861812259

          :  Hamiltonian                  GFN2-xTB          :
         :: total energy             -59.618599232383 Eh    ::
         :: gradient norm              0.003273708980 Eh/a0 ::
         :: HOMO-LUMO gap              0.728513201932 eV    ::
         :: SCC energy               -42.553713333625 Eh    ::
         :: -> dispersion             -0.022758486222 Eh    ::
         :: repulsion energy           2.249184665236 Eh    ::

    * Orbital Energies and Occupations

         #    Occupation            Energy/Eh            Energy/eV
      -------------------------------------------------------------
         1        2.0000           -0.9082586             -24.7150
       ...           ...                  ...                  ...
        25        2.0000           -0.6711126             -18.2619
        26        2.0000           -0.6706123             -18.2483
        27        2.0000           -0.6517780             -17.7358
        28        2.0000           -0.6449862             -17.5510
        29        2.0000           -0.6416023             -17.4589
        30        2.0000           -0.6398742             -17.4119
        31        2.0000           -0.6345969             -17.2683
        32        1.9998           -0.6158674             -16.7586
        33        1.9997           -0.6113611             -16.6360
        34        1.9994           -0.6059326             -16.4883
        35        1.9963           -0.5909751             -16.0813
        36        1.9823           -0.5786259             -15.7452
        37        1.6992           -0.5549632             -15.1013 (HOMO)
        38        0.3222           -0.5281909             -14.3728 (LUMO)
        39        0.0010           -0.4809301             -13.0868
        40        0.0000           -0.4218699             -11.4797
        41                         -0.3834534             -10.4343
        42                         -0.3630811              -9.8799
        43                         -0.2274217              -6.1885
        44                         -0.2142857              -5.8310
        45                         -0.1659873              -4.5167
        46                         -0.1180707              -3.2129
        47                         -0.0812242              -2.2102
        48                         -0.0722196              -1.9652
       ...                                ...                  ...
        67                         10.5831880             287.9832
      -------------------------------------------------------------
                  HL-Gap            0.0267724 Eh            0.7285 eV

     #   Z          covCN         q      C6AA      α(0)
     1   6 C        3.717    -0.073    22.028     6.705
     2   7 N        2.755    -0.041    22.027     6.971
     3   6 C        0.927    -0.055    37.258    10.224
     4   7 N        2.690     0.047    20.434     6.714
     5   6 C        2.880     0.091    25.976     8.355
     6   6 C        2.849    -0.043    29.051     8.834
     7   6 C        2.718     0.323    21.514     7.593
     8   8 O        0.860    -0.326    20.253     6.034
     9   7 N        2.734    -0.114    23.493     7.199
    10   6 C        3.723    -0.056    21.689     6.651
    11   6 C        2.724     0.329    21.410     7.575
    12   8 O        0.860    -0.334    20.408     6.057
    13   7 N        2.735    -0.081    22.817     7.094
    14   6 C        3.704    -0.068    21.958     6.700
    15   1 H        0.924     0.116     1.642     2.004
    16   1 H        0.925     0.098     1.802     2.100
    17   1 H        0.924     0.115     1.652     2.010
    18   1 H        0.982     0.188     1.158     1.682
    19   1 H        0.925     0.102     1.764     2.077
    20   1 H        0.925     0.104     1.750     2.069
    21   1 H        0.924     0.106     1.728     2.056
    22   1 H        0.925     0.088     1.896     2.153
    23   1 H        0.924     0.090     1.876     2.142
    24   1 H        0.925     0.129     1.542     1.942
    25   1 H        0.859     0.264     0.832     1.429

Wiberg/Mayer (AO) data.
largest (>0.10) Wiberg bond orders for each atom

     #   Z sym  total        # sym  WBO       # sym  WBO       # sym  WBO
 ---------------------------------------------------------------------------
     1   6 C    3.909 --     2 N    0.979    16 H    0.976    17 H    0.955
                            15 H    0.949
     2   7 N    3.511 --     6 C    1.189     7 C    1.075     1 C    0.979
                             8 O    0.109
     3   6 C    2.193 --     4 N    1.862
     4   7 N    3.707 --     3 C    1.862     5 C    0.959    25 H    0.824
     5   6 C    3.835 --     6 C    1.497    13 N    1.164     4 N    0.959
     6   6 C    3.882 --     5 C    1.497     2 N    1.189    18 H    0.938
     7   6 C    3.958 --     8 O    1.749     2 N    1.075     9 N    1.036
     8   8 O    2.088 --     7 C    1.749     2 N    0.109     9 N    0.109
     9   7 N    3.450 --    11 C    1.120     7 C    1.036    10 C    0.961
                            12 O    0.137     8 O    0.109
    10   6 C    3.904 --    19 H    0.972    20 H    0.969     9 N    0.961
                            21 H    0.955
    11   6 C    3.955 --    12 O    1.745     9 N    1.120    13 N    0.992
    12   8 O    2.106 --    11 C    1.745     9 N    0.137    13 N    0.103
    13   7 N    3.432 --     5 C    1.164    11 C    0.992    14 C    0.981
                            12 O    0.103
    14   6 C    3.927 --    13 N    0.981    22 H    0.973    24 H    0.956
                            23 H    0.944
    15   1 H    0.968 --     1 C    0.949
    16   1 H    0.990 --     1 C    0.976
    17   1 H    0.971 --     1 C    0.955
    18   1 H    0.964 --     6 C    0.938
    19   1 H    0.986 --    10 C    0.972
    20   1 H    0.985 --    10 C    0.969
    21   1 H    0.972 --    10 C    0.955
    22   1 H    0.988 --    14 C    0.973
    23   1 H    0.982 --    14 C    0.944
    24   1 H    0.981 --    14 C    0.956
    25   1 H    0.898 --     4 N    0.824
 ---------------------------------------------------------------------------

molecular dipole:
                 x           y           z       tot (Debye)
 q only:        1.432      -1.863      -0.257
   full:        1.153      -2.139      -0.082       6.180

           -------------------------------------------------
          | TOTAL ENERGY              -59.618599232383 Eh   |
          | GRADIENT NORM               0.003273708980 Eh/α |
          | HOMO-LUMO GAP               0.728513201932 eV   |
           -------------------------------------------------

 * finished run on 2024/06/05 at 19:58:14.493
