   * xtb version 6.6.1 (8d0f1dd) compiled by 'conda@1efc2f54142f' on 2023-08-01
          program call               : xtb xtbopt.xyz --opt crude --input .xc2 --gfn2

   ID    Z sym.   atoms
    1    6 C      1, 3, 5-7, 10, 11, 14
    2    7 N      2, 4, 9, 13
    3    8 O      8, 12
    4    1 H      15-25
########################################################################
[WARNING] Please study the warnings concerning your input carefully
-1- readin_getIntValue: could not parse ''
########################################################################

          :  Hamiltonian                  GFN2-xTB          :
 * total energy  :   -40.3042930 Eh     change       -0.5726974E-11 Eh
 * total energy  :   -42.0056287 Eh     change       -0.1701336E+01 Eh
 * total energy  :   -42.0279501 Eh     change       -0.2232143E-01 Eh
 * total energy  :   -42.0322568 Eh     change       -0.4306724E-02 Eh
 * total energy  :   -42.0336529 Eh     change       -0.1396086E-02 Eh
 * total energy  :   -42.0341882 Eh     change       -0.5353099E-03 Eh
 * total energy  :   -42.0346929 Eh     change       -0.5046744E-03 Eh
 * total energy  :   -42.0350502 Eh     change       -0.3573213E-03 Eh
 * total energy  :   -42.0353928 Eh     change       -0.3426253E-03 Eh
 * total energy  :   -42.0355662 Eh     change       -0.1733600E-03 Eh
   *** GEOMETRY OPTIMIZATION CONVERGED AFTER 10 ITERATIONS ***

 final structure:
================
25
 xtb: 6.6.1 (8d0f1dd)
C            2.69687887591558        1.56750695812506        0.56266349622091
N            1.50724848381193        0.81498797576066        0.20465302905444
C            2.02238271339201       -2.80436695916543       -1.63861806698894
N            1.03138286766902       -2.64522595038238       -0.89150162495357
C            0.68407339968057       -1.40149382148143       -0.26215606937481
C            1.63710678573655       -0.43263017145463       -0.28242459044754
C            0.32065500527924        1.56093686044088        0.27887417174492
O            0.35372270744404        2.68053522930833        0.70001749846197
N           -0.85370468161425        1.02178380351478       -0.26616003913517
C           -1.84201576573659        2.05396562324363       -0.59933080531134
C           -1.43915084877987       -0.20643209538164       -0.01713162994372
O           -2.62115324072674       -0.37789399057629       -0.01975849543109
N           -0.57464481733731       -1.29559707205014        0.25611541848718
C           -1.22270395193090       -2.49263231017142        0.76137887489828
H            2.67100054062940        1.80123843516443        1.62807002995942
H            3.58741212593010        0.99019028431024        0.33527079631444
H            2.71270612465620        2.51402757893389        0.02126799908986
H            2.62068974184530       -0.69301817613854       -0.66631317171336
H           -1.32231254516034        2.91809052807934       -1.00376466385069
H           -2.53316457124042        1.64414072330587       -1.33177836230529
H           -2.40431755323867        2.36004675953379        0.28432104352026
H           -0.54164800566568       -3.03432428068824        1.41614139825181
H           -1.58817661093180       -3.13615305696021       -0.04718791617198
H           -2.09781307867456       -2.18464055781157        1.33236863558971
H            0.35597781314189       -3.40480377585578       -0.72384533806036

          :  Hamiltonian                  GFN2-xTB          :
         :: total energy             -42.035566192655 Eh    ::
         :: gradient norm              0.007760534894 Eh/a0 ::
         :: HOMO-LUMO gap              0.748975481282 eV    ::
         :: SCC energy               -42.548144345960 Eh    ::
         :: -> dispersion             -0.022656932598 Eh    ::
         :: repulsion energy           0.512341012468 Eh    ::

    * Orbital Energies and Occupations

         #    Occupation            Energy/Eh            Energy/eV
      -------------------------------------------------------------
         1        2.0000           -0.9004291             -24.5019
       ...           ...                  ...                  ...
        25        2.0000           -0.6708841             -18.2557
        26        2.0000           -0.6686885             -18.1959
        27        2.0000           -0.6489807             -17.6597
        28        2.0000           -0.6424181             -17.4811
        29        2.0000           -0.6399967             -17.4152
        30        2.0000           -0.6369721             -17.3329
        31        2.0000           -0.6352544             -17.2862
        32        1.9999           -0.6141920             -16.7130
        33        1.9998           -0.6094481             -16.5839
        34        1.9996           -0.6043589             -16.4454
        35        1.9971           -0.5890882             -16.0299
        36        1.9866           -0.5770123             -15.7013
        37        1.7091           -0.5514437             -15.0055 (HOMO)
        38        0.3074           -0.5239193             -14.2566 (LUMO)
        39        0.0006           -0.4734427             -12.8830
        40        0.0000           -0.4184239             -11.3859
        41                         -0.3721131             -10.1257
        42                         -0.3583613              -9.7515
        43                         -0.2166764              -5.8961
        44                         -0.2120083              -5.7690
        45                         -0.1709800              -4.6526
        46                         -0.1122877              -3.0555
        47                         -0.0767548              -2.0886
        48                         -0.0655608              -1.7840
       ...                                ...                  ...
        67                          0.5157436              14.0341
      -------------------------------------------------------------
                  HL-Gap            0.0275243 Eh            0.7490 eV

     #   Z          covCN         q      C6AA      α(0)
     1   6 C        3.713    -0.075    22.077     6.714
     2   7 N        2.736    -0.011    21.474     6.882
     3   6 C        0.933    -0.065    37.603    10.274
     4   7 N        2.689     0.047    20.419     6.711
     5   6 C        2.846     0.094    25.900     8.341
     6   6 C        2.849     0.011    27.763     8.636
     7   6 C        2.723     0.323    21.511     7.593
     8   8 O        0.860    -0.327    20.280     6.038
     9   7 N        2.733    -0.115    23.500     7.200
    10   6 C        3.725    -0.056    21.684     6.649
    11   6 C        2.722     0.328    21.418     7.576
    12   8 O        0.860    -0.337    20.463     6.065
    13   7 N        2.737    -0.076    22.722     7.080
    14   6 C        3.704    -0.067    21.941     6.697
    15   1 H        0.924     0.117     1.636     2.000
    16   1 H        0.925     0.097     1.809     2.103
    17   1 H        0.924     0.118     1.629     1.996
    18   1 H        0.925     0.122     1.597     1.976
    19   1 H        0.925     0.101     1.776     2.084
    20   1 H        0.925     0.104     1.752     2.070
    21   1 H        0.924     0.105     1.743     2.064
    22   1 H        0.925     0.087     1.911     2.162
    23   1 H        0.924     0.089     1.894     2.152
    24   1 H        0.925     0.127     1.559     1.953
    25   1 H        0.859     0.260     0.847     1.442

Wiberg/Mayer (AO) data.
largest (>0.10) Wiberg bond orders for each atom

     #   Z sym  total        # sym  WBO       # sym  WBO       # sym  WBO
 ---------------------------------------------------------------------------
     1   6 C    3.910 --     2 N    0.977    16 H    0.975    17 H    0.955
                            15 H    0.951
     2   7 N    3.542 --     6 C    1.250     7 C    1.050     1 C    0.977
                             8 O    0.104
     3   6 C    2.208 --     4 N    1.846
     4   7 N    3.709 --     3 C    1.846     5 C    0.966    25 H    0.835
     5   6 C    3.829 --     6 C    1.502    13 N    1.147     4 N    0.966
     6   6 C    3.915 --     5 C    1.502     2 N    1.250    18 H    0.928
     7   6 C    3.958 --     8 O    1.750     9 N    1.055     2 N    1.050
     8   8 O    2.090 --     7 C    1.750     9 N    0.115     2 N    0.104
     9   7 N    3.458 --    11 C    1.107     7 C    1.055    10 C    0.960
                            12 O    0.133     8 O    0.115
    10   6 C    3.906 --    19 H    0.973    20 H    0.970     9 N    0.960
                            21 H    0.957
    11   6 C    3.954 --    12 O    1.743     9 N    1.107    13 N    1.009
    12   8 O    2.100 --    11 C    1.743     9 N    0.133    13 N    0.106
    13   7 N    3.434 --     5 C    1.147    11 C    1.009    14 C    0.982
                            12 O    0.106
    14   6 C    3.928 --    13 N    0.982    22 H    0.973    24 H    0.958
                            23 H    0.946
    15   1 H    0.970 --     1 C    0.951
    16   1 H    0.990 --     1 C    0.975
    17   1 H    0.972 --     1 C    0.955
    18   1 H    0.982 --     6 C    0.928
    19   1 H    0.986 --    10 C    0.973
    20   1 H    0.986 --    10 C    0.970
    21   1 H    0.975 --    10 C    0.957
    22   1 H    0.988 --    14 C    0.973
    23   1 H    0.982 --    14 C    0.946
    24   1 H    0.981 --    14 C    0.958
    25   1 H    0.903 --     4 N    0.835
 ---------------------------------------------------------------------------

molecular dipole:
                 x           y           z       tot (Debye)
 q only:        1.508      -1.808      -0.223
   full:        1.283      -2.132      -0.080       6.327

           -------------------------------------------------
          | TOTAL ENERGY              -42.035566192655 Eh   |
          | GRADIENT NORM               0.007760534894 Eh/α |
          | HOMO-LUMO GAP               0.748975481282 eV   |
           -------------------------------------------------

 * finished run on 2024/06/05 at 19:58:14.913
