   * xtb version 6.6.1 (8d0f1dd) compiled by 'conda@1efc2f54142f' on 2023-08-01
          program call               : xtb struc.xyz --opt loose --input .xc1 --gfn2

   ID    Z sym.   atoms
    1    6 C      1, 3, 5-7, 10, 11, 14
    2    7 N      2, 4, 9, 13
    3    8 O      8, 12
    4    1 H      15-25
constraining bond 2 15 to    4.0600000 Å, actual value:    2.0850972 Å

          :  Hamiltonian                  GFN2-xTB          :
 * total energy  :   -35.2812777 Eh     change       -0.6633627E-10 Eh
 * total energy  :   -38.3136806 Eh     change       -0.3032403E+01 Eh
 * total energy  :   -40.4859202 Eh     change       -0.2172240E+01 Eh
 * total energy  :   -41.5107258 Eh     change       -0.1024806E+01 Eh
 * total energy  :   -41.8119050 Eh     change       -0.3011792E+00 Eh
 * total energy  :   -41.8488193 Eh     change       -0.3691430E-01 Eh
 * total energy  :   -41.8777395 Eh     change       -0.2892020E-01 Eh
 * total energy  :   -41.9295665 Eh     change       -0.5182691E-01 Eh
 * total energy  :   -41.9572309 Eh     change       -0.2766444E-01 Eh
 * total energy  :   -41.9705390 Eh     change       -0.1330811E-01 Eh
 * total energy  :   -42.0772346 Eh     change       -0.5690404E-03 Eh
 * total energy  :   -42.0803005 Eh     change       -0.3065835E-02 Eh
 * total energy  :   -42.0816928 Eh     change       -0.1392321E-02 Eh
 * total energy  :   -42.0822626 Eh     change       -0.5697610E-03 Eh
 * total energy  :   -42.0826803 Eh     change       -0.4177692E-03 Eh
 * total energy  :   -42.0828545 Eh     change       -0.1741663E-03 Eh
 * total energy  :   -42.0829544 Eh     change       -0.9987339E-04 Eh
 * total energy  :   -42.0830084 Eh     change       -0.5407757E-04 Eh
 * total energy  :   -42.0830450 Eh     change       -0.3652749E-04 Eh
   *** GEOMETRY OPTIMIZATION CONVERGED AFTER 29 ITERATIONS ***

 final structure:
================
25
 xtb: 6.6.1 (8d0f1dd)
C            3.11352354107271        0.98449483875887       -0.20036551787994
N            2.22515890014876       -0.00771121670781       -0.15205803220029
C            2.47250784919860       -1.33687482330471       -0.17073950458172
N            1.30381541969002       -2.02156966266382       -0.12027540921804
C            0.28168656598250       -1.11815488793663       -0.06685456642337
C            0.84528186561602        0.14332128550951       -0.08265383887680
C            0.03870453581691        1.34756616250170       -0.05281421325280
O            0.46191427483919        2.47690335778447       -0.06563316256340
N           -1.31966695758660        1.03529884806424       -0.00815040384223
C           -2.26219623993609        2.14786399288446        0.00699395850445
C           -1.90868360517055       -0.21391875206744        0.01618054012040
O           -3.09437991467933       -0.37225360080891        0.05677402677673
N           -1.03872832013417       -1.33424770143649       -0.00941887757076
C           -1.60870565248310       -2.66631017329671        0.01932335666850
H            4.87125491711289        2.53557781337807        1.58229738129296
H            4.15944909021812        0.75488486425253       -0.28284956921775
H            2.74573698116356        1.99548403883480       -0.20307932466068
H            3.44477989524295       -1.78351541370980       -0.21867528519170
H           -1.69194859741135        3.07281529581687        0.02407151307132
H           -2.89244634238633        2.10858380097375       -0.88083579332858
H           -2.90041129560700        2.07750361185021        0.88672908601170
H           -1.28461001082770       -3.20167791175298        0.91223710588624
H           -1.33013834724886       -3.22243499325446       -0.87619421449450
H           -2.69251833039693       -2.55583066776780        0.04574273805676
H            1.22105129186560       -3.02755956430200       -0.12858037518628

          :  Hamiltonian                  GFN2-xTB          :
         :: total energy             -42.083044976523 Eh    ::
         :: gradient norm              0.002891361198 Eh/a0 ::
         :: HOMO-LUMO gap              0.292118944677 eV    ::
         :: SCC energy               -42.607437557043 Eh    ::
         :: -> dispersion             -0.022775849907 Eh    ::
         :: repulsion energy           0.524296294265 Eh    ::

    * Orbital Energies and Occupations

         #    Occupation            Energy/Eh            Energy/eV
      -------------------------------------------------------------
         1        2.0000           -0.9134287             -24.8557
       ...           ...                  ...                  ...
        25        2.0000           -0.6651560             -18.0998
        26        2.0000           -0.6616537             -18.0045
        27        2.0000           -0.6529829             -17.7686
        28        2.0000           -0.6414820             -17.4556
        29        2.0000           -0.6276429             -17.0790
        30        2.0000           -0.6229783             -16.9521
        31        2.0000           -0.6159716             -16.7614
        32        1.9999           -0.5932482             -16.1431
        33        1.9989           -0.5743146             -15.6279
        34        1.9913           -0.5579592             -15.1828
        35        1.9906           -0.5574160             -15.1681
        36        1.9875           -0.5551244             -15.1057
        37        1.3424           -0.5206246             -14.1669 (HOMO)
        38        0.6894           -0.5098894             -13.8748 (LUMO)
        39        0.0000           -0.4103068             -11.1650
        40        0.0000           -0.4011365             -10.9155
        41                         -0.3646829              -9.9235
        42                         -0.2822187              -7.6796
        43                         -0.2039232              -5.5490
        44                         -0.1875437              -5.1033
        45                         -0.1422015              -3.8695
        46                         -0.1114366              -3.0323
        47                         -0.0849177              -2.3107
        48                         -0.0490292              -1.3342
       ...                                ...                  ...
        67                          0.5656570              15.3923
      -------------------------------------------------------------
                  HL-Gap            0.0107352 Eh            0.2921 eV

     #   Z          covCN         q      C6AA      α(0)
     1   6 C        2.790    -0.064    29.573     8.908
     2   7 N        2.815     0.131    19.017     6.477
     3   6 C        3.038     0.033    27.219     8.557
     4   7 N        2.783    -0.055    22.304     7.014
     5   6 C        3.026     0.120    25.334     8.256
     6   6 C        3.110    -0.042    28.883     8.805
     7   6 C        2.764     0.275    22.344     7.741
     8   8 O        0.858    -0.371    21.112     6.160
     9   7 N        2.746    -0.086    22.925     7.111
    10   6 C        3.711    -0.062    21.828     6.677
    11   6 C        2.728     0.318    21.590     7.607
    12   8 O        0.859    -0.357    20.836     6.120
    13   7 N        2.739    -0.058    22.358     7.023
    14   6 C        3.696    -0.072    22.060     6.719
    15   1 H        0.000     0.081     4.916     4.054
    16   1 H        0.926     0.111     1.688     2.032
    17   1 H        0.926     0.145     1.424     1.866
    18   1 H        0.926     0.123     1.585     1.969
    19   1 H        0.925     0.112     1.682     2.028
    20   1 H        0.925     0.096     1.818     2.108
    21   1 H        0.925     0.098     1.804     2.100
    22   1 H        0.924     0.083     1.953     2.185
    23   1 H        0.924     0.082     1.962     2.191
    24   1 H        0.925     0.129     1.546     1.944
    25   1 H        0.860     0.230     0.965     1.539

Wiberg/Mayer (AO) data.
largest (>0.10) Wiberg bond orders for each atom

     #   Z sym  total        # sym  WBO       # sym  WBO       # sym  WBO
 ---------------------------------------------------------------------------
     1   6 C    3.430 --     2 N    1.321    16 H    0.965    17 H    0.955
     2   7 N    3.767 --     1 C    1.321     3 C    1.250     6 C    1.093
     3   6 C    3.679 --     4 N    1.267     2 N    1.250    18 H    0.954
     4   7 N    3.526 --     3 C    1.267     5 C    1.176    25 H    0.918
     5   6 C    3.947 --     6 C    1.364    13 N    1.230     4 N    1.176
     6   6 C    3.880 --     5 C    1.364     2 N    1.093     7 C    1.072
     7   6 C    3.965 --     8 O    1.698     9 N    1.101     6 C    1.072
     8   8 O    2.056 --     7 C    1.698     9 N    0.151
     9   7 N    3.559 --    11 C    1.129     7 C    1.101    10 C    0.968
                             8 O    0.151    12 O    0.141
    10   6 C    3.916 --    19 H    0.970     9 N    0.968    21 H    0.966
                            20 H    0.965
    11   6 C    3.960 --    12 O    1.718     9 N    1.129    13 N    1.021
    12   8 O    2.076 --    11 C    1.718     9 N    0.141    13 N    0.121
    13   7 N    3.550 --     5 C    1.230    11 C    1.021    14 C    0.975
                            12 O    0.121
    14   6 C    3.925 --    13 N    0.975    23 H    0.971    22 H    0.970
                            24 H    0.963
    15   1 H    0.093
    16   1 H    0.987 --     1 C    0.965
    17   1 H    0.979 --     1 C    0.955
    18   1 H    0.984 --     3 C    0.954
    19   1 H    0.987 --    10 C    0.970
    20   1 H    0.986 --    10 C    0.965
    21   1 H    0.986 --    10 C    0.966
    22   1 H    0.989 --    14 C    0.970
    23   1 H    0.989 --    14 C    0.971
    24   1 H    0.983 --    14 C    0.963
    25   1 H    0.946 --     4 N    0.918
 ---------------------------------------------------------------------------

molecular dipole:
                 x           y           z       tot (Debye)
 q only:        2.859      -1.924       0.015
   full:        3.171      -2.418      -0.003      10.136

           -------------------------------------------------
          | TOTAL ENERGY              -42.083044976523 Eh   |
          | GRADIENT NORM               0.002891361198 Eh/α |
          | HOMO-LUMO GAP               0.292118944677 eV   |
           -------------------------------------------------

 * finished run on 2024/06/05 at 19:57:54.120
