   * xtb version 6.6.1 (8d0f1dd) compiled by 'conda@1efc2f54142f' on 2023-08-01
          program call               : xtb struc.xyz --opt loose --input .xc1 --gfn2

   ID    Z sym.   atoms
    1    7 N      1, 17
    2    6 C      2-6, 8, 9, 11-16, 18-23, 25, 26, 28-33
    3    8 O      7, 10, 24, 27
    4    1 H      34-72
constraining bond 4 46 to    4.7133300 Å, actual value:    3.8763906 Å

          :  Hamiltonian                  GFN2-xTB          :
 * total energy  :   -99.5292016 Eh     change       -0.4035485E-08 Eh
 * total energy  :   -99.7377060 Eh     change       -0.2085044E+00 Eh
 * total energy  :   -99.9891317 Eh     change       -0.2514257E+00 Eh
 * total energy  :  -100.3405397 Eh     change       -0.3514079E+00 Eh
 * total energy  :  -100.7784403 Eh     change       -0.4379007E+00 Eh
 * total energy  :  -101.2418837 Eh     change       -0.4634433E+00 Eh
 * total energy  :  -100.9360297 Eh     change        0.3058540E+00 Eh
 * total energy  :  -101.4349712 Eh     change       -0.4989415E+00 Eh
 * total energy  :  -101.5350229 Eh     change       -0.1000517E+00 Eh
 * total energy  :  -101.6065072 Eh     change       -0.7148426E-01 Eh
 * total energy  :  -102.0240042 Eh     change       -0.1263535E-03 Eh
 * total energy  :  -102.0241155 Eh     change       -0.1113038E-03 Eh
 * total energy  :  -102.0242249 Eh     change       -0.1094274E-03 Eh
 * total energy  :  -102.0243281 Eh     change       -0.1031450E-03 Eh
 * total energy  :  -102.0244136 Eh     change       -0.8546980E-04 Eh
 * total energy  :  -102.0244898 Eh     change       -0.7620296E-04 Eh
 * total energy  :  -102.0245444 Eh     change       -0.5460143E-04 Eh
 * total energy  :  -102.0245856 Eh     change       -0.4126564E-04 Eh
 * total energy  :  -102.0246298 Eh     change       -0.4421867E-04 Eh
   *** GEOMETRY OPTIMIZATION CONVERGED AFTER 70 ITERATIONS ***

 final structure:
================
72
 xtb: 6.6.1 (8d0f1dd)
N           -2.09657054998613        2.59187945245864        2.37276788943637
C           -2.00169489632023        1.62549289433086        1.58308785301667
C           -2.96309896507136        1.38391760257857        0.45568257132791
C           -3.27312551240412       -0.19050735039750        0.44900318688193
C           -4.28122677152060       -0.52182396908366       -0.61137002241345
C           -5.40160796662185       -1.25745591652050       -0.39443705656756
O           -6.31342951583020       -1.60261681969793       -1.32700529172968
C           -6.14551209053731       -1.14676351213609       -2.64920796257841
C           -5.69974079451013       -1.76296879066711        0.92215513148776
O           -6.79252922240684       -2.51916943569693        1.01313636674620
C           -7.17453260814352       -3.06599961445961        2.25747127996038
C           -4.84053928488477       -1.43132313948193        1.98370839113994
C           -3.73958248617658       -0.65772351472752        1.79209302916567
C           -2.15125571469401        1.69605627850468       -0.84496088891575
C           -1.12928695581015        0.66613541419216       -1.20228820988458
C            0.16153285689776        0.76235571896140       -0.83512988913060
N            1.13577589828633       -0.14928881049558       -1.07759057972362
C            2.48203546329980        0.04702756240404       -0.61186534694764
C            3.48208606231850        0.32927679876237       -1.75166243942923
C            4.87773211020778        0.42601655292229       -1.20542514272557
C            5.55491942905044        1.63434025719076       -1.16253766129488
C            6.83745330220520        1.71341664880773       -0.64112660541853
C            7.46600911028461        0.58508209212616       -0.13370880565810
O            8.70028162835721        0.54416546067103        0.40025273164131
C            9.47139662814931        1.72242014310477        0.44497853452918
C            6.77547839785125       -0.65927666637841       -0.16261632863639
O            7.45058109733311       -1.70204417280767        0.35972279092824
C            6.83986476976770       -2.96938742288876        0.39766250383448
C            5.50177536899657       -0.71556014311263       -0.70443537626392
C            0.85009468165380       -1.33781408475058       -1.84085223582171
C           -4.24265545505561        2.24857343217462        0.50092381349684
C           -4.99708463322817        2.13886782760237        1.82336716097399
C           -3.95982257133667        3.72845649602930        0.23266394900125
H           -4.04448070880439       -0.18112279855074       -1.60588404770297
H           -6.13988618889212       -0.05290948175656       -2.69626380378968
H           -7.00472107200247       -1.52623344469028       -3.19866225812602
H           -5.22722145231097       -1.54010887311599       -3.09688949606994
H           -7.41811899868106       -2.28149304948725        2.97942113740437
H           -8.06700195201337       -3.65245253875525        2.05313665288223
H           -6.39397896407685       -3.71282987738899        2.66805576520585
H           -5.07607757459318       -1.77533460458935        2.97918768065490
H           -3.11304929497462       -0.41070252301441        2.63498712840726
H           -2.86121636324814        1.80029648248100       -1.66674938194650
H           -1.66025705781262        2.65914033928051       -0.69932948260472
H           -1.47024437867896       -0.17583708114535       -1.78276500364642
H           -2.61382866253395       -0.49886512295886        0.29406360664887
H           -1.17935407445039        0.89199221684936        1.60935768094632
H            0.48846475542431        1.62926667163210       -0.27582126856331
H            2.80522911316614       -0.84976521857365       -0.07040409994402
H            2.49940821506368        0.88587585285310        0.08728327737877
H            3.20549158825234        1.26005633275831       -2.24827729176981
H            3.43046201761492       -0.47775401051971       -2.48561504442357
H            5.08829912508086        2.52748279455052       -1.54836206446316
H            7.34195168853841        2.66556979732139       -0.63314536579022
H            8.99131907430720        2.49307505036259        1.05552891377169
H            9.65916333889152        2.11529094194771       -0.55864789312442
H           10.41596463101851        1.43567613564060        0.90349148407580
H            7.56217104347095       -3.62789421535009        0.87597003398082
H            5.91897418069945       -2.95278142786069        0.98947503318850
H            6.62254891831698       -3.34127313925313       -0.60831923679675
H            4.98254357451930       -1.65994937551774       -0.75258330993571
H            0.57554551356238       -1.08775873895778       -2.87011244794064
H            0.02663857074367       -1.89606233274792       -1.38783347437962
H            1.72858342979406       -1.97801026394921       -1.86076384446041
H           -4.89821964936208        1.87251752317164       -0.29480774686142
H           -4.39391215721242        2.54619899861821        2.62883812576173
H           -5.25124930594883        1.10946608930351        2.05368266604413
H           -5.91978581041714        2.70977424453832        1.76090380966017
H           -3.24487856615387        4.10540805526014        0.95662791282890
H           -3.58300516643481        3.90002692225181       -0.77079288956748
H           -4.88316164184669        4.29134862577322        0.33946212652447
H           -1.37631495112579        2.69105729657262        3.08136391871107

          :  Hamiltonian                  GFN2-xTB          :
         :: total energy            -102.024629845178 Eh    ::
         :: gradient norm              0.003920432590 Eh/a0 ::
         :: HOMO-LUMO gap              1.164852062275 eV    ::
         :: SCC energy              -100.776209526145 Eh    ::
         :: -> dispersion             -0.073175224428 Eh    ::
         :: repulsion energy           1.563755185064 Eh    ::

    * Orbital Energies and Occupations

         #    Occupation            Energy/Eh            Energy/eV
      -------------------------------------------------------------
         1        2.0000           -0.8246293             -22.4393
       ...           ...                  ...                  ...
        78        1.9981           -0.5286030             -14.3840
        79        1.9980           -0.5273922             -14.3511
        80        1.9978           -0.5256873             -14.3047
        81        1.9977           -0.5250178             -14.2865
        82        1.9960           -0.5165949             -14.0573
        83        1.9957           -0.5154000             -14.0247
        84        1.9950           -0.5130647             -13.9612
        85        1.9911           -0.5038521             -13.7105
        86        1.9699           -0.4843496             -13.1798
        87        1.9658           -0.4823050             -13.1242
        88        1.9210           -0.4686870             -12.7536
        89        1.8225           -0.4550268             -12.3819
        90        1.7345           -0.4478715             -12.1872 (HOMO)
        91        0.6087           -0.4050640             -11.0224 (LUMO)
        92        0.0114           -0.3364886              -9.1563
        93        0.0035           -0.3178553              -8.6493
        94        0.0020           -0.3090935              -8.4109
        95        0.0016           -0.3056667              -8.3176
        96        0.0006           -0.2886095              -7.8535
        97        0.0000           -0.2330100              -6.3405
        98        0.0000           -0.1832146              -4.9855
        99                         -0.1072701              -2.9190
       100                         -0.0770762              -2.0974
       101                         -0.0734942              -1.9999
       ...                                ...                  ...
       171                          1.4216384              38.6847
      -------------------------------------------------------------
                  HL-Gap            0.0428075 Eh            1.1649 eV

     #   Z          covCN         q      C6AA      α(0)
     1   7 N        1.774    -0.275    27.941     7.828
     2   6 C        2.827     0.099    25.794     8.322
     3   6 C        3.895     0.012    20.315     6.407
     4   6 C        3.860    -0.055    21.512     6.596
     5   6 C        2.903    -0.082    30.048     8.988
     6   6 C        2.848     0.134    25.059     8.204
     7   8 O        1.706    -0.235    17.887     5.710
     8   6 C        3.645     0.026    20.473     6.503
     9   6 C        2.863     0.141    24.921     8.183
    10   8 O        1.706    -0.192    17.210     5.601
    11   6 C        3.645     0.019    20.598     6.523
    12   6 C        2.898    -0.063    29.577     8.917
    13   6 C        2.906    -0.034    28.848     8.807
    14   6 C        3.815    -0.064    21.711     6.632
    15   6 C        2.890    -0.082    30.059     8.989
    16   6 C        2.841     0.009    27.819     8.644
    17   7 N        2.732    -0.045    22.105     6.983
    18   6 C        3.750    -0.007    20.760     6.498
    19   6 C        3.807    -0.072    21.869     6.657
    20   6 C        2.968     0.006    27.889     8.662
    21   6 C        2.921    -0.045    29.117     8.849
    22   6 C        2.913    -0.066    29.641     8.928
    23   6 C        2.864     0.134    25.067     8.207
    24   8 O        1.706    -0.219    17.642     5.671
    25   6 C        3.645     0.024    20.497     6.507
    26   6 C        2.862     0.134    25.073     8.208
    27   8 O        1.706    -0.223    17.699     5.680
    28   6 C        3.645     0.027    20.450     6.499
    29   6 C        2.920    -0.078    29.961     8.976
    30   6 C        3.699    -0.057    21.774     6.674
    31   6 C        3.850    -0.009    20.695     6.471
    32   6 C        3.757    -0.121    22.877     6.819
    33   6 C        3.757    -0.120    22.856     6.816
    34   1 H        0.926     0.058     2.217     2.328
    35   1 H        0.924     0.051     2.305     2.374
    36   1 H        0.925     0.083     1.948     2.182
    37   1 H        0.924     0.049     2.328     2.386
    38   1 H        0.924     0.065     2.144     2.290
    39   1 H        0.925     0.090     1.880     2.144
    40   1 H        0.924     0.063     2.168     2.303
    41   1 H        0.926     0.063     2.161     2.299
    42   1 H        0.926     0.054     2.267     2.354
    43   1 H        0.924     0.057     2.229     2.335
    44   1 H        0.924     0.058     2.228     2.334
    45   1 H        0.926     0.037     2.482     2.464
    46   1 H        0.931     0.138     1.478     1.901
    47   1 H        0.923     0.008     2.926     2.675
    48   1 H        0.925     0.047     2.357     2.401
    49   1 H        0.924     0.053     2.282     2.362
    50   1 H        0.924     0.058     2.227     2.334
    51   1 H        0.924     0.055     2.258     2.350
    52   1 H        0.924     0.057     2.238     2.339
    53   1 H        0.926     0.052     2.297     2.370
    54   1 H        0.926     0.060     2.200     2.319
    55   1 H        0.924     0.056     2.249     2.345
    56   1 H        0.924     0.057     2.230     2.335
    57   1 H        0.925     0.083     1.952     2.185
    58   1 H        0.925     0.082     1.961     2.190
    59   1 H        0.924     0.049     2.333     2.389
    60   1 H        0.924     0.053     2.279     2.361
    61   1 H        0.926     0.047     2.356     2.400
    62   1 H        0.924     0.063     2.163     2.300
    63   1 H        0.924     0.058     2.217     2.329
    64   1 H        0.925     0.066     2.125     2.280
    65   1 H        0.924     0.036     2.507     2.476
    66   1 H        0.925     0.067     2.117     2.275
    67   1 H        0.925     0.035     2.520     2.483
    68   1 H        0.925     0.052     2.295     2.369
    69   1 H        0.925     0.066     2.126     2.280
    70   1 H        0.925     0.039     2.458     2.452
    71   1 H        0.925     0.054     2.272     2.357
    72   1 H        0.860     0.157     1.352     1.822

Wiberg/Mayer (AO) data.
largest (>0.10) Wiberg bond orders for each atom

     #   Z sym  total        # sym  WBO       # sym  WBO       # sym  WBO
 ---------------------------------------------------------------------------
     1   7 N    3.004 --     2 C    1.944    72 H    0.942
     2   6 C    3.942 --     1 N    1.944     3 C    1.003    47 H    0.932
     3   6 C    3.902 --     2 C    1.003    31 C    0.972    14 C    0.927
                             4 C    0.866
     4   6 C    3.972 --    13 C    1.046     5 C    1.037    46 H    0.915
                             3 C    0.866
     5   6 C    3.802 --     6 C    1.570     4 C    1.037    34 H    0.959
                             7 O    0.105
     6   6 C    3.932 --     5 C    1.570     9 C    1.136     7 O    1.093
     7   8 O    2.260 --     6 C    1.093     8 C    0.977     5 C    0.105
     8   6 C    3.932 --     7 O    0.977    36 H    0.977    35 H    0.974
                            37 H    0.974
     9   6 C    3.693 --    12 C    1.274    10 O    1.163     6 C    1.136
    10   8 O    2.275 --     9 C    1.163    11 C    0.968
    11   6 C    3.921 --    39 H    0.976    40 H    0.971    38 H    0.971
                            10 O    0.968
    12   6 C    3.976 --    13 C    1.601     9 C    1.274    41 H    0.958
    13   6 C    3.745 --    12 C    1.601     4 C    1.046    42 H    0.965
    14   6 C    3.984 --    15 C    1.036    44 H    0.964    43 H    0.960
                             3 C    0.927
    15   6 C    3.820 --    16 C    1.668    14 C    1.036    45 H    0.963
    16   6 C    3.936 --    15 C    1.668    17 N    1.220    48 H    0.955
    17   7 N    3.382 --    16 C    1.220    30 C    1.006    18 C    1.004
    18   6 C    3.963 --    17 N    1.004    50 H    0.970    19 C    0.969
                            49 H    0.961
    19   6 C    3.977 --    20 C    1.012    51 H    0.975    18 C    0.969
                            52 H    0.963
    20   6 C    3.932 --    21 C    1.404    29 C    1.376    19 C    1.012
    21   6 C    3.937 --    22 C    1.417    20 C    1.404    53 H    0.967
    22   6 C    3.952 --    21 C    1.417    23 C    1.381    54 H    0.963
    23   6 C    3.882 --    22 C    1.381    26 C    1.213    24 O    1.112
    24   8 O    2.248 --    23 C    1.112    25 C    0.976
    25   6 C    3.927 --    57 H    0.977    24 O    0.976    56 H    0.972
                            55 H    0.972
    26   6 C    3.888 --    29 C    1.396    23 C    1.213    27 O    1.105
    27   8 O    2.249 --    26 C    1.105    28 C    0.979
    28   6 C    3.931 --    27 O    0.979    58 H    0.977    59 H    0.973
                            60 H    0.972
    29   6 C    3.954 --    26 C    1.396    20 C    1.376    61 H    0.961
    30   6 C    3.968 --    17 N    1.006    64 H    0.979    63 H    0.970
                            62 H    0.970
    31   6 C    3.976 --    32 C    1.007    33 C    1.002     3 C    0.972
                            65 H    0.957
    32   6 C    3.975 --    31 C    1.007    68 H    0.980    66 H    0.974
                            67 H    0.971
    33   6 C    3.975 --    31 C    1.002    70 H    0.982    71 H    0.981
                            69 H    0.976
    34   1 H    0.995 --     5 C    0.959
    35   1 H    0.995 --     8 C    0.974
    36   1 H    0.992 --     8 C    0.977
    37   1 H    0.995 --     8 C    0.974
    38   1 H    0.989 --    11 C    0.971
    39   1 H    0.991 --    11 C    0.976
    40   1 H    0.990 --    11 C    0.971
    41   1 H    0.994 --    12 C    0.958
    42   1 H    0.997 --    13 C    0.965
    43   1 H    0.991 --    14 C    0.960
    44   1 H    0.991 --    14 C    0.964
    45   1 H    0.998 --    15 C    0.963
    46   1 H    0.961 --     4 C    0.915
    47   1 H    0.982 --     2 C    0.932
    48   1 H    0.997 --    16 C    0.955
    49   1 H    0.989 --    18 C    0.961
    50   1 H    0.996 --    18 C    0.970
    51   1 H    0.996 --    19 C    0.975
    52   1 H    0.993 --    19 C    0.963
    53   1 H    0.996 --    21 C    0.967
    54   1 H    0.994 --    22 C    0.963
    55   1 H    0.990 --    25 C    0.972
    56   1 H    0.990 --    25 C    0.972
    57   1 H    0.992 --    25 C    0.977
    58   1 H    0.993 --    28 C    0.977
    59   1 H    0.992 --    28 C    0.973
    60   1 H    0.992 --    28 C    0.972
    61   1 H    0.996 --    29 C    0.961
    62   1 H    0.986 --    30 C    0.970
    63   1 H    0.988 --    30 C    0.970
    64   1 H    0.995 --    30 C    0.979
    65   1 H    0.992 --    31 C    0.957
    66   1 H    0.992 --    32 C    0.974
    67   1 H    0.996 --    32 C    0.971
    68   1 H    0.994 --    32 C    0.980
    69   1 H    0.991 --    33 C    0.976
    70   1 H    0.996 --    33 C    0.982
    71   1 H    0.994 --    33 C    0.981
    72   1 H    0.968 --     1 N    0.942
 ---------------------------------------------------------------------------

molecular dipole:
                 x           y           z       tot (Debye)
 q only:       -0.205      -0.642      -0.067
   full:        0.148      -0.853      -0.047       2.205

           -------------------------------------------------
          | TOTAL ENERGY             -102.024629845178 Eh   |
          | GRADIENT NORM               0.003920432590 Eh/α |
          | HOMO-LUMO GAP               1.164852062275 eV   |
           -------------------------------------------------

 * finished run on 2024/04/06 at 11:15:51.490
