   * xtb version 6.6.1 (8d0f1dd) compiled by 'conda@1efc2f54142f' on 2023-08-01
          program call               : xtb xtbopt.xyz --opt crude --input .xc2 --gfn2

   ID    Z sym.   atoms
    1    7 N      1, 17
    2    6 C      2-6, 8, 9, 11-16, 18-23, 25, 26, 28-33
    3    8 O      7, 10, 24, 27
    4    1 H      34-72
########################################################################
[WARNING] Please study the warnings concerning your input carefully
-1- readin_getIntValue: could not parse ''
########################################################################

          :  Hamiltonian                  GFN2-xTB          :
 * total energy  :   -99.2116368 Eh     change       -0.9805490E-12 Eh
 * total energy  :   -99.3732402 Eh     change       -0.1616034E+00 Eh
 * total energy  :   -99.3755669 Eh     change       -0.2326697E-02 Eh
 * total energy  :   -99.3766183 Eh     change       -0.1051421E-02 Eh
 * total energy  :   -99.3769300 Eh     change       -0.3116113E-03 Eh
   *** GEOMETRY OPTIMIZATION CONVERGED AFTER 5 ITERATIONS ***

 final structure:
================
72
 xtb: 6.6.1 (8d0f1dd)
N           -2.10075119493295        2.59778309824452        2.37294848198525
C           -2.01026501734209        1.62792675200262        1.58738467816031
C           -2.97016324652583        1.38374611553523        0.45720580044855
C           -3.32945942298911       -0.15303259687677        0.46559486163262
C           -4.29749681971658       -0.51032547031355       -0.60598357760592
C           -5.41067294907904       -1.26132393932707       -0.39364640644113
O           -6.31570606525856       -1.61781892042430       -1.33018997570033
C           -6.15002969412434       -1.15390764454152       -2.64981379194483
C           -5.70507631178605       -1.76980769546737        0.92167509582974
O           -6.80136660430695       -2.51979102844299        1.01177118679137
C           -7.18380795152198       -3.06674115151777        2.25512853095099
C           -4.84371443795083       -1.44332032956460        1.98270524739174
C           -3.75181350177134       -0.65240313247573        1.79556649295488
C           -2.15446922263510        1.69215330167431       -0.84269981827891
C           -1.13414968747689        0.66062373043059       -1.19991743657083
C            0.15678539428203        0.75384770331195       -0.82618835410052
N            1.13224428602223       -0.15504191732453       -1.06794945093214
C            2.47962169664165        0.04440632374241       -0.60465815808955
C            3.47729986693690        0.32676409266094       -1.74587205498933
C            4.87398651218823        0.42545412709613       -1.20218796911833
C            5.54886725154053        1.63518116155815       -1.15778017667324
C            6.83248715091730        1.71585696151980       -0.63935208251001
C            7.46477282453236        0.58754261569629       -0.13596823687541
O            8.70012712210142        0.54774164106807        0.39556187677114
C            9.46877696338356        1.72762804191862        0.44318859244334
C            6.77704183665874       -0.65834049875237       -0.16704033871881
O            7.45617169631984       -1.70132455833892        0.35057024775460
C            6.84872980312420       -2.97033943889656        0.38651394480515
C            5.50217498386495       -0.71601884860573       -0.70596924462716
C            0.84796242553611       -1.34523106341294       -1.82836219123394
C           -4.24249837900339        2.26638178343948        0.49872030391446
C           -5.00291613300850        2.15802925100284        1.81832081294366
C           -3.94924571392366        3.74422287222006        0.23301468913096
H           -4.06346946319804       -0.16169449261148       -1.59763878776870
H           -6.14651703156038       -0.06058059568520       -2.69224416032229
H           -7.00637324783330       -1.53344835033598       -3.20322585308579
H           -5.22955152898804       -1.54144646681255       -3.09729765414382
H           -7.41488567725987       -2.28156660059319        2.98049245816079
H           -8.08075601121507       -3.64967472041579        2.05476593135353
H           -6.40765004888167       -3.72296975322402        2.65866944957100
H           -5.06736244971529       -1.80486667643439        2.97437398348554
H           -3.12580344349209       -0.40177579342160        2.63787659518235
H           -2.86191242035649        1.79835230027716       -1.66607411171928
H           -1.66139895996167        2.65349421321039       -0.69493827093702
H           -1.46882610413038       -0.16475196958196       -1.80871059739354
H           -2.36367404821815       -0.62350289189112        0.23350851458316
H           -1.19209082626180        0.89111934529752        1.61665201388554
H            0.48057879173937        1.61543528555097       -0.25647755674302
H            2.80452329491907       -0.85141246694154       -0.06299007856114
H            2.49667532871415        0.88338614650513        0.09363517574783
H            3.19929132139600        1.25610046135307       -2.24384699686097
H            3.42549955020815       -0.48108855521031       -2.47842256758673
H            5.07976763285507        2.52866771163206       -1.54013515224106
H            7.33485063772086        2.66926987506271       -0.63035748520500
H            8.98781901313458        2.49490641655361        1.05735194011465
H            9.65415562210323        2.12458070561983       -0.55931478138184
H           10.41469343607221        1.44114996164408        0.89890682202494
H            7.57411573367673       -3.62862992819095        0.86072115168121
H            5.92955447555526       -2.95771912879432        0.98130854489146
H            6.62935901855999       -3.34010156759594       -0.61995683933298
H            4.98536748291543       -1.66175398189833       -0.75566096785194
H            0.57129256905697       -1.09929232324300       -2.85692454370243
H            0.02550199928230       -1.90369790357859       -1.37370610196170
H            1.72583185316575       -1.98509713059014       -1.84678206271444
H           -4.89885271833563        1.89735280083347       -0.29990994527185
H           -4.40278559504207        2.56520968090553        2.62632531933072
H           -5.25728084631450        1.12824625089818        2.04819692441759
H           -5.92545038288923        2.72929284266663        1.75278094176282
H           -3.23218837058412        4.11732477506801        0.95772177804206
H           -3.57031573081825        3.91500348575878       -0.77055541556076
H           -4.86921923617267        4.31333140067090        0.33997743364262
H           -1.37944548353221        2.69646582120695        3.08087821556726

          :  Hamiltonian                  GFN2-xTB          :
         :: total energy             -99.376929958273 Eh    ::
         :: gradient norm              0.009732015803 Eh/a0 ::
         :: HOMO-LUMO gap              1.189673632956 eV    ::
         :: SCC energy              -100.752026883934 Eh    ::
         :: -> dispersion             -0.073148928783 Eh    ::
         :: repulsion energy           1.374273941939 Eh    ::

    * Orbital Energies and Occupations

         #    Occupation            Energy/Eh            Energy/eV
      -------------------------------------------------------------
         1        2.0000           -0.8247794             -22.4434
       ...           ...                  ...                  ...
        78        1.9981           -0.5283586             -14.3774
        79        1.9980           -0.5273348             -14.3495
        80        1.9977           -0.5255619             -14.3013
        81        1.9977           -0.5250577             -14.2875
        82        1.9959           -0.5159954             -14.0409
        83        1.9956           -0.5150250             -14.0145
        84        1.9948           -0.5124600             -13.9447
        85        1.9913           -0.5041834             -13.7195
        86        1.9700           -0.4844341             -13.1821
        87        1.9652           -0.4820566             -13.1174
        88        1.9201           -0.4685195             -12.7491
        89        1.8249           -0.4552889             -12.3890
        90        1.7429           -0.4484843             -12.2039 (HOMO)
        91        0.6000           -0.4047646             -11.0142 (LUMO)
        92        0.0112           -0.3361323              -9.1466
        93        0.0035           -0.3176983              -8.6450
        94        0.0021           -0.3092276              -8.4145
        95        0.0017           -0.3058007              -8.3213
        96        0.0006           -0.2898123              -7.8862
        97        0.0000           -0.2330580              -6.3418
        98        0.0000           -0.1833596              -4.9895
        99                         -0.1078581              -2.9350
       100                         -0.0754524              -2.0532
       101                         -0.0662490              -1.8027
       ...                                ...                  ...
       171                          0.5803464              15.7920
      -------------------------------------------------------------
                  HL-Gap            0.0437197 Eh            1.1897 eV

     #   Z          covCN         q      C6AA      α(0)
     1   7 N        1.774    -0.274    27.915     7.824
     2   6 C        2.827     0.100    25.770     8.318
     3   6 C        3.899     0.012    20.315     6.407
     4   6 C        3.862    -0.019    20.880     6.498
     5   6 C        2.904    -0.078    29.945     8.973
     6   6 C        2.849     0.134    25.057     8.204
     7   8 O        1.706    -0.234    17.879     5.709
     8   6 C        3.645     0.026    20.471     6.503
     9   6 C        2.863     0.142    24.912     8.181
    10   8 O        1.706    -0.192    17.205     5.600
    11   6 C        3.645     0.019    20.594     6.522
    12   6 C        2.899    -0.064    29.581     8.918
    13   6 C        2.906    -0.030    28.742     8.791
    14   6 C        3.815    -0.064    21.709     6.632
    15   6 C        2.890    -0.081    30.015     8.982
    16   6 C        2.842     0.009    27.806     8.642
    17   7 N        2.732    -0.044    22.095     6.981
    18   6 C        3.750    -0.007    20.763     6.499
    19   6 C        3.807    -0.072    21.869     6.657
    20   6 C        2.968     0.006    27.890     8.663
    21   6 C        2.921    -0.045    29.117     8.849
    22   6 C        2.913    -0.066    29.641     8.928
    23   6 C        2.864     0.134    25.066     8.207
    24   8 O        1.706    -0.219    17.642     5.671
    25   6 C        3.645     0.024    20.498     6.507
    26   6 C        2.862     0.134    25.074     8.208
    27   8 O        1.706    -0.223    17.701     5.680
    28   6 C        3.645     0.027    20.450     6.500
    29   6 C        2.920    -0.078    29.959     8.976
    30   6 C        3.699    -0.057    21.766     6.672
    31   6 C        3.850    -0.008    20.694     6.470
    32   6 C        3.757    -0.120    22.846     6.815
    33   6 C        3.756    -0.120    22.846     6.815
    34   1 H        0.926     0.060     2.204     2.322
    35   1 H        0.924     0.051     2.306     2.375
    36   1 H        0.925     0.083     1.946     2.181
    37   1 H        0.924     0.049     2.329     2.386
    38   1 H        0.924     0.065     2.145     2.290
    39   1 H        0.925     0.090     1.881     2.145
    40   1 H        0.924     0.062     2.170     2.304
    41   1 H        0.926     0.064     2.153     2.295
    42   1 H        0.926     0.055     2.257     2.349
    43   1 H        0.924     0.057     2.236     2.338
    44   1 H        0.924     0.058     2.227     2.334
    45   1 H        0.926     0.038     2.470     2.458
    46   1 H        0.923     0.085     1.925     2.170
    47   1 H        0.923     0.008     2.930     2.677
    48   1 H        0.925     0.047     2.352     2.398
    49   1 H        0.924     0.053     2.278     2.360
    50   1 H        0.924     0.058     2.224     2.332
    51   1 H        0.924     0.055     2.257     2.349
    52   1 H        0.924     0.057     2.237     2.339
    53   1 H        0.926     0.052     2.297     2.370
    54   1 H        0.926     0.060     2.200     2.319
    55   1 H        0.924     0.056     2.248     2.345
    56   1 H        0.924     0.057     2.230     2.335
    57   1 H        0.925     0.083     1.952     2.185
    58   1 H        0.925     0.082     1.961     2.190
    59   1 H        0.924     0.049     2.333     2.389
    60   1 H        0.924     0.053     2.279     2.361
    61   1 H        0.926     0.047     2.357     2.401
    62   1 H        0.924     0.063     2.161     2.299
    63   1 H        0.924     0.058     2.227     2.334
    64   1 H        0.925     0.067     2.121     2.277
    65   1 H        0.924     0.035     2.515     2.480
    66   1 H        0.925     0.067     2.124     2.279
    67   1 H        0.925     0.034     2.532     2.488
    68   1 H        0.925     0.052     2.301     2.372
    69   1 H        0.925     0.066     2.129     2.282
    70   1 H        0.925     0.039     2.463     2.454
    71   1 H        0.925     0.054     2.275     2.359
    72   1 H        0.860     0.158     1.350     1.820

Wiberg/Mayer (AO) data.
largest (>0.10) Wiberg bond orders for each atom

     #   Z sym  total        # sym  WBO       # sym  WBO       # sym  WBO
 ---------------------------------------------------------------------------
     1   7 N    3.006 --     2 C    1.948    72 H    0.942
     2   6 C    3.942 --     1 N    1.948     3 C    1.000    47 H    0.931
     3   6 C    3.917 --     2 C    1.000    31 C    0.968    14 C    0.927
                             4 C    0.896
     4   6 C    3.981 --    13 C    1.056     5 C    1.045     3 C    0.896
                            46 H    0.880
     5   6 C    3.804 --     6 C    1.566     4 C    1.045    34 H    0.959
                             7 O    0.104
     6   6 C    3.932 --     5 C    1.566     9 C    1.138     7 O    1.093
     7   8 O    2.259 --     6 C    1.093     8 C    0.977     5 C    0.104
     8   6 C    3.932 --     7 O    0.977    36 H    0.977    35 H    0.974
                            37 H    0.974
     9   6 C    3.697 --    12 C    1.276    10 O    1.163     6 C    1.138
    10   8 O    2.276 --     9 C    1.163    11 C    0.968
    11   6 C    3.921 --    39 H    0.976    40 H    0.971    38 H    0.971
                            10 O    0.968
    12   6 C    3.975 --    13 C    1.594     9 C    1.276    41 H    0.959
    13   6 C    3.748 --    12 C    1.594     4 C    1.056    42 H    0.965
    14   6 C    3.985 --    15 C    1.036    44 H    0.964    43 H    0.961
                             3 C    0.927
    15   6 C    3.824 --    16 C    1.659    14 C    1.036    45 H    0.962
    16   6 C    3.934 --    15 C    1.659    17 N    1.224    48 H    0.955
    17   7 N    3.387 --    16 C    1.224    30 C    1.006    18 C    1.003
    18   6 C    3.963 --    17 N    1.003    50 H    0.970    19 C    0.969
                            49 H    0.961
    19   6 C    3.977 --    20 C    1.012    51 H    0.975    18 C    0.969
                            52 H    0.963
    20   6 C    3.933 --    21 C    1.404    29 C    1.376    19 C    1.012
    21   6 C    3.937 --    22 C    1.417    20 C    1.404    53 H    0.967
    22   6 C    3.952 --    21 C    1.417    23 C    1.381    54 H    0.963
    23   6 C    3.882 --    22 C    1.381    26 C    1.213    24 O    1.112
    24   8 O    2.248 --    23 C    1.112    25 C    0.976
    25   6 C    3.927 --    57 H    0.977    24 O    0.976    56 H    0.972
                            55 H    0.972
    26   6 C    3.888 --    29 C    1.396    23 C    1.213    27 O    1.104
    27   8 O    2.249 --    26 C    1.104    28 C    0.979
    28   6 C    3.931 --    27 O    0.979    58 H    0.977    59 H    0.973
                            60 H    0.972
    29   6 C    3.955 --    26 C    1.396    20 C    1.376    61 H    0.961
    30   6 C    3.968 --    17 N    1.006    64 H    0.979    63 H    0.971
                            62 H    0.970
    31   6 C    3.977 --    32 C    1.007    33 C    1.004     3 C    0.968
                            65 H    0.957
    32   6 C    3.975 --    31 C    1.007    68 H    0.980    66 H    0.975
                            67 H    0.971
    33   6 C    3.976 --    31 C    1.004    70 H    0.982    71 H    0.981
                            69 H    0.976
    34   1 H    0.995 --     5 C    0.959
    35   1 H    0.995 --     8 C    0.974
    36   1 H    0.992 --     8 C    0.977
    37   1 H    0.995 --     8 C    0.974
    38   1 H    0.989 --    11 C    0.971
    39   1 H    0.991 --    11 C    0.976
    40   1 H    0.990 --    11 C    0.971
    41   1 H    0.994 --    12 C    0.959
    42   1 H    0.997 --    13 C    0.965
    43   1 H    0.991 --    14 C    0.961
    44   1 H    0.992 --    14 C    0.964
    45   1 H    0.998 --    15 C    0.962
    46   1 H    0.950 --     4 C    0.880
    47   1 H    0.982 --     2 C    0.931
    48   1 H    0.997 --    16 C    0.955
    49   1 H    0.989 --    18 C    0.961
    50   1 H    0.996 --    18 C    0.970
    51   1 H    0.996 --    19 C    0.975
    52   1 H    0.993 --    19 C    0.963
    53   1 H    0.996 --    21 C    0.967
    54   1 H    0.994 --    22 C    0.963
    55   1 H    0.990 --    25 C    0.972
    56   1 H    0.990 --    25 C    0.972
    57   1 H    0.992 --    25 C    0.977
    58   1 H    0.993 --    28 C    0.977
    59   1 H    0.992 --    28 C    0.973
    60   1 H    0.992 --    28 C    0.972
    61   1 H    0.996 --    29 C    0.961
    62   1 H    0.986 --    30 C    0.970
    63   1 H    0.988 --    30 C    0.971
    64   1 H    0.995 --    30 C    0.979
    65   1 H    0.992 --    31 C    0.957
    66   1 H    0.992 --    32 C    0.975
    67   1 H    0.996 --    32 C    0.971
    68   1 H    0.994 --    32 C    0.980
    69   1 H    0.991 --    33 C    0.976
    70   1 H    0.996 --    33 C    0.982
    71   1 H    0.994 --    33 C    0.981
    72   1 H    0.968 --     1 N    0.942
 ---------------------------------------------------------------------------

molecular dipole:
                 x           y           z       tot (Debye)
 q only:       -0.219      -0.634      -0.062
   full:        0.152      -0.852      -0.049       2.203

           -------------------------------------------------
          | TOTAL ENERGY              -99.376929958273 Eh   |
          | GRADIENT NORM               0.009732015803 Eh/α |
          | HOMO-LUMO GAP               1.189673632956 eV   |
           -------------------------------------------------

 * finished run on 2024/04/06 at 11:15:52.593
