   * xtb version 6.6.1 (8d0f1dd) compiled by 'conda@1efc2f54142f' on 2023-08-01
          program call               : xtb xtbopt.xyz --opt crude --input .xc2 --gfn2

   ID    Z sym.   atoms
    1    6 C      1, 3, 5-7, 10, 11, 14
    2    7 N      2, 4, 9, 13
    3    8 O      8, 12
    4    1 H      15-25

          :  Hamiltonian                  GFN2-xTB          :
 * total energy  :   -42.0748853 Eh     change       -0.2138734E-11 Eh
   *** GEOMETRY OPTIMIZATION CONVERGED AFTER 1 ITERATIONS ***

 final structure:
================
25
 xtb: 6.6.1 (8d0f1dd)
C            3.42909794533065        1.26173394625766        0.02376156828666
N            2.47783978247296        0.18384327606098        0.02746991716688
C            2.75439956591369       -1.12640913319633        0.05090548329800
N            1.60445030656622       -1.83927652815269        0.05000117976684
C            0.55917014068771       -0.95353669941449        0.02136507581526
C            1.10822784794496        0.32537238254095        0.00900097135194
C            0.29494816367926        1.51061742807320       -0.02620224027061
O            0.67142673386029        2.66545043274482       -0.04310938209566
N           -1.08568487129495        1.16221966235084       -0.05017105866826
C           -2.01124742076493        2.28146471082550       -0.07340052066477
C           -1.59314376902095       -0.05303871087564       -0.03948007382830
O           -4.19458280456676       -3.04802852710379       -0.12825842845056
N           -0.79909855671150       -1.17036373165851        0.00619023029223
C           -1.35455762686060       -2.38720471964634        0.03684718076775
H            4.02552367028455        1.24498214219928        0.93728960432374
H            4.09838782507279        1.17520710087090       -0.83300187133960
H            2.88823669118666        2.20602455021867       -0.03393675406346
H            3.73880706324209       -1.54956744201747        0.07049624007653
H           -1.51898299414820        3.13855895884069       -0.53046008104199
H           -2.90296506251067        2.00462194115493       -0.62835724800620
H           -2.29642559687737        2.54900833483064        0.94456490417986
H           -0.73196354744794       -3.25932946569968        0.08658510827794
H           -2.43391541669315       -2.48062377425743       -0.00019615625186
H           -5.11516362817894       -3.17587075697017        0.10119546273690
H            1.54764707294359       -2.84761683643811        0.05207250620774

          :  Hamiltonian                  GFN2-xTB          :
         :: total energy             -42.074885312939 Eh    ::
         :: gradient norm              0.002772751311 Eh/a0 ::
         :: HOMO-LUMO gap              0.976717892575 eV    ::
         :: SCC energy               -42.583964433633 Eh    ::
         :: -> dispersion             -0.021363239792 Eh    ::
         :: repulsion energy           0.509036611624 Eh    ::

    * Orbital Energies and Occupations

         #    Occupation            Energy/Eh            Energy/eV
      -------------------------------------------------------------
         1        2.0000           -0.9122957             -24.8248
       ...           ...                  ...                  ...
        25        1.9985           -0.6586106             -17.9217
        26        1.9983           -0.6552713             -17.8308
        27        1.9963           -0.6372874             -17.3415
        28        1.9961           -0.6361833             -17.3114
        29        1.9923           -0.6198452             -16.8668
        30        1.9880           -0.6091663             -16.5763
        31        1.9791           -0.5958278             -16.2133
        32        1.9783           -0.5949731             -16.1900
        33        1.9681           -0.5856716             -15.9369
        34        1.9605           -0.5805245             -15.7969
        35        1.6438           -0.5240803             -14.2610
        36        1.6169           -0.5219627             -14.2033
        37        1.6105           -0.5214701             -14.1899 (HOMO)
        38        0.9541           -0.4855763             -13.2132 (LUMO)
        39        0.2072           -0.4365032             -11.8779
        40        0.0911           -0.4155038             -11.3064
        41        0.0232           -0.3821927             -10.4000
        42        0.0005           -0.2923255              -7.9546
        43        0.0000           -0.2031260              -5.5273
        44        0.0000           -0.1905403              -5.1849
        45        0.0000           -0.1410491              -3.8381
        46        0.0000           -0.1190358              -3.2391
        47                         -0.0626152              -1.7038
        48                         -0.0334862              -0.9112
       ...                                ...                  ...
        67                          0.5158907              14.0381
      -------------------------------------------------------------
                  HL-Gap            0.0358937 Eh            0.9767 eV

     #   Z          covCN         q      C6AA      α(0)
     1   6 C        3.690    -0.090    22.424     6.777
     2   7 N        2.824     0.067    20.065     6.653
     3   6 C        3.038     0.049    26.874     8.503
     4   7 N        2.782    -0.058    22.356     7.022
     5   6 C        3.056     0.084    26.069     8.373
     6   6 C        3.100    -0.002    27.960     8.665
     7   6 C        2.768     0.249    22.820     7.824
     8   8 O        0.857    -0.354    20.791     6.113
     9   7 N        2.745     0.021    20.885     6.787
    10   6 C        3.716    -0.075    22.055     6.709
    11   6 C        1.922    -0.049    32.431     9.197
    12   8 O        0.806    -0.498    23.772     6.536
    13   7 N        2.739     0.097    19.570     6.570
    14   6 C        2.812    -0.062    29.524     8.902
    15   1 H        0.924     0.108     1.718     2.050
    16   1 H        0.924     0.107     1.723     2.053
    17   1 H        0.925     0.134     1.503     1.917
    18   1 H        0.926     0.123     1.588     1.971
    19   1 H        0.925     0.118     1.627     1.995
    20   1 H        0.925     0.112     1.676     2.025
    21   1 H        0.924     0.108     1.711     2.046
    22   1 H        0.926     0.090     1.879     2.143
    23   1 H        0.925     0.192     1.140     1.670
    24   1 H        0.806     0.300     0.720     1.333
    25   1 H        0.860     0.229     0.971     1.543

Wiberg/Mayer (AO) data.
largest (>0.10) Wiberg bond orders for each atom

     #   Z sym  total        # sym  WBO       # sym  WBO       # sym  WBO
 ---------------------------------------------------------------------------
     1   6 C    3.907 --     2 N    0.989    17 H    0.958    16 H    0.957
                            15 H    0.956
     2   7 N    3.610 --     3 C    1.339     6 C    1.153     1 C    0.989
     3   6 C    3.755 --     2 N    1.339     4 N    1.274    18 H    0.953
     4   7 N    3.530 --     3 C    1.274     5 C    1.174    25 H    0.918
     5   6 C    3.831 --     6 C    1.342     4 N    1.174    13 N    1.110
     6   6 C    3.856 --     5 C    1.342     2 N    1.153     7 C    1.101
     7   6 C    3.846 --     8 O    1.647     6 C    1.101     9 N    1.012
     8   8 O    1.897 --     7 C    1.647     9 N    0.101
     9   7 N    3.593 --    11 C    1.430     7 C    1.012    10 C    0.977
                             8 O    0.101
    10   6 C    3.889 --     9 N    0.977    20 H    0.962    19 H    0.957
                            21 H    0.948
    11   6 C    2.750 --     9 N    1.430    13 N    1.146
    12   8 O    0.942 --    24 H    0.897
    13   7 N    3.680 --    14 C    1.309    11 C    1.146     5 C    1.110
    14   6 C    3.297 --    13 N    1.309    22 H    0.967    23 H    0.905
    15   1 H    0.979 --     1 C    0.956
    16   1 H    0.980 --     1 C    0.957
    17   1 H    0.979 --     1 C    0.958
    18   1 H    0.984 --     3 C    0.953
    19   1 H    0.976 --    10 C    0.957
    20   1 H    0.977 --    10 C    0.962
    21   1 H    0.972 --    10 C    0.948
    22   1 H    0.988 --    14 C    0.967
    23   1 H    0.956 --    14 C    0.905
    24   1 H    0.904 --    12 O    0.897
    25   1 H    0.947 --     4 N    0.918
 ---------------------------------------------------------------------------

molecular dipole:
                 x           y           z       tot (Debye)
 q only:        2.513      -0.807       0.214
   full:        2.778      -1.344       0.291       7.879

           -------------------------------------------------
          | TOTAL ENERGY              -42.074885312939 Eh   |
          | GRADIENT NORM               0.002772751311 Eh/α |
          | HOMO-LUMO GAP               0.976717892575 eV   |
           -------------------------------------------------

 * finished run on 2024/06/05 at 19:58:54.023
