   * xtb version 6.6.1 (8d0f1dd) compiled by 'conda@1efc2f54142f' on 2023-08-01
          program call               : xtb struc.xyz --opt loose --input .xc1 --gfn2

   ID    Z sym.   atoms
    1    6 C      1, 3, 5-7, 10, 11, 14
    2    7 N      2, 4, 9, 13
    3    8 O      8, 12
    4    1 H      15-25
constraining bond 5 6 to    4.0000000 Å, actual value:    1.3842879 Å

          :  Hamiltonian                  GFN2-xTB          :
 * total energy  :   -17.8148174 Eh     change       -0.6650680E-10 Eh
 * total energy  :   -27.9447966 Eh     change       -0.1012998E+02 Eh
 * total energy  :   -35.0597793 Eh     change       -0.7114983E+01 Eh
 * total energy  :   -39.4681082 Eh     change       -0.4408329E+01 Eh
 * total energy  :   -41.3235033 Eh     change       -0.1855395E+01 Eh
 * total energy  :   -41.6423596 Eh     change       -0.3188563E+00 Eh
 * total energy  :   -41.6688676 Eh     change       -0.2650797E-01 Eh
 * total energy  :   -41.6614260 Eh     change        0.7441565E-02 Eh
 * total energy  :   -41.7266548 Eh     change       -0.6522876E-01 Eh
 * total energy  :   -41.7390979 Eh     change       -0.1244315E-01 Eh
 * total energy  :   -41.9929120 Eh     change       -0.8965474E-04 Eh
 * total energy  :   -41.9929979 Eh     change       -0.8591953E-04 Eh
 * total energy  :   -41.9930717 Eh     change       -0.7377333E-04 Eh
 * total energy  :   -41.9931293 Eh     change       -0.5764118E-04 Eh
 * total energy  :   -41.9931977 Eh     change       -0.6840905E-04 Eh
 * total energy  :   -41.9932514 Eh     change       -0.5369559E-04 Eh
 * total energy  :   -41.9933037 Eh     change       -0.5228884E-04 Eh
 * total energy  :   -41.9933592 Eh     change       -0.5545140E-04 Eh
 * total energy  :   -41.9934081 Eh     change       -0.4893824E-04 Eh
   *** GEOMETRY OPTIMIZATION CONVERGED AFTER 56 ITERATIONS ***

 final structure:
================
25
 xtb: 6.6.1 (8d0f1dd)
C            3.58354129354308        1.09241958709298        0.43686115667085
N            2.24364189011709        0.55495155914772        0.25871450420601
C            2.10708119368863       -0.56906982793351       -0.43029847908036
N            1.10459964503008       -1.39729395503927       -0.93705283865385
C           -0.12844710215770       -1.94131751075473       -0.80632501016582
C            1.30647269016066        1.31971716071268        0.99835998231476
C            0.02359294916411        1.37218136122796        0.42265111074291
O            0.68392488710997        2.46778143929551        0.20850578185820
N           -1.09805401709237        0.86816298649935        0.05627547156415
C           -2.11598748766982        1.67212332681965       -0.61347622830277
C           -1.58892784800471       -0.40916305559039        0.60011957733637
O           -2.49596495263151       -0.37600169346734        1.37720683213135
N           -1.11316854055453       -1.57487513194943        0.03566129710548
C           -1.99806309506824       -2.71019699411174        0.35093419843496
H            3.91305424043937        0.92494444380856        1.46327006508764
H            4.29506370493981        0.64976194984943       -0.25491020372406
H            3.53716400549886        2.16942339818407        0.27154042819122
H            3.07330401776188       -0.95846353973977       -0.73384017015226
H           -1.72308345527958        2.67043108815556       -0.79283715370652
H           -2.37880326342905        1.19926647341643       -1.55966245482696
H           -3.00109821963923        1.73128882956303        0.02049505277601
H           -1.91340149187870       -2.95151129274049        1.41002344621076
H           -1.69050344758198       -3.56225691407344       -0.24817241864173
H           -3.03472237386275       -2.45197398981279        0.13831691977081
H            1.56921629150051       -1.97209115695852       -1.64118924924641

          :  Hamiltonian                  GFN2-xTB          :
         :: total energy             -41.993408108505 Eh    ::
         :: gradient norm              0.001381456213 Eh/a0 ::
         :: HOMO-LUMO gap              1.516796060919 eV    ::
         :: SCC energy               -42.479029214881 Eh    ::
         :: -> dispersion             -0.022040172771 Eh    ::
         :: repulsion energy           0.485273799485 Eh    ::

    * Orbital Energies and Occupations

         #    Occupation            Energy/Eh            Energy/eV
      -------------------------------------------------------------
         1        2.0000           -0.9162100             -24.9313
       ...           ...                  ...                  ...
        25        2.0000           -0.6681545             -18.1814
        26        1.9999           -0.6544368             -17.8081
        27        1.9999           -0.6508955             -17.7118
        28        1.9998           -0.6411970             -17.4479
        29        1.9998           -0.6393167             -17.3967
        30        1.9993           -0.6205193             -16.8852
        31        1.9992           -0.6187345             -16.8366
        32        1.9988           -0.6110847             -16.6285
        33        1.9985           -0.6083377             -16.5537
        34        1.9977           -0.6015399             -16.3687
        35        1.9947           -0.5880553             -16.0018
        36        1.8999           -0.5406458             -14.7117
        37        1.7420           -0.5242886             -14.2666 (HOMO)
        38        0.3331           -0.4685474             -12.7498 (LUMO)
        39        0.0289           -0.4271833             -11.6242
        40        0.0079           -0.4064007             -11.0587
        41        0.0006           -0.3657543              -9.9527
        42        0.0000           -0.2846113              -7.7447
        43                         -0.2226518              -6.0587
        44                         -0.2170181              -5.9054
        45                         -0.1421479              -3.8680
        46                         -0.1292222              -3.5163
        47                         -0.1165826              -3.1724
        48                         -0.0807618              -2.1976
       ...                                ...                  ...
        67                          0.5735305              15.6066
      -------------------------------------------------------------
                  HL-Gap            0.0557412 Eh            1.5168 eV

     #   Z          covCN         q      C6AA      α(0)
     1   6 C        3.730    -0.081    22.146     6.718
     2   7 N        2.736     0.044    20.483     6.722
     3   6 C        2.769     0.054    26.769     8.473
     4   7 N        2.680    -0.072    22.650     7.068
     5   6 C        1.862    -0.056    32.661     9.231
     6   6 C        2.747    -0.020    28.485     8.739
     7   6 C        2.787     0.261    22.598     7.787
     8   8 O        1.680    -0.235    17.898     5.712
     9   7 N        2.726    -0.049    22.181     6.995
    10   6 C        3.705    -0.059    21.793     6.674
    11   6 C        2.725     0.314    21.665     7.620
    12   8 O        0.859    -0.312    20.005     5.997
    13   7 N        2.730    -0.006    21.380     6.867
    14   6 C        3.751    -0.072    21.939     6.680
    15   1 H        0.924     0.114     1.659     2.015
    16   1 H        0.925     0.090     1.880     2.144
    17   1 H        0.924     0.119     1.620     1.990
    18   1 H        0.925     0.097     1.811     2.105
    19   1 H        0.925     0.106     1.732     2.058
    20   1 H        0.925     0.093     1.853     2.129
    21   1 H        0.924     0.113     1.675     2.024
    22   1 H        0.925     0.104     1.747     2.067
    23   1 H        0.925     0.111     1.691     2.034
    24   1 H        0.925     0.101     1.775     2.083
    25   1 H        0.860     0.242     0.915     1.498

Wiberg/Mayer (AO) data.
largest (>0.10) Wiberg bond orders for each atom

     #   Z sym  total        # sym  WBO       # sym  WBO       # sym  WBO
 ---------------------------------------------------------------------------
     1   6 C    3.921 --     2 N    0.975    16 H    0.973    17 H    0.958
                            15 H    0.955
     2   7 N    3.580 --     3 C    1.431     6 C    1.025     1 C    0.975
     3   6 C    3.777 --     2 N    1.431     4 N    1.166    18 H    0.945
     4   7 N    3.563 --     5 C    1.318     3 C    1.166    25 H    0.905
     5   6 C    2.809 --     4 N    1.318    13 N    1.287
     6   6 C    3.100 --     7 C    1.066     2 N    1.025     8 O    0.779
     7   6 C    3.866 --     9 N    1.471     8 O    1.225     6 C    1.066
     8   8 O    2.234 --     7 C    1.225     6 C    0.779     9 N    0.121
     9   7 N    3.588 --     7 C    1.471    10 C    0.946    11 C    0.884
                             8 O    0.121
    10   6 C    3.915 --    19 H    0.973    20 H    0.969    21 H    0.962
                             9 N    0.946
    11   6 C    3.890 --    12 O    1.772    13 N    1.130     9 N    0.884
    12   8 O    2.079 --    11 C    1.772    13 N    0.132
    13   7 N    3.595 --     5 C    1.287    11 C    1.130    14 C    0.946
                            12 O    0.132
    14   6 C    3.907 --    23 H    0.971    24 H    0.969    22 H    0.964
                            13 N    0.946
    15   1 H    0.977 --     1 C    0.955
    16   1 H    0.991 --     1 C    0.973
    17   1 H    0.980 --     1 C    0.958
    18   1 H    0.988 --     3 C    0.945
    19   1 H    0.988 --    10 C    0.973
    20   1 H    0.990 --    10 C    0.969
    21   1 H    0.985 --    10 C    0.962
    22   1 H    0.985 --    14 C    0.964
    23   1 H    0.987 --    14 C    0.971
    24   1 H    0.984 --    14 C    0.969
    25   1 H    0.934 --     4 N    0.905
 ---------------------------------------------------------------------------

molecular dipole:
                 x           y           z       tot (Debye)
 q only:        1.469      -1.109      -0.965
   full:        1.568      -0.766      -1.221       5.414

           -------------------------------------------------
          | TOTAL ENERGY              -41.993408108505 Eh   |
          | GRADIENT NORM               0.001381456213 Eh/α |
          | HOMO-LUMO GAP               1.516796060919 eV   |
           -------------------------------------------------

 * finished run on 2024/06/05 at 19:59:11.866
