   * xtb version 6.6.1 (8d0f1dd) compiled by 'conda@1efc2f54142f' on 2023-08-01
          program call               : xtb xtbopt.xyz --opt crude --input .xc2 --gfn2

   ID    Z sym.   atoms
    1    6 C      1, 3, 5-7, 10, 11, 14
    2    7 N      2, 4, 9, 13
    3    8 O      8, 12
    4    1 H      15-25
########################################################################
[WARNING] Please study the warnings concerning your input carefully
-1- readin_getIntValue: could not parse ''
########################################################################

          :  Hamiltonian                  GFN2-xTB          :
 * total energy  :   -41.9935465 Eh     change       -0.5471179E-12 Eh
 * total energy  :   -41.9983542 Eh     change       -0.4807688E-02 Eh
 * total energy  :   -42.0024303 Eh     change       -0.4076079E-02 Eh
 * total energy  :   -42.0040660 Eh     change       -0.1635697E-02 Eh
 * total energy  :   -42.0052416 Eh     change       -0.1175566E-02 Eh
 * total energy  :   -42.0063171 Eh     change       -0.1075547E-02 Eh
 * total energy  :   -42.0072339 Eh     change       -0.9167735E-03 Eh
 * total energy  :   -42.0080002 Eh     change       -0.7663572E-03 Eh
 * total energy  :   -42.0086080 Eh     change       -0.6077286E-03 Eh
 * total energy  :   -42.0091325 Eh     change       -0.5245621E-03 Eh
 * total energy  :   -42.0103085 Eh     change       -0.2230097E-03 Eh
 * total energy  :   -42.0105322 Eh     change       -0.2236866E-03 Eh
 * total energy  :   -42.0107761 Eh     change       -0.2439598E-03 Eh
 * total energy  :   -42.0112865 Eh     change       -0.5103976E-03 Eh
 * total energy  :   -42.0116423 Eh     change       -0.3557318E-03 Eh
 * total energy  :   -42.0119929 Eh     change       -0.3506137E-03 Eh
 * total energy  :   -42.0123763 Eh     change       -0.3833983E-03 Eh
 * total energy  :   -42.0126713 Eh     change       -0.2949766E-03 Eh
 * total energy  :   -42.0130791 Eh     change       -0.4078148E-03 Eh
   *** GEOMETRY OPTIMIZATION CONVERGED AFTER 22 ITERATIONS ***

 final structure:
================
25
 xtb: 6.6.1 (8d0f1dd)
C            3.48743373624893        0.93902143680009        0.57285987438786
N            2.23296556880859        0.34492208291396        0.16415368196723
C            2.16513029755933       -0.51575130084007       -0.84087756183459
N            1.13615744937278       -1.33158017017623       -1.14342578737656
C            0.12354852519389       -1.92779779290524       -0.45809339255318
C            1.12049467605826        0.73064690885238        0.90563170327702
C           -0.04835664877859        1.12028620230983        0.27984075812560
O            0.63064877676135        2.19406915306696        0.53859358134788
N           -1.24930727979497        0.86382739946471       -0.15498164128039
C           -2.14264769011456        1.95610608968815       -0.54215697862852
C           -1.83385049472689       -0.41252456931468       -0.01000814776902
O           -3.02658399844759       -0.53755455474071       -0.01888826048192
N           -0.97583816702077       -1.53776236819611        0.13952548434375
C           -1.68075638759642       -2.64171735980398        0.81322947737471
H            3.74312306883869        0.58896868213498        1.57407725864432
H            4.28084042362386        0.67333170818878       -0.12045983789195
H            3.37516942139448        2.02303686024666        0.60921414662787
H            3.07989127001433       -0.68305749844129       -1.39537932044657
H           -1.62398034068624        2.90153844312977       -0.40222558724065
H           -2.42499702247389        1.82912650122108       -1.58779017806720
H           -3.04256645139985        1.92455609499843        0.07072109127078
H           -1.87411087614045       -2.36048527960438        1.84796210181887
H           -1.05527233401960       -3.52909872305387        0.77866265964995
H           -2.63191866743968       -2.83563687576004        0.31926607375738
H            1.39521465886889       -1.95823252857660       -1.90827958112203

          :  Hamiltonian                  GFN2-xTB          :
         :: total energy             -42.013079074806 Eh    ::
         :: gradient norm              0.006736315076 Eh/a0 ::
         :: HOMO-LUMO gap              1.458583292967 eV    ::
         :: SCC energy               -42.513884238137 Eh    ::
         :: -> dispersion             -0.022333135070 Eh    ::
         :: repulsion energy           0.500596435138 Eh    ::

    * Orbital Energies and Occupations

         #    Occupation            Energy/Eh            Energy/eV
      -------------------------------------------------------------
         1        2.0000           -0.9059472             -24.6521
       ...           ...                  ...                  ...
        25        2.0000           -0.6714204             -18.2703
        26        2.0000           -0.6590095             -17.9326
        27        2.0000           -0.6538550             -17.7923
        28        1.9999           -0.6378986             -17.3581
        29        1.9998           -0.6305094             -17.1570
        30        1.9997           -0.6210784             -16.9004
        31        1.9996           -0.6199327             -16.8692
        32        1.9994           -0.6111444             -16.6301
        33        1.9986           -0.5992302             -16.3059
        34        1.9986           -0.5987363             -16.2924
        35        1.9982           -0.5945216             -16.1778
        36        1.9404           -0.5388221             -14.6621
        37        1.6815           -0.5100100             -13.8781 (HOMO)
        38        0.3034           -0.4564080             -12.4195 (LUMO)
        39        0.0685           -0.4307932             -11.7225
        40        0.0117           -0.4023222             -10.9477
        41        0.0009           -0.3613175              -9.8319
        42        0.0000           -0.3092096              -8.4140
        43                         -0.2129018              -5.7934
        44                         -0.1832432              -4.9863
        45                         -0.1368517              -3.7239
        46                         -0.1196200              -3.2550
        47                         -0.0924043              -2.5144
        48                         -0.0616222              -1.6768
       ...                                ...                  ...
        67                          0.5870548              15.9746
      -------------------------------------------------------------
                  HL-Gap            0.0536019 Eh            1.4586 eV

     #   Z          covCN         q      C6AA      α(0)
     1   6 C        3.711    -0.077    22.106     6.719
     2   7 N        2.735     0.042    20.518     6.728
     3   6 C        2.781     0.055    26.751     8.472
     4   7 N        2.682    -0.060    22.406     7.030
     5   6 C        1.871    -0.034    32.037     9.142
     6   6 C        2.721    -0.017    28.419     8.727
     7   6 C        2.791     0.251    22.784     7.819
     8   8 O        1.649    -0.270    18.489     5.804
     9   7 N        2.729    -0.039    21.991     6.965
    10   6 C        3.706    -0.061    21.829     6.679
    11   6 C        2.730     0.305    21.816     7.647
    12   8 O        0.859    -0.323    20.207     6.027
    13   7 N        2.728     0.009    21.102     6.823
    14   6 C        3.745    -0.080    22.104     6.706
    15   1 H        0.924     0.110     1.700     2.039
    16   1 H        0.925     0.089     1.891     2.151
    17   1 H        0.924     0.111     1.689     2.032
    18   1 H        0.925     0.099     1.795     2.095
    19   1 H        0.925     0.105     1.743     2.065
    20   1 H        0.924     0.099     1.794     2.095
    21   1 H        0.925     0.114     1.662     2.016
    22   1 H        0.925     0.100     1.781     2.087
    23   1 H        0.925     0.108     1.710     2.045
    24   1 H        0.925     0.119     1.621     1.991
    25   1 H        0.860     0.245     0.902     1.488

Wiberg/Mayer (AO) data.
largest (>0.10) Wiberg bond orders for each atom

     #   Z sym  total        # sym  WBO       # sym  WBO       # sym  WBO
 ---------------------------------------------------------------------------
     1   6 C    3.926 --     2 N    0.978    16 H    0.975    17 H    0.963
                            15 H    0.957
     2   7 N    3.567 --     3 C    1.353     6 C    1.055     1 C    0.978
     3   6 C    3.844 --     2 N    1.353     4 N    1.266    18 H    0.945
                             5 C    0.125
     4   7 N    3.548 --     3 C    1.266     5 C    1.205    25 H    0.895
     5   6 C    2.990 --    13 N    1.461     4 N    1.205     3 C    0.125
     6   6 C    3.196 --     7 C    1.179     2 N    1.055     8 O    0.757
     7   6 C    3.839 --     9 N    1.343     8 O    1.212     6 C    1.179
     8   8 O    2.166 --     7 C    1.212     6 C    0.757
     9   7 N    3.601 --     7 C    1.343    11 C    1.017    10 C    0.948
    10   6 C    3.911 --    19 H    0.975    20 H    0.968    21 H    0.964
                             9 N    0.948
    11   6 C    3.869 --    12 O    1.739     9 N    1.017    13 N    1.002
    12   8 O    2.037 --    11 C    1.739
    13   7 N    3.605 --     5 C    1.461    11 C    1.002    14 C    0.951
    14   6 C    3.906 --    23 H    0.973    22 H    0.967    24 H    0.959
                            13 N    0.951
    15   1 H    0.979 --     1 C    0.957
    16   1 H    0.991 --     1 C    0.975
    17   1 H    0.982 --     1 C    0.963
    18   1 H    0.987 --     3 C    0.945
    19   1 H    0.988 --    10 C    0.975
    20   1 H    0.989 --    10 C    0.968
    21   1 H    0.985 --    10 C    0.964
    22   1 H    0.988 --    14 C    0.967
    23   1 H    0.987 --    14 C    0.973
    24   1 H    0.980 --    14 C    0.959
    25   1 H    0.932 --     4 N    0.895
 ---------------------------------------------------------------------------

molecular dipole:
                 x           y           z       tot (Debye)
 q only:        1.575      -1.177      -0.701
   full:        1.767      -0.796      -1.133       5.706

           -------------------------------------------------
          | TOTAL ENERGY              -42.013079074806 Eh   |
          | GRADIENT NORM               0.006736315076 Eh/α |
          | HOMO-LUMO GAP               1.458583292967 eV   |
           -------------------------------------------------

 * finished run on 2024/06/05 at 19:59:12.678
