   * xtb version 6.6.1 (8d0f1dd) compiled by 'conda@1efc2f54142f' on 2023-08-01
          program call               : xtb struc.xyz --opt loose --input .xc1 --gfn2

   ID    Z sym.   atoms
    1    7 N      1, 17
    2    6 C      2-6, 8, 9, 11-16, 18-23, 25, 26, 28-33
    3    8 O      7, 10, 24, 27
    4    1 H      34-72
constraining bond 6 35 to    3.7133300 Å, actual value:    2.6922565 Å

          :  Hamiltonian                  GFN2-xTB          :
 * total energy  :   -99.5902889 Eh     change       -0.4035485E-08 Eh
 * total energy  :   -99.8460116 Eh     change       -0.2557227E+00 Eh
 * total energy  :  -100.1557307 Eh     change       -0.3097191E+00 Eh
 * total energy  :  -100.5147942 Eh     change       -0.3590635E+00 Eh
 * total energy  :   -99.3100563 Eh     change        0.1204738E+01 Eh
 * total energy  :  -100.5946854 Eh     change       -0.1284629E+01 Eh
 * total energy  :  -100.6512809 Eh     change       -0.5659552E-01 Eh
 * total energy  :  -100.6668600 Eh     change       -0.1557908E-01 Eh
 * total energy  :  -100.6877132 Eh     change       -0.2085327E-01 Eh
 * total energy  :  -100.6938341 Eh     change       -0.6120823E-02 Eh
 * total energy  :  -100.7888853 Eh     change       -0.8022803E-04 Eh
 * total energy  :  -100.7889841 Eh     change       -0.9885699E-04 Eh
 * total energy  :  -100.7890624 Eh     change       -0.7830666E-04 Eh
 * total energy  :  -100.7891438 Eh     change       -0.8137954E-04 Eh
 * total energy  :  -100.7892499 Eh     change       -0.1060438E-03 Eh
 * total energy  :  -100.7893475 Eh     change       -0.9760935E-04 Eh
 * total energy  :  -100.7894144 Eh     change       -0.6694225E-04 Eh
 * total energy  :  -100.7894953 Eh     change       -0.8086948E-04 Eh
 * total energy  :  -100.7895421 Eh     change       -0.4677462E-04 Eh
   *** GEOMETRY OPTIMIZATION CONVERGED AFTER 62 ITERATIONS ***

 final structure:
================
72
 xtb: 6.6.1 (8d0f1dd)
N           -1.74416199885844        2.92060739445088        2.30206635596467
C           -1.81371974026114        2.17296007863807        1.30455011268535
C           -3.01769420505898        2.04277446046567        0.41456240092595
C           -3.55601303053703        0.62276369549914        0.47923202131064
C           -4.52622650083105        0.19630244442344       -0.42578907853327
C           -5.07670910317716       -1.07566671727358       -0.39828614361538
O           -2.89147718886473       -1.60829136820257       -2.76575734597493
C           -3.95757365597228       -1.98558337581884       -3.18749440318153
C           -4.61738363069061       -1.97051405567137        0.59260697103360
O           -5.18307351466486       -3.19700403788979        0.55109863133056
C           -4.85996906099434       -4.14487436243410        1.54339293027521
C           -3.65733638976659       -1.56238946946324        1.51255226214614
C           -3.14297680490835       -0.27744279048081        1.45258566002636
C           -2.51866117080688        2.35561681705618       -1.02066032633871
C           -1.67635751374098        1.23951381972730       -1.66400361267821
C           -0.32373658255085        1.11293305950615       -1.08567623780074
N            0.27420482909061       -0.01812395997851       -0.76858527890707
C            1.65708399111131       -0.01775474192803       -0.34998558433333
C            2.60261029506273       -0.44462805831041       -1.48905325755950
C            4.02737211001419       -0.22637332049075       -1.06197142476597
C            4.64535414261010        0.99459311649442       -1.28164982515410
C            5.94118755136943        1.22328634906192       -0.84712587397763
C            6.64663493196481        0.23330554598718       -0.17743280267758
O            7.90120498933168        0.34781407844486        0.29433127612008
C            8.59923609619140        1.55751023067866        0.10544568192092
C            6.02280756692577       -1.02555907307772        0.04821075420182
O            6.77932053391986       -1.93245202036538        0.69612882974279
C            6.25599583797403       -3.21542614060575        0.94522099165055
C            4.72428802466217       -1.22932874910486       -0.39339871633313
C           -0.40347484147088       -1.29105736145171       -0.83127292495222
C           -4.17474892094849        3.01323734047459        0.79692930698528
C           -4.72297747504166        2.70674582726253        2.18862587406275
C           -3.78139182970486        4.48511538288055        0.70914383959068
H           -4.88530152611498        0.87618122073294       -1.18381831689379
H           -5.63417746176072       -1.30464260453089       -0.90019009137500
H           -4.27818696180324       -3.03557914640975       -3.13214955754316
H           -4.67725060758088       -1.30153582629959       -3.66135056569526
H           -5.09208769849361       -3.77011028629475        2.54434540362309
H           -5.48006696199455       -5.01334281970604        1.33050989051789
H           -3.80506466629827       -4.43162096076211        1.49416355220485
H           -3.31215755946993       -2.22810474686802        2.28730854928114
H           -2.42285803792039        0.02484385948542        2.19869954512888
H           -3.38496112269517        2.52994278346507       -1.65751550288854
H           -1.93544816769545        3.27756452445515       -0.99627856083215
H           -2.21883562264574        0.29693060071463       -1.64233656733206
H           -1.54500585593384        1.51836316531287       -2.71677205148677
H           -0.96826609166576        1.55965757818266        0.93860575067039
H            0.27519117332608        2.01117887430171       -1.02175042683033
H            1.77662395242011       -0.69587120106677        0.49888993437883
H            1.93552127666952        0.98768526207718       -0.02556535335054
H            2.38386483485056        0.16006324572508       -2.37070973742486
H            2.43444167309761       -1.49236489417542       -1.73919739828168
H            4.12092788585478        1.77854459157699       -1.80667478397376
H            6.39664979022292        2.18094382562467       -1.03818664664812
H            8.09646479641810        2.39157560352762        0.60460465542546
H            8.72225979980552        1.78738229567519       -0.95699746901934
H            9.57732936352211        1.40396174640507        0.55703540431064
H            7.04486495653497       -3.75753577191690        1.46288495377235
H            5.36932970703172       -3.16968604188279        1.58560908227088
H            6.01014789275261       -3.73570512714567        0.01432726747397
H            4.24341014734311       -2.18114943022082       -0.23116876461105
H           -0.78826523365111       -1.48914664014452       -1.83135353787736
H           -1.25050111295871       -1.30333008403352       -0.13994363370207
H            0.28790572679811       -2.08153327632528       -0.55434207387399
H           -4.97840541111270        2.83286575597882        0.07395078823102
H           -3.96467777892438        2.90190130366181        2.94040477724678
H           -5.04053180879550        1.66962153647712        2.26599087201750
H           -5.58131743769766        3.34202998196550        2.38991385743193
H           -2.95276006550349        4.69540316023947        1.37826442463217
H           -3.50939682656922        4.77295564806519       -0.30281264769567
H           -4.62646101195884        5.09738009415746        1.01266087965527
H           -0.86807009155053        2.95581168399729        2.81366787851274

          :  Hamiltonian                  GFN2-xTB          :
         :: total energy            -100.789542063455 Eh    ::
         :: gradient norm              0.003577894643 Eh/a0 ::
         :: HOMO-LUMO gap              1.748647716262 eV    ::
         :: SCC energy              -100.797153512605 Eh    ::
         :: -> dispersion             -0.075915363678 Eh    ::
         :: repulsion energy           1.537977459835 Eh    ::

    * Orbital Energies and Occupations

         #    Occupation            Energy/Eh            Energy/eV
      -------------------------------------------------------------
         1        2.0000           -0.8120292             -22.0964
       ...           ...                  ...                  ...
        78        1.9978           -0.5284927             -14.3810
        79        1.9977           -0.5279276             -14.3656
        80        1.9967           -0.5222995             -14.2125
        81        1.9952           -0.5159950             -14.0409
        82        1.9948           -0.5148431             -14.0096
        83        1.9939           -0.5124482             -13.9444
        84        1.9927           -0.5094557             -13.8630
        85        1.9890           -0.5029891             -13.6870
        86        1.9873           -0.5006212             -13.6226
        87        1.9766           -0.4909376             -13.3591
        88        1.9292           -0.4730057             -12.8711
        89        1.9147           -0.4699266             -12.7874
        90        1.8295           -0.4582417             -12.4694 (HOMO)
        91        0.3127           -0.3939801             -10.7207 (LUMO)
        92        0.0793           -0.3701979             -10.0736
        93        0.0123           -0.3400895              -9.2543
        94        0.0044           -0.3238009              -8.8111
        95        0.0025           -0.3148459              -8.5674
        96        0.0022           -0.3131529              -8.5213
        97        0.0022           -0.3126297              -8.5071
        98        0.0000           -0.1934366              -5.2637
        99        0.0000           -0.1901290              -5.1737
       100                         -0.1343173              -3.6550
       101                         -0.0664544              -1.8083
       ...                                ...                  ...
       171                          1.2219027              33.2497
      -------------------------------------------------------------
                  HL-Gap            0.0642616 Eh            1.7486 eV

     #   Z          covCN         q      C6AA      α(0)
     1   7 N        1.774    -0.267    27.751     7.801
     2   6 C        2.827     0.102    25.723     8.311
     3   6 C        3.907     0.006    20.422     6.423
     4   6 C        2.972     0.002    27.969     8.675
     5   6 C        2.928    -0.037    28.928     8.820
     6   6 C        2.913    -0.080    29.992     8.980
     7   8 O        0.856    -0.332    20.368     6.051
     8   6 C        2.702     0.174    24.245     8.059
     9   6 C        2.867     0.145    24.841     8.170
    10   8 O        1.706    -0.250    18.138     5.750
    11   6 C        3.643     0.029    20.426     6.497
    12   6 C        2.911    -0.069    29.715     8.939
    13   6 C        2.925    -0.039    28.980     8.828
    14   6 C        3.813    -0.064    21.725     6.634
    15   6 C        3.802    -0.078    21.995     6.677
    16   6 C        2.847     0.019    27.574     8.606
    17   7 N        2.729     0.027    20.779     6.770
    18   6 C        3.758    -0.018    20.949     6.525
    19   6 C        3.808    -0.071    21.846     6.654
    20   6 C        2.970     0.001    28.007     8.681
    21   6 C        2.922    -0.049    29.207     8.863
    22   6 C        2.914    -0.067    29.673     8.932
    23   6 C        2.865     0.134    25.068     8.207
    24   8 O        1.706    -0.220    17.650     5.672
    25   6 C        3.645     0.024    20.498     6.507
    26   6 C        2.863     0.134    25.072     8.208
    27   8 O        1.706    -0.223    17.694     5.679
    28   6 C        3.645     0.026    20.466     6.502
    29   6 C        2.919    -0.079    29.978     8.979
    30   6 C        3.701    -0.082    22.239     6.744
    31   6 C        3.853    -0.008    20.685     6.469
    32   6 C        3.756    -0.118    22.816     6.811
    33   6 C        3.755    -0.119    22.838     6.814
    34   1 H        0.926     0.047     2.361     2.403
    35   1 H        0.930     0.099     1.797     2.096
    36   1 H        0.923     0.050     2.325     2.384
    37   1 H        0.923     0.046     2.375     2.410
    38   1 H        0.924     0.053     2.280     2.361
    39   1 H        0.925     0.077     2.010     2.217
    40   1 H        0.924     0.047     2.353     2.399
    41   1 H        0.926     0.047     2.361     2.403
    42   1 H        0.926     0.036     2.503     2.474
    43   1 H        0.925     0.065     2.145     2.290
    44   1 H        0.924     0.053     2.285     2.364
    45   1 H        0.925     0.094     1.840     2.121
    46   1 H        0.924     0.090     1.882     2.145
    47   1 H        0.922     0.004     2.984     2.702
    48   1 H        0.925     0.072     2.066     2.248
    49   1 H        0.924     0.070     2.085     2.258
    50   1 H        0.924     0.067     2.121     2.278
    51   1 H        0.924     0.058     2.228     2.334
    52   1 H        0.924     0.059     2.217     2.328
    53   1 H        0.926     0.046     2.368     2.407
    54   1 H        0.926     0.059     2.205     2.322
    55   1 H        0.924     0.055     2.260     2.351
    56   1 H        0.924     0.057     2.234     2.337
    57   1 H        0.925     0.083     1.945     2.181
    58   1 H        0.925     0.083     1.950     2.184
    59   1 H        0.924     0.050     2.325     2.385
    60   1 H        0.924     0.054     2.271     2.356
    61   1 H        0.926     0.049     2.332     2.388
    62   1 H        0.925     0.109     1.705     2.042
    63   1 H        0.924     0.083     1.952     2.185
    64   1 H        0.925     0.080     1.981     2.201
    65   1 H        0.924     0.041     2.434     2.440
    66   1 H        0.925     0.068     2.109     2.271
    67   1 H        0.925     0.036     2.503     2.474
    68   1 H        0.925     0.052     2.294     2.369
    69   1 H        0.925     0.062     2.180     2.309
    70   1 H        0.925     0.036     2.501     2.473
    71   1 H        0.925     0.055     2.252     2.347
    72   1 H        0.860     0.157     1.356     1.824

Wiberg/Mayer (AO) data.
largest (>0.10) Wiberg bond orders for each atom

     #   Z sym  total        # sym  WBO       # sym  WBO       # sym  WBO
 ---------------------------------------------------------------------------
     1   7 N    3.038 --     2 C    1.956    72 H    0.941
     2   6 C    3.933 --     1 N    1.956     3 C    0.995    47 H    0.902
     3   6 C    3.973 --     2 C    0.995     4 C    0.970    14 C    0.954
                            31 C    0.941
     4   6 C    3.949 --    13 C    1.405     5 C    1.377     3 C    0.970
     5   6 C    3.976 --     6 C    1.478     4 C    1.377    34 H    0.963
     6   6 C    3.959 --     5 C    1.478     9 C    1.312    35 H    0.972
                            13 C    0.101
     7   8 O    2.016 --     8 C    1.912
     8   6 C    3.811 --     7 O    1.912    36 H    0.946    37 H    0.945
     9   6 C    3.910 --    12 C    1.363     6 C    1.312    10 O    1.093
    10   8 O    2.242 --     9 C    1.093    11 C    0.977
    11   6 C    3.933 --    39 H    0.978    10 O    0.977    40 H    0.974
                            38 H    0.974
    12   6 C    3.960 --    13 C    1.435     9 C    1.363    41 H    0.964
    13   6 C    3.974 --    12 C    1.435     4 C    1.405    42 H    0.963
                             6 C    0.101
    14   6 C    3.973 --    15 C    0.979    44 H    0.972    43 H    0.967
                             3 C    0.954
    15   6 C    3.980 --    16 C    1.065    14 C    0.979    45 H    0.952
                            46 H    0.920
    16   6 C    3.657 --    17 N    1.450    15 C    1.065    48 H    0.955
    17   7 N    3.527 --    16 C    1.450    30 C    0.994    18 C    0.987
    18   6 C    3.955 --    17 N    0.987    50 H    0.967    19 C    0.967
                            49 H    0.964
    19   6 C    3.977 --    20 C    1.008    52 H    0.971    51 H    0.971
                            18 C    0.967
    20   6 C    3.942 --    21 C    1.406    29 C    1.382    19 C    1.008
    21   6 C    3.947 --    22 C    1.419    20 C    1.406    53 H    0.968
    22   6 C    3.958 --    21 C    1.419    23 C    1.381    54 H    0.963
    23   6 C    3.892 --    22 C    1.381    26 C    1.218    24 O    1.113
    24   8 O    2.255 --    23 C    1.113    25 C    0.975
    25   6 C    3.927 --    57 H    0.977    24 O    0.975    55 H    0.972
                            56 H    0.972
    26   6 C    3.896 --    29 C    1.392    23 C    1.218    27 O    1.106
    27   8 O    2.255 --    26 C    1.106    28 C    0.978
    28   6 C    3.931 --    27 O    0.978    58 H    0.977    59 H    0.973
                            60 H    0.973
    29   6 C    3.958 --    26 C    1.392    20 C    1.382    61 H    0.962
    30   6 C    3.947 --    17 N    0.994    64 H    0.978    63 H    0.958
                            62 H    0.956
    31   6 C    3.969 --    33 C    1.008    32 C    1.008    65 H    0.959
                             3 C    0.941
    32   6 C    3.976 --    31 C    1.008    67 H    0.981    68 H    0.981
                            66 H    0.973
    33   6 C    3.980 --    31 C    1.008    70 H    0.982    71 H    0.979
                            69 H    0.975
    34   1 H    0.996 --     5 C    0.963
    35   1 H    0.989 --     6 C    0.972
    36   1 H    0.994 --     8 C    0.946
    37   1 H    0.994 --     8 C    0.945
    38   1 H    0.994 --    11 C    0.974
    39   1 H    0.993 --    11 C    0.978
    40   1 H    0.994 --    11 C    0.974
    41   1 H    0.996 --    12 C    0.964
    42   1 H    0.998 --    13 C    0.963
    43   1 H    0.994 --    14 C    0.967
    44   1 H    0.996 --    14 C    0.972
    45   1 H    0.990 --    15 C    0.952
    46   1 H    0.972 --    15 C    0.920
    47   1 H    0.985 --     2 C    0.902
    48   1 H    0.994 --    16 C    0.955
    49   1 H    0.991 --    18 C    0.964
    50   1 H    0.995 --    18 C    0.967
    51   1 H    0.995 --    19 C    0.971
    52   1 H    0.995 --    19 C    0.971
    53   1 H    0.997 --    21 C    0.968
    54   1 H    0.995 --    22 C    0.963
    55   1 H    0.991 --    25 C    0.972
    56   1 H    0.991 --    25 C    0.972
    57   1 H    0.992 --    25 C    0.977
    58   1 H    0.992 --    28 C    0.977
    59   1 H    0.993 --    28 C    0.973
    60   1 H    0.992 --    28 C    0.973
    61   1 H    0.996 --    29 C    0.962
    62   1 H    0.981 --    30 C    0.956
    63   1 H    0.985 --    30 C    0.958
    64   1 H    0.994 --    30 C    0.978
    65   1 H    0.990 --    31 C    0.959
    66   1 H    0.990 --    32 C    0.973
    67   1 H    0.996 --    32 C    0.981
    68   1 H    0.993 --    32 C    0.981
    69   1 H    0.992 --    33 C    0.975
    70   1 H    0.996 --    33 C    0.982
    71   1 H    0.993 --    33 C    0.979
    72   1 H    0.970 --     1 N    0.941
 ---------------------------------------------------------------------------

molecular dipole:
                 x           y           z       tot (Debye)
 q only:        0.707      -0.131      -0.604
   full:        0.809      -0.421      -0.762       3.021

           -------------------------------------------------
          | TOTAL ENERGY             -100.789542063455 Eh   |
          | GRADIENT NORM               0.003577894643 Eh/α |
          | HOMO-LUMO GAP               1.748647716262 eV   |
           -------------------------------------------------

 * finished run on 2024/04/06 at 11:16:02.940
