   * xtb version 6.6.1 (8d0f1dd) compiled by 'conda@1efc2f54142f' on 2023-08-01
          program call               : xtb xtbopt.xyz --opt crude --input .xc2 --gfn2

   ID    Z sym.   atoms
    1    7 N      1, 17
    2    6 C      2-6, 8, 9, 11-16, 18-23, 25, 26, 28-33
    3    8 O      7, 10, 24, 27
    4    1 H      34-72

          :  Hamiltonian                  GFN2-xTB          :
 * total energy  :   -99.2576835 Eh     change       -0.8526513E-12 Eh
 * total energy  :   -99.3643895 Eh     change       -0.1067061E+00 Eh
 * total energy  :   -99.3657767 Eh     change       -0.1387130E-02 Eh
 * total energy  :   -99.3655307 Eh     change        0.2459412E-03 Eh
 * total energy  :   -99.3647451 Eh     change        0.7856706E-03 Eh
 * total energy  :   -99.3663659 Eh     change       -0.1620816E-02 Eh
 * total energy  :   -99.3664176 Eh     change       -0.5168208E-04 Eh
   *** GEOMETRY OPTIMIZATION CONVERGED AFTER 7 ITERATIONS ***

 final structure:
================
72
 xtb: 6.6.1 (8d0f1dd)
N           -1.74957243676959        2.91843591356800        2.30939085547914
C           -1.81686061919430        2.17463005927985        1.30875035492711
C           -3.01953656858855        2.04686272151953        0.41617607779674
C           -3.56031265831834        0.62727402989708        0.47706180198985
C           -4.53537759485628        0.20457471658509       -0.42761561297762
C           -5.05764387282440       -1.06725900374356       -0.37037673135106
O           -2.89114753044385       -1.58588227714332       -2.74181617598644
C           -3.94314260113891       -1.98900045725385       -3.17094500463982
C           -4.61957380798778       -1.97736832297803        0.59873500864686
O           -5.18632253493764       -3.20158155638874        0.55960598385016
C           -4.85385654771937       -4.14803663795531        1.55098402541893
C           -3.65325743173691       -1.56300815135772        1.51174007384992
C           -3.14199097659816       -0.27648898266044        1.44570309376336
C           -2.51628143456907        2.36135206460297       -1.01759816298517
C           -1.67644349670472        1.24292229862150       -1.65974441124445
C           -0.32188172833833        1.11804577002391       -1.08569161998002
N            0.27717709542722       -0.01185236566805       -0.76665760383490
C            1.65956952112145       -0.01297657081462       -0.34882410184498
C            2.60428251549570       -0.44047214934554       -1.48892580703207
C            4.02926733201973       -0.22494239527952       -1.06186043739713
C            4.64787620595692        0.99608190875363       -1.27902259574018
C            5.94468783847962        1.22265653487834       -0.84613901497753
C            6.64969363891215        0.23042504361224       -0.17956437949516
O            7.90562176374999        0.34056247974174        0.28905614087954
C            8.60644796976348        1.54876621795375        0.10148209637456
C            6.02395642004105       -1.02760779288590        0.04634066846228
O            6.78041384892576       -1.93399569637556        0.69481671005733
C            6.25968517171659       -3.21812675514483        0.94307154440524
C            4.72520377887495       -1.22983850686666       -0.39493084988930
C           -0.39887841660100       -1.28584370242853       -0.83066470465550
C           -4.17617100566281        3.01820838228425        0.79804220448200
C           -4.72630858492630        2.71049283197606        2.18871056846670
C           -3.78168275848303        4.49001469180144        0.71365416581016
H           -4.90108419596381        0.87996850830990       -1.18503067137058
H           -5.82301409693289       -1.38490303878379       -1.05873161955397
H           -4.24913381291548       -3.03981595474216       -3.08888008887522
H           -4.66089143207665       -1.32931492593203       -3.67756195034871
H           -5.08891949332082       -3.77719016436145        2.55265821950041
H           -5.46562068346160       -5.02267334091480        1.33858863980494
H           -3.79635030096333       -4.42553517138577        1.50106779092338
H           -3.30063663010282       -2.22589802189206        2.28586959984528
H           -2.41639530057164        0.02637641883096        2.18687378674792
H           -3.38037556668998        2.54035226782958       -1.65596444905001
H           -1.92971265790876        3.28093853088678       -0.98960094613538
H           -2.21951549717570        0.30046831425917       -1.63158541323278
H           -1.54982282808053        1.51494873718505       -2.71549116489911
H           -0.96775920735767        1.56930169856956        0.93816881090912
H            0.27734698000255        2.01670736177249       -1.02460501384234
H            1.77847785209835       -0.69275253444715        0.49880287436390
H            1.94038996653312        0.99132002668812       -0.02314935330426
H            2.38580765432567        0.16538366061706       -2.36983469703092
H            2.43416364805461       -1.48767886599736       -1.73992304517136
H            4.12329377145964        1.78188497174769       -1.80112288465071
H            6.40102304759176        2.18010621878629       -1.03618418788289
H            8.10429924938239        2.38402948418481        0.59915499647214
H            8.73230539267319        1.77793351488195       -0.96083088700651
H            9.58318772315944        1.39312565385949        0.55530791789233
H            7.05177963763510       -3.76006171418472        1.45604107432821
H            5.37585068303767       -3.17516709541578        1.58759041272434
H            6.01046689511703       -3.73677432702229        0.01224159962239
H            4.24383792611905       -2.18159052804685       -0.23341542160951
H           -0.78136823227323       -1.48406120131114       -1.83172029856083
H           -1.24734193331157       -1.29949939502990       -0.14131973530000
H            0.29301270987626       -2.07555091834132       -0.55253393803910
H           -4.97889974182646        2.83980178113305        0.07350524274522
H           -3.96878416654803        2.90499530069284        2.94143059557568
H           -5.04429531986274        1.67348966701653        2.26500182628341
H           -5.58459626942031        3.34603813179635        2.38964793334261
H           -2.95514408317741        4.69932605967844        1.38583618062922
H           -3.50649185372735        4.78000391126954       -0.29686341991137
H           -4.62762353783677        5.10191047022379        1.01572145480369
H           -0.87259119241208        2.95717168930349        2.81916091126940

          :  Hamiltonian                  GFN2-xTB          :
         :: total energy             -99.366417553154 Eh    ::
         :: gradient norm              0.001506398282 Eh/a0 ::
         :: HOMO-LUMO gap              1.748939304192 eV    ::
         :: SCC energy              -100.771375528658 Eh    ::
         :: -> dispersion             -0.075914846919 Eh    ::
         :: repulsion energy           1.403472386107 Eh    ::

    * Orbital Energies and Occupations

         #    Occupation            Energy/Eh            Energy/eV
      -------------------------------------------------------------
         1        2.0000           -0.8122385             -22.1021
       ...           ...                  ...                  ...
        78        1.9978           -0.5284331             -14.3794
        79        1.9977           -0.5278421             -14.3633
        80        1.9968           -0.5222165             -14.2102
        81        1.9950           -0.5151882             -14.0190
        82        1.9948           -0.5148067             -14.0086
        83        1.9940           -0.5123604             -13.9420
        84        1.9928           -0.5095254             -13.8649
        85        1.9889           -0.5026278             -13.6772
        86        1.9874           -0.5005928             -13.6218
        87        1.9767           -0.4908474             -13.3566
        88        1.9295           -0.4729043             -12.8684
        89        1.9153           -0.4698918             -12.7864
        90        1.8299           -0.4581310             -12.4664 (HOMO)
        91        0.3133           -0.3938586             -10.7174 (LUMO)
        92        0.0777           -0.3697194             -10.0606
        93        0.0124           -0.3400668              -9.2537
        94        0.0038           -0.3213150              -8.7434
        95        0.0025           -0.3147416              -8.5646
        96        0.0023           -0.3130849              -8.5195
        97        0.0022           -0.3125350              -8.5045
        98        0.0000           -0.1907432              -5.1904
        99        0.0000           -0.1900253              -5.1709
       100                         -0.1338667              -3.6427
       101                         -0.0665878              -1.8119
       ...                                ...                  ...
       171                          0.5735236              15.6064
      -------------------------------------------------------------
                  HL-Gap            0.0642723 Eh            1.7489 eV

     #   Z          covCN         q      C6AA      α(0)
     1   7 N        1.774    -0.267    27.756     7.801
     2   6 C        2.827     0.103    25.722     8.311
     3   6 C        3.907     0.006    20.421     6.423
     4   6 C        2.975     0.003    27.944     8.671
     5   6 C        2.923    -0.033    28.829     8.805
     6   6 C        2.919    -0.052    29.303     8.877
     7   8 O        0.856    -0.332    20.371     6.051
     8   6 C        2.702     0.175    24.231     8.057
     9   6 C        2.864     0.150    24.752     8.155
    10   8 O        1.706    -0.248    18.106     5.745
    11   6 C        3.644     0.029    20.421     6.496
    12   6 C        2.915    -0.068    29.692     8.935
    13   6 C        2.924    -0.040    28.996     8.831
    14   6 C        3.813    -0.064    21.723     6.634
    15   6 C        3.802    -0.078    21.996     6.677
    16   6 C        2.847     0.019    27.574     8.606
    17   7 N        2.729     0.027    20.778     6.770
    18   6 C        3.758    -0.018    20.949     6.525
    19   6 C        3.808    -0.071    21.846     6.653
    20   6 C        2.970     0.001    28.008     8.681
    21   6 C        2.922    -0.049    29.208     8.863
    22   6 C        2.914    -0.067    29.674     8.933
    23   6 C        2.865     0.134    25.068     8.207
    24   8 O        1.706    -0.220    17.650     5.672
    25   6 C        3.645     0.024    20.498     6.507
    26   6 C        2.863     0.134    25.073     8.208
    27   8 O        1.706    -0.223    17.694     5.679
    28   6 C        3.645     0.026    20.467     6.502
    29   6 C        2.919    -0.079    29.978     8.979
    30   6 C        3.701    -0.082    22.236     6.743
    31   6 C        3.853    -0.008    20.684     6.468
    32   6 C        3.756    -0.118    22.814     6.810
    33   6 C        3.755    -0.119    22.834     6.814
    34   1 H        0.926     0.050     2.325     2.384
    35   1 H        0.926     0.057     2.239     2.340
    36   1 H        0.924     0.050     2.324     2.384
    37   1 H        0.923     0.046     2.369     2.407
    38   1 H        0.924     0.054     2.274     2.358
    39   1 H        0.925     0.077     2.006     2.215
    40   1 H        0.924     0.048     2.350     2.397
    41   1 H        0.926     0.047     2.363     2.404
    42   1 H        0.926     0.036     2.509     2.477
    43   1 H        0.925     0.065     2.146     2.291
    44   1 H        0.924     0.053     2.285     2.364
    45   1 H        0.925     0.094     1.836     2.119
    46   1 H        0.924     0.090     1.883     2.146
    47   1 H        0.922     0.004     2.985     2.702
    48   1 H        0.925     0.072     2.067     2.248
    49   1 H        0.924     0.070     2.085     2.258
    50   1 H        0.924     0.067     2.121     2.278
    51   1 H        0.924     0.057     2.229     2.335
    52   1 H        0.924     0.058     2.218     2.329
    53   1 H        0.926     0.046     2.369     2.407
    54   1 H        0.926     0.059     2.206     2.323
    55   1 H        0.924     0.055     2.260     2.351
    56   1 H        0.924     0.057     2.234     2.337
    57   1 H        0.925     0.083     1.946     2.181
    58   1 H        0.925     0.083     1.951     2.184
    59   1 H        0.924     0.050     2.325     2.385
    60   1 H        0.924     0.054     2.272     2.357
    61   1 H        0.926     0.049     2.333     2.389
    62   1 H        0.925     0.109     1.708     2.044
    63   1 H        0.924     0.083     1.952     2.185
    64   1 H        0.925     0.080     1.982     2.202
    65   1 H        0.924     0.041     2.436     2.441
    66   1 H        0.925     0.068     2.106     2.269
    67   1 H        0.925     0.036     2.506     2.476
    68   1 H        0.925     0.052     2.295     2.369
    69   1 H        0.925     0.061     2.183     2.310
    70   1 H        0.925     0.036     2.502     2.474
    71   1 H        0.925     0.055     2.253     2.347
    72   1 H        0.860     0.157     1.356     1.824

Wiberg/Mayer (AO) data.
largest (>0.10) Wiberg bond orders for each atom

     #   Z sym  total        # sym  WBO       # sym  WBO       # sym  WBO
 ---------------------------------------------------------------------------
     1   7 N    3.038 --     2 C    1.956    72 H    0.941
     2   6 C    3.933 --     1 N    1.956     3 C    0.995    47 H    0.903
     3   6 C    3.974 --     2 C    0.995     4 C    0.971    14 C    0.954
                            31 C    0.942
     4   6 C    3.948 --    13 C    1.407     5 C    1.370     3 C    0.971
     5   6 C    3.976 --     6 C    1.484     4 C    1.370    34 H    0.963
     6   6 C    3.959 --     5 C    1.484     9 C    1.320    35 H    0.964
     7   8 O    2.018 --     8 C    1.912
     8   6 C    3.812 --     7 O    1.912    36 H    0.946    37 H    0.945
     9   6 C    3.912 --    12 C    1.356     6 C    1.320    10 O    1.094
    10   8 O    2.243 --     9 C    1.094    11 C    0.976
    11   6 C    3.933 --    39 H    0.978    10 O    0.976    40 H    0.974
                            38 H    0.974
    12   6 C    3.960 --    13 C    1.436     9 C    1.356    41 H    0.965
    13   6 C    3.974 --    12 C    1.436     4 C    1.407    42 H    0.962
    14   6 C    3.973 --    15 C    0.979    44 H    0.972    43 H    0.967
                             3 C    0.954
    15   6 C    3.980 --    16 C    1.065    14 C    0.979    45 H    0.951
                            46 H    0.920
    16   6 C    3.657 --    17 N    1.450    15 C    1.065    48 H    0.955
    17   7 N    3.527 --    16 C    1.450    30 C    0.994    18 C    0.987
    18   6 C    3.955 --    17 N    0.987    50 H    0.967    19 C    0.966
                            49 H    0.964
    19   6 C    3.977 --    20 C    1.008    52 H    0.971    51 H    0.971
                            18 C    0.966
    20   6 C    3.942 --    21 C    1.406    29 C    1.382    19 C    1.008
    21   6 C    3.947 --    22 C    1.418    20 C    1.406    53 H    0.968
    22   6 C    3.958 --    21 C    1.418    23 C    1.381    54 H    0.963
    23   6 C    3.892 --    22 C    1.381    26 C    1.217    24 O    1.113
    24   8 O    2.255 --    23 C    1.113    25 C    0.975
    25   6 C    3.927 --    57 H    0.977    24 O    0.975    55 H    0.972
                            56 H    0.972
    26   6 C    3.896 --    29 C    1.393    23 C    1.217    27 O    1.106
    27   8 O    2.255 --    26 C    1.106    28 C    0.978
    28   6 C    3.931 --    27 O    0.978    58 H    0.977    59 H    0.973
                            60 H    0.973
    29   6 C    3.958 --    26 C    1.393    20 C    1.382    61 H    0.962
    30   6 C    3.947 --    17 N    0.994    64 H    0.978    63 H    0.958
                            62 H    0.956
    31   6 C    3.969 --    33 C    1.008    32 C    1.008    65 H    0.959
                             3 C    0.942
    32   6 C    3.976 --    31 C    1.008    67 H    0.981    68 H    0.981
                            66 H    0.973
    33   6 C    3.980 --    31 C    1.008    70 H    0.982    71 H    0.979
                            69 H    0.975
    34   1 H    0.996 --     5 C    0.963
    35   1 H    0.995 --     6 C    0.964
    36   1 H    0.994 --     8 C    0.946
    37   1 H    0.994 --     8 C    0.945
    38   1 H    0.993 --    11 C    0.974
    39   1 H    0.993 --    11 C    0.978
    40   1 H    0.994 --    11 C    0.974
    41   1 H    0.996 --    12 C    0.965
    42   1 H    0.998 --    13 C    0.962
    43   1 H    0.994 --    14 C    0.967
    44   1 H    0.996 --    14 C    0.972
    45   1 H    0.990 --    15 C    0.951
    46   1 H    0.971 --    15 C    0.920
    47   1 H    0.985 --     2 C    0.903
    48   1 H    0.994 --    16 C    0.955
    49   1 H    0.991 --    18 C    0.964
    50   1 H    0.995 --    18 C    0.967
    51   1 H    0.995 --    19 C    0.971
    52   1 H    0.995 --    19 C    0.971
    53   1 H    0.997 --    21 C    0.968
    54   1 H    0.995 --    22 C    0.963
    55   1 H    0.991 --    25 C    0.972
    56   1 H    0.991 --    25 C    0.972
    57   1 H    0.992 --    25 C    0.977
    58   1 H    0.992 --    28 C    0.977
    59   1 H    0.993 --    28 C    0.973
    60   1 H    0.992 --    28 C    0.973
    61   1 H    0.996 --    29 C    0.962
    62   1 H    0.981 --    30 C    0.956
    63   1 H    0.985 --    30 C    0.958
    64   1 H    0.994 --    30 C    0.978
    65   1 H    0.990 --    31 C    0.959
    66   1 H    0.990 --    32 C    0.973
    67   1 H    0.996 --    32 C    0.981
    68   1 H    0.993 --    32 C    0.981
    69   1 H    0.992 --    33 C    0.975
    70   1 H    0.996 --    33 C    0.982
    71   1 H    0.993 --    33 C    0.979
    72   1 H    0.970 --     1 N    0.941
 ---------------------------------------------------------------------------

molecular dipole:
                 x           y           z       tot (Debye)
 q only:        0.742      -0.143      -0.583
   full:        0.827      -0.439      -0.765       3.073

           -------------------------------------------------
          | TOTAL ENERGY              -99.366417553154 Eh   |
          | GRADIENT NORM               0.001506398282 Eh/α |
          | HOMO-LUMO GAP               1.748939304192 eV   |
           -------------------------------------------------

 * finished run on 2024/04/06 at 11:16:04.375
