   * xtb version 6.6.1 (8d0f1dd) compiled by 'conda@1efc2f54142f' on 2023-08-01
          program call               : xtb struc.xyz --opt loose --input .xc1 --gfn2

   ID    Z sym.   atoms
    1    6 C      1, 3, 5-7, 10, 11, 14
    2    7 N      2, 4, 9, 13
    3    8 O      8, 12
    4    1 H      15-25
constraining bond 5 11 to    5.0000000 Å, actual value:    2.3692066 Å

          :  Hamiltonian                  GFN2-xTB          :
 * total energy  :   -29.8874841 Eh     change       -0.6633627E-10 Eh
 * total energy  :   -34.1865988 Eh     change       -0.4299115E+01 Eh
 * total energy  :   -37.1964281 Eh     change       -0.3009829E+01 Eh
 * total energy  :   -39.3803960 Eh     change       -0.2183968E+01 Eh
 * total energy  :   -40.7024681 Eh     change       -0.1322072E+01 Eh
 * total energy  :   -41.2485589 Eh     change       -0.5460908E+00 Eh
 * total energy  :   -41.3821087 Eh     change       -0.1335498E+00 Eh
 * total energy  :   -41.4438714 Eh     change       -0.6176269E-01 Eh
 * total energy  :   -41.5052254 Eh     change       -0.6135399E-01 Eh
 * total energy  :   -41.5566057 Eh     change       -0.5138030E-01 Eh
 * total energy  :   -42.0115565 Eh     change       -0.2058552E-03 Eh
 * total energy  :   -42.0118795 Eh     change       -0.3230368E-03 Eh
 * total energy  :   -42.0119054 Eh     change       -0.2585382E-04 Eh
 * total energy  :   -42.0121523 Eh     change       -0.2468622E-03 Eh
 * total energy  :   -42.0122487 Eh     change       -0.9642301E-04 Eh
 * total energy  :   -42.0123269 Eh     change       -0.7824937E-04 Eh
 * total energy  :   -42.0123815 Eh     change       -0.5454885E-04 Eh
 * total energy  :   -42.0124322 Eh     change       -0.5073583E-04 Eh
 * total energy  :   -42.0124671 Eh     change       -0.3486883E-04 Eh
   *** GEOMETRY OPTIMIZATION CONVERGED AFTER 48 ITERATIONS ***

 final structure:
================
25
 xtb: 6.6.1 (8d0f1dd)
C            3.34273980046000        1.12314895677761       -0.05192430909879
N            2.37896392824347        0.05226177932639       -0.02491160287692
C            2.67569675664353       -1.24221949011587       -0.05450262242005
N            1.55983391197150       -1.97169398424388        0.00097674846121
C            0.45095624681295       -1.10399182605458        0.06210747049517
C            1.02680753491825        0.19821237819595        0.05540812465061
C            0.28374914988496        1.46160198961058        0.09379256631245
O            0.80350649924559        2.56786030897025       -0.03331646771045
N           -1.01116626472237        1.26170335193031        0.33263437762264
C           -2.03232176842552        2.18783412225878        0.27098423460625
C           -4.23093575925412        0.36972959817350       -0.88880615751260
O           -4.28795897604591       -0.75326161231682       -0.84693677110010
N           -0.79600893791375       -1.38278476447996        0.09786611873681
C           -1.35173304726212       -2.68250531896069        0.12717033857753
H            3.90451363023849        1.14710400880619        0.88260258126943
H            4.03749683596556        0.98193150922813       -0.87878988209430
H            2.81214143627159        2.06910852429360       -0.17109403397832
H            3.67219730722119       -1.64051379830118       -0.10985994568999
H           -1.77348057095104        3.09235904199993       -0.29631319102042
H           -2.90362888151035        1.69547905794692       -0.21737418127217
H           -2.36964687598231        2.45572244487237        1.28113113743357
H           -1.10827196253975       -3.19898618190549        1.06271444443828
H           -1.00079678800069       -3.30590667355054       -0.70363276099479
H           -2.43416777983579       -2.58431941406751        0.06212026565702
H            1.51194608866745       -2.97963546679506       -0.02087486459189

          :  Hamiltonian                  GFN2-xTB          :
         :: total energy             -42.012467084650 Eh    ::
         :: gradient norm              0.002186565673 Eh/a0 ::
         :: HOMO-LUMO gap              0.181617059178 eV    ::
         :: SCC energy               -42.549841752887 Eh    ::
         :: -> dispersion             -0.020196668686 Eh    ::
         :: repulsion energy           0.537250809830 Eh    ::

    * Orbital Energies and Occupations

         #    Occupation            Energy/Eh            Energy/eV
      -------------------------------------------------------------
         1        2.0000           -0.9011124             -24.5205
       ...           ...                  ...                  ...
        25        2.0000           -0.6547919             -17.8178
        26        2.0000           -0.6543634             -17.8061
        27        2.0000           -0.6325460             -17.2125
        28        2.0000           -0.6310553             -17.1719
        29        2.0000           -0.6245498             -16.9949
        30        2.0000           -0.6182772             -16.8242
        31        2.0000           -0.6087827             -16.5658
        32        2.0000           -0.6015871             -16.3700
        33        1.9995           -0.5763832             -15.6842
        34        1.9864           -0.5504347             -14.9781
        35        1.9204           -0.5361611             -14.5897
        36        1.8007           -0.5283829             -14.3780
        37        1.3496           -0.5167363             -14.0611 (HOMO)
        38        0.9435           -0.5100620             -13.8795 (LUMO)
        39        0.0000           -0.4166839             -11.3385
        40        0.0000           -0.3868261             -10.5261
        41        0.0000           -0.3866563             -10.5215
        42                         -0.3657143              -9.9516
        43                         -0.2864014              -7.7934
        44                         -0.1828277              -4.9750
        45                         -0.1470627              -4.0018
        46                         -0.0753870              -2.0514
        47                         -0.0720577              -1.9608
        48                         -0.0224830              -0.6118
       ...                                ...                  ...
        67                          0.7223061              19.6549
      -------------------------------------------------------------
                  HL-Gap            0.0066743 Eh            0.1816 eV

     #   Z          covCN         q      C6AA      α(0)
     1   6 C        3.693    -0.096    22.525     6.791
     2   7 N        2.824     0.088    19.718     6.595
     3   6 C        3.012     0.072    26.371     8.424
     4   7 N        2.784    -0.082    22.833     7.097
     5   6 C        2.970     0.141    24.919     8.188
     6   6 C        3.102     0.008    27.712     8.626
     7   6 C        2.757     0.283    22.214     7.718
     8   8 O        0.858    -0.390    21.479     6.214
     9   7 N        1.842    -0.149    25.012     7.412
    10   6 C        3.688    -0.044    21.565     6.647
    11   6 C        0.856     0.064    33.223     9.618
    12   8 O        0.856    -0.028    15.490     5.277
    13   7 N        1.826    -0.173    25.555     7.491
    14   6 C        3.698    -0.043    21.505     6.633
    15   1 H        0.924     0.106     1.732     2.058
    16   1 H        0.925     0.102     1.765     2.077
    17   1 H        0.924     0.144     1.430     1.870
    18   1 H        0.926     0.120     1.612     1.985
    19   1 H        0.923     0.120     1.611     1.985
    20   1 H        0.921     0.149     1.398     1.849
    21   1 H        0.923     0.127     1.555     1.950
    22   1 H        0.924     0.086     1.922     2.168
    23   1 H        0.924     0.075     2.033     2.230
    24   1 H        0.925     0.097     1.811     2.105
    25   1 H        0.860     0.222     1.002     1.568

Wiberg/Mayer (AO) data.
largest (>0.10) Wiberg bond orders for each atom

     #   Z sym  total        # sym  WBO       # sym  WBO       # sym  WBO
 ---------------------------------------------------------------------------
     1   6 C    3.905 --     2 N    0.981    16 H    0.964    15 H    0.957
                            17 H    0.950
     2   7 N    3.718 --     3 C    1.363     6 C    1.220     1 C    0.981
     3   6 C    3.828 --     2 N    1.363     4 N    1.344    18 H    0.951
     4   7 N    3.536 --     3 C    1.344     5 C    1.058    25 H    0.923
     5   6 C    3.952 --    13 N    1.553     6 C    1.201     4 N    1.058
     6   6 C    3.721 --     2 N    1.220     5 C    1.201     7 C    1.041
     7   6 C    3.938 --     8 O    1.545     9 N    1.273     6 C    1.041
     8   8 O    1.837 --     7 C    1.545     9 N    0.140
     9   7 N    2.684 --     7 C    1.273    10 C    1.156     8 O    0.140
    10   6 C    3.859 --     9 N    1.156    19 H    0.909    21 H    0.894
                            20 H    0.820
    11   6 C    2.703 --    12 O    2.603
    12   8 O    2.621 --    11 C    2.603
    13   7 N    2.799 --     5 C    1.553    14 C    1.061
    14   6 C    3.932 --    13 N    1.061    24 H    0.965    23 H    0.936
                            22 H    0.928
    15   1 H    0.987 --     1 C    0.957
    16   1 H    0.988 --     1 C    0.964
    17   1 H    0.978 --     1 C    0.950
    18   1 H    0.984 --     3 C    0.951
    19   1 H    0.920 --    10 C    0.909
    20   1 H    0.911 --    10 C    0.820
    21   1 H    0.925 --    10 C    0.894
    22   1 H    0.952 --    14 C    0.928
    23   1 H    0.958 --    14 C    0.936
    24   1 H    0.979 --    14 C    0.965
    25   1 H    0.950 --     4 N    0.923
 ---------------------------------------------------------------------------

molecular dipole:
                 x           y           z       tot (Debye)
 q only:        1.379      -1.572       0.058
   full:        1.694      -2.385       0.015       7.435

           -------------------------------------------------
          | TOTAL ENERGY              -42.012467084650 Eh   |
          | GRADIENT NORM               0.002186565673 Eh/α |
          | HOMO-LUMO GAP               0.181617059178 eV   |
           -------------------------------------------------

 * finished run on 2024/06/05 at 19:57:58.474
