   * xtb version 6.6.1 (8d0f1dd) compiled by 'conda@1efc2f54142f' on 2023-08-01
          program call               : xtb xtbopt.xyz --opt crude --input .xc2 --gfn2

   ID    Z sym.   atoms
    1    7 N      1, 17
    2    6 C      2-6, 8, 9, 11-16, 18-23, 25, 26, 28-33
    3    8 O      7, 10, 24, 27
    4    1 H      34-72

          :  Hamiltonian                  GFN2-xTB          :
 * total energy  :   -99.3792963 Eh     change       -0.1449507E-11 Eh
   *** GEOMETRY OPTIMIZATION CONVERGED AFTER 1 ITERATIONS ***

 final structure:
================
72
 xtb: 6.6.1 (8d0f1dd)
N           -2.16101753814459        2.03517751969872        2.36495602118457
C           -1.99179337215916        2.29301011837262        1.03467557613187
C           -2.42223473048422        1.52582952560716        0.01094223891995
C           -3.12987332943242        0.25892805575776        0.21781352254297
C           -4.26193424120653       -0.06448396124318       -0.54043397547121
C           -4.94250405932184       -1.25232828281468       -0.35081305833016
O           -6.06010091083936       -1.62666477573141       -1.00995796761354
C           -6.64575401322656       -0.73457466495723       -1.92733236883885
C           -4.46894225191843       -2.18936356643911        0.60856641307137
O           -5.18863825818702       -3.32563500298009        0.70616909084575
C           -4.81222943002810       -4.29936328654833        1.65058775259136
C           -3.33946994370723       -1.87419287105152        1.34785390248070
C           -2.68404402983195       -0.66575592799357        1.16053572350240
C           -2.16952345747690        1.96497061707084       -1.40443091692226
C           -1.24784896621160        0.97247295629294       -2.15714071152716
C            0.09934141328187        0.96596594795831       -1.55752470500621
N            0.67874163718266       -0.05730586027418       -0.94867390125076
C            2.02637514766013        0.06906652072395       -0.44735521900351
C            3.06416564710644       -0.43475186941435       -1.46941187253854
C            4.45546075039657       -0.20088164952344       -0.95214047213050
C            5.07086363987660        1.02806689325144       -1.12294485547959
C            6.34465425880970        1.25909696161504       -0.62715588620820
C            7.02885991165407        0.26241742579914        0.05292219233438
O            8.26791907102584        0.37335980058104        0.57056597424716
C            8.97597470495034        1.57946748858458        0.39934260876928
C            6.40416720700683       -1.00095067475342        0.23632969539607
O            7.14049853983093       -1.91431198624502        0.90356515044018
C            6.61635231472770       -3.20499787781656        1.10351830185084
C            5.12864272652117       -1.20737224311894       -0.26428898618726
C            0.09140464997207       -1.37616866476092       -0.93930927706447
C           -5.26574903044264        3.44354758571224        0.59359779925597
C           -5.48080981189663        2.63959852991911        1.61940361428491
C           -4.62962274036803        4.78811427489266        0.68385164912418
H           -4.63044533268668        0.64957081574766       -1.25738563004884
H           -6.92368919281612        0.20912034117386       -1.44735944031015
H           -7.54355308480420       -1.23322612351298       -2.28728531827677
H           -5.98097350594968       -0.53331189638641       -2.77398410206994
H           -4.83808695922423       -3.90232926219543        2.67006184705301
H           -5.54714105197597       -5.09676732143082        1.55587386008052
H           -3.81541308732364       -4.69999258854278        1.43917737126458
H           -2.95925280223466       -2.56757360659480        2.08083296443247
H           -1.79736687947748       -0.45461138643879        1.73925094610543
H           -3.10808521591354        2.03160585645323       -1.95526817355588
H           -1.70987421872504        2.95359079530910       -1.40877739238134
H           -1.70507731905371       -0.01481147205126       -2.15545142909937
H           -1.17070676269257        1.31779473429985       -3.19286445751768
H           -1.44127529828357        3.19993602498754        0.82234518209115
H            0.63886127176389        1.90013715358886       -1.54119033441783
H            2.11763895788903       -0.50168450306177        0.47965425853724
H            2.23014836647915        1.11759593307592       -0.22251402681408
H            2.91989191731756        0.10828997940947       -2.40548962736996
H            2.90604551515258       -1.49702536523957       -1.65875260348490
H            4.56399537733742        1.81619062326787       -1.65887036701343
H            6.79979240194736        2.22358890026011       -0.78143015104864
H            8.47327670786393        2.41363071637690        0.89917937057578
H            9.11316343859456        1.81646948706866       -0.66020591242130
H            9.94811150234957        1.41580629959925        0.86105407506670
H            7.38565493585735       -3.75191631297576        1.64484759522790
H            5.70167435210226       -3.17896845021959        1.70445159325330
H            6.41604198188895       -3.70851667622571        0.15261892019409
H            4.64821319098498       -2.16479889077534       -0.13684685726566
H            0.02934208733878       -1.78708233744463       -1.95041293532256
H           -0.91250309557591       -1.34459244185103       -0.50958387153844
H            0.70499136827027       -2.03789620211790       -0.33384626591292
H           -5.56759962450707        3.14527163307784       -0.40198240381136
H           -2.87854065726235        1.36660363349096        2.60395148609673
H           -5.95409456287420        1.67875146592587        1.50912283865479
H           -5.20829479631310        2.92336995150617        2.62298646003429
H           -4.36498548238732        5.03104922504406        1.70971577401875
H           -3.73356109228328        4.82521175283613        0.06465593787424
H           -5.31538801696745        5.54803394349844        0.31103313430370
H           -2.07575124171370        2.81763803757127        2.99366947354783

          :  Hamiltonian                  GFN2-xTB          :
         :: total energy             -99.379296347816 Eh    ::
         :: gradient norm              0.002334553397 Eh/a0 ::
         :: HOMO-LUMO gap              1.525602524630 eV    ::
         :: SCC energy              -100.808249754509 Eh    ::
         :: -> dispersion             -0.071948872687 Eh    ::
         :: repulsion energy           1.427637162587 Eh    ::

    * Orbital Energies and Occupations

         #    Occupation            Energy/Eh            Energy/eV
      -------------------------------------------------------------
         1        2.0000           -0.8023743             -21.8337
       ...           ...                  ...                  ...
        78        1.9990           -0.5269432             -14.3389
        79        1.9989           -0.5259561             -14.3120
        80        1.9986           -0.5219151             -14.2020
        81        1.9985           -0.5213667             -14.1871
        82        1.9979           -0.5153479             -14.0233
        83        1.9976           -0.5133465             -13.9689
        84        1.9971           -0.5107299             -13.8977
        85        1.9884           -0.4884124             -13.2904
        86        1.9820           -0.4814697             -13.1015
        87        1.9791           -0.4790855             -13.0366
        88        1.9436           -0.4630596             -12.6005
        89        1.8687           -0.4490645             -12.2197
        90        1.8075           -0.4424765             -12.0404 (HOMO)
        91        0.4280           -0.3864116             -10.5148 (LUMO)
        92        0.0093           -0.3220987              -8.7648
        93        0.0039           -0.3081850              -8.3861
        94        0.0032           -0.3051069              -8.3024
        95        0.0028           -0.3028925              -8.2421
        96        0.0007           -0.2802743              -7.6267
        97        0.0003           -0.2682386              -7.2991
        98        0.0000           -0.1800695              -4.8999
        99        0.0000           -0.1785198              -4.8578
       100                         -0.1241605              -3.3786
       101                         -0.0634891              -1.7276
       ...                                ...                  ...
       171                          0.5884698              16.0131
      -------------------------------------------------------------
                  HL-Gap            0.0560649 Eh            1.5256 eV

     #   Z          covCN         q      C6AA      α(0)
     1   7 N        2.635    -0.245    26.383     7.629
     2   6 C        2.829     0.024    27.464     8.587
     3   6 C        2.952    -0.038    28.943     8.824
     4   6 C        2.971    -0.001    28.042     8.686
     5   6 C        2.920    -0.080    29.990     8.980
     6   6 C        2.862     0.129    25.168     8.223
     7   8 O        1.706    -0.234    17.886     5.710
     8   6 C        3.645     0.030    20.405     6.492
     9   6 C        2.864     0.128    25.184     8.226
    10   8 O        1.706    -0.231    17.824     5.700
    11   6 C        3.645     0.028    20.432     6.497
    12   6 C        2.912    -0.075    29.871     8.962
    13   6 C        2.923    -0.062    29.536     8.912
    14   6 C        3.812    -0.063    21.694     6.630
    15   6 C        3.803    -0.067    21.782     6.644
    16   6 C        2.849     0.004    27.939     8.663
    17   7 N        2.729     0.022    20.858     6.783
    18   6 C        3.758    -0.020    20.986     6.531
    19   6 C        3.808    -0.070    21.839     6.652
    20   6 C        2.969    -0.001    28.056     8.688
    21   6 C        2.922    -0.050    29.246     8.868
    22   6 C        2.914    -0.068    29.703     8.937
    23   6 C        2.865     0.132    25.110     8.214
    24   8 O        1.706    -0.226    17.748     5.688
    25   6 C        3.645     0.026    20.467     6.502
    26   6 C        2.863     0.132    25.116     8.215
    27   8 O        1.706    -0.228    17.788     5.694
    28   6 C        3.645     0.028    20.435     6.497
    29   6 C        2.920    -0.080    29.997     8.981
    30   6 C        3.700    -0.074    22.083     6.720
    31   6 C        2.884    -0.020    28.515     8.754
    32   6 C        2.837    -0.097    30.418     9.038
    33   6 C        3.756    -0.108    22.613     6.780
    34   1 H        0.926     0.048     2.345     2.395
    35   1 H        0.924     0.050     2.325     2.385
    36   1 H        0.925     0.079     1.993     2.208
    37   1 H        0.924     0.046     2.366     2.406
    38   1 H        0.924     0.052     2.301     2.372
    39   1 H        0.925     0.079     1.986     2.204
    40   1 H        0.924     0.048     2.344     2.394
    41   1 H        0.926     0.048     2.350     2.397
    42   1 H        0.926     0.042     2.426     2.436
    43   1 H        0.924     0.061     2.184     2.311
    44   1 H        0.924     0.046     2.371     2.408
    45   1 H        0.925     0.064     2.155     2.296
    46   1 H        0.924     0.075     2.028     2.227
    47   1 H        0.925     0.041     2.430     2.438
    48   1 H        0.926     0.068     2.108     2.271
    49   1 H        0.924     0.069     2.095     2.264
    50   1 H        0.924     0.070     2.089     2.260
    51   1 H        0.924     0.055     2.262     2.352
    52   1 H        0.924     0.054     2.265     2.354
    53   1 H        0.926     0.043     2.413     2.429
    54   1 H        0.926     0.056     2.244     2.343
    55   1 H        0.924     0.052     2.292     2.367
    56   1 H        0.924     0.054     2.273     2.358
    57   1 H        0.925     0.080     1.975     2.198
    58   1 H        0.925     0.080     1.980     2.200
    59   1 H        0.924     0.047     2.357     2.401
    60   1 H        0.924     0.051     2.307     2.375
    61   1 H        0.926     0.046     2.368     2.406
    62   1 H        0.924     0.076     2.017     2.221
    63   1 H        0.924     0.085     1.929     2.172
    64   1 H        0.925     0.079     1.992     2.207
    65   1 H        0.925     0.030     2.581     2.512
    66   1 H        0.860     0.182     1.204     1.719
    67   1 H        0.926     0.034     2.526     2.485
    68   1 H        0.926     0.037     2.491     2.468
    69   1 H        0.925     0.045     2.390     2.417
    70   1 H        0.925     0.044     2.393     2.419
    71   1 H        0.925     0.059     2.213     2.326
    72   1 H        0.860     0.179     1.218     1.729

Wiberg/Mayer (AO) data.
largest (>0.10) Wiberg bond orders for each atom

     #   Z sym  total        # sym  WBO       # sym  WBO       # sym  WBO
 ---------------------------------------------------------------------------
     1   7 N    3.259 --     2 C    1.214    72 H    0.950    66 H    0.939
                             3 C    0.106
     2   6 C    3.919 --     3 C    1.641     1 N    1.214    47 H    0.961
     3   6 C    3.893 --     2 C    1.641     4 C    1.071    14 C    1.010
                             1 N    0.106
     4   6 C    3.956 --    13 C    1.374     5 C    1.340     3 C    1.071
     5   6 C    3.957 --     6 C    1.415     4 C    1.340    34 H    0.959
     6   6 C    3.910 --     5 C    1.415     9 C    1.220     7 O    1.094
     7   8 O    2.253 --     6 C    1.094     8 C    0.980
     8   6 C    3.935 --     7 O    0.980    36 H    0.977    37 H    0.974
                            35 H    0.974
     9   6 C    3.895 --    12 C    1.387     6 C    1.220    10 O    1.099
    10   8 O    2.250 --     9 C    1.099    11 C    0.979
    11   6 C    3.934 --    10 O    0.979    39 H    0.977    38 H    0.974
                            40 H    0.974
    12   6 C    3.964 --    13 C    1.415     9 C    1.387    41 H    0.964
    13   6 C    3.946 --    12 C    1.415     4 C    1.374    42 H    0.967
    14   6 C    3.963 --     3 C    1.010    44 H    0.974    43 H    0.957
                            15 C    0.949
    15   6 C    3.984 --    16 C    1.066    45 H    0.968    14 C    0.949
                            46 H    0.941
    16   6 C    3.558 --    17 N    1.419    15 C    1.066    48 H    0.959
    17   7 N    3.478 --    16 C    1.419    30 C    0.998    18 C    0.989
    18   6 C    3.956 --    17 N    0.989    50 H    0.967    19 C    0.966
                            49 H    0.964
    19   6 C    3.976 --    20 C    1.008    52 H    0.973    51 H    0.971
                            18 C    0.966
    20   6 C    3.950 --    21 C    1.412    29 C    1.380    19 C    1.008
    21   6 C    3.955 --    22 C    1.416    20 C    1.412    53 H    0.968
    22   6 C    3.963 --    21 C    1.416    23 C    1.386    54 H    0.963
    23   6 C    3.900 --    22 C    1.386    26 C    1.225    24 O    1.105
    24   8 O    2.254 --    23 C    1.105    25 C    0.977
    25   6 C    3.931 --    57 H    0.977    24 O    0.977    56 H    0.973
                            55 H    0.973
    26   6 C    3.904 --    29 C    1.397    23 C    1.225    27 O    1.099
    27   8 O    2.253 --    26 C    1.099    28 C    0.980
    28   6 C    3.934 --    27 O    0.980    58 H    0.977    59 H    0.974
                            60 H    0.974
    29   6 C    3.962 --    26 C    1.397    20 C    1.380    61 H    0.963
    30   6 C    3.956 --    17 N    0.998    64 H    0.978    62 H    0.966
                            63 H    0.959
    31   6 C    3.975 --    32 C    1.957    33 C    1.043    65 H    0.966
    32   6 C    3.969 --    31 C    1.957    67 H    0.977    68 H    0.974
    33   6 C    3.993 --    31 C    1.043    69 H    0.985    70 H    0.968
                            71 H    0.965
    34   1 H    0.996 --     5 C    0.959
    35   1 H    0.994 --     8 C    0.974
    36   1 H    0.993 --     8 C    0.977
    37   1 H    0.995 --     8 C    0.974
    38   1 H    0.994 --    11 C    0.974
    39   1 H    0.993 --    11 C    0.977
    40   1 H    0.994 --    11 C    0.974
    41   1 H    0.996 --    12 C    0.964
    42   1 H    0.998 --    13 C    0.967
    43   1 H    0.990 --    14 C    0.957
    44   1 H    0.997 --    14 C    0.974
    45   1 H    0.996 --    15 C    0.968
    46   1 H    0.976 --    15 C    0.941
    47   1 H    0.997 --     2 C    0.961
    48   1 H    0.995 --    16 C    0.959
    49   1 H    0.991 --    18 C    0.964
    50   1 H    0.994 --    18 C    0.967
    51   1 H    0.996 --    19 C    0.971
    52   1 H    0.996 --    19 C    0.973
    53   1 H    0.998 --    21 C    0.968
    54   1 H    0.995 --    22 C    0.963
    55   1 H    0.993 --    25 C    0.973
    56   1 H    0.993 --    25 C    0.973
    57   1 H    0.993 --    25 C    0.977
    58   1 H    0.993 --    28 C    0.977
    59   1 H    0.994 --    28 C    0.974
    60   1 H    0.994 --    28 C    0.974
    61   1 H    0.997 --    29 C    0.963
    62   1 H    0.984 --    30 C    0.966
    63   1 H    0.986 --    30 C    0.959
    64   1 H    0.994 --    30 C    0.978
    65   1 H    0.998 --    31 C    0.966
    66   1 H    0.966 --     1 N    0.939
    67   1 H    0.998 --    32 C    0.977
    68   1 H    0.998 --    32 C    0.974
    69   1 H    0.997 --    33 C    0.985
    70   1 H    0.996 --    33 C    0.968
    71   1 H    0.994 --    33 C    0.965
    72   1 H    0.967 --     1 N    0.950
 ---------------------------------------------------------------------------

molecular dipole:
                 x           y           z       tot (Debye)
 q only:        0.508       0.416      -0.282
   full:        0.265       0.683      -0.297       2.010

           -------------------------------------------------
          | TOTAL ENERGY              -99.379296347816 Eh   |
          | GRADIENT NORM               0.002334553397 Eh/α |
          | HOMO-LUMO GAP               1.525602524630 eV   |
           -------------------------------------------------

 * finished run on 2024/04/06 at 11:12:23.966
