   * xtb version 6.6.1 (8d0f1dd) compiled by 'conda@1efc2f54142f' on 2023-08-01
          program call               : xtb xtbopt.xyz --opt crude --input .xc2 --gfn2

   ID    Z sym.   atoms
    1    6 C      1, 3, 5-7, 10, 11, 14
    2    7 N      2, 4, 9, 13
    3    8 O      8, 12
    4    1 H      15-25

          :  Hamiltonian                  GFN2-xTB          :
 * total energy  :   -42.1371678 Eh     change       -0.4192202E-12 Eh
   *** GEOMETRY OPTIMIZATION CONVERGED AFTER 1 ITERATIONS ***

 final structure:
================
25
 xtb: 6.6.1 (8d0f1dd)
C            3.43638434931387        2.11138828536078        0.02323070570819
N            2.81357473926093        0.81380999560868        0.01892598911831
C            3.42313103633928       -0.36473478122278        0.01800755999507
N            2.51844794010261       -1.35844396910003        0.01318990133028
C            1.26531250187983       -0.80009451691113        0.01051156654265
C            1.46557988444913        0.58809409515865        0.01445188855618
C            0.32755553100731        1.47960077922406        0.00931776982161
O            0.38554923537250        2.69441248608705        0.01309890103758
N           -0.86387073419735        0.77755446037728       -0.00160992112573
C           -2.09773733277345        1.53575104406723       -0.01124481372286
C           -1.01173014185975       -0.64020798597212       -0.00050893153573
O           -2.12798931483241       -1.10766814756231       -0.00487918994203
N            0.10667792734146       -1.40616216413605        0.00392279659446
C           -4.30611809722012       -4.03863711755366       -0.03573249045272
H            4.04708993835390        2.23651094968473        0.91785709890637
H            4.07118929410177        2.23107500048825       -0.85494857900946
H            2.65512678242999        2.87187532654912        0.01137396981942
H            4.48763800485632       -0.50478867683912        0.02105588469380
H           -1.84837756918828        2.59529907962651        0.00105541340964
H           -2.67584664283494        1.29215206002940       -0.90433062947260
H           -2.69906453110198        1.27632768025935        0.86190350237650
H           -4.62817262074775       -4.44751462346269        0.90512273779127
H           -4.63042910395842       -4.49502856094275       -0.95189876368934
H           -3.66745824213509       -3.17254673954353       -0.05874000145159
H            2.71396868013910       -2.34978541767613        0.01203925259308

          :  Hamiltonian                  GFN2-xTB          :
         :: total energy             -42.137167750740 Eh    ::
         :: gradient norm              0.003859999238 Eh/a0 ::
         :: HOMO-LUMO gap              1.116902904911 eV    ::
         :: SCC energy               -42.663435354535 Eh    ::
         :: -> dispersion             -0.020214411035 Eh    ::
         :: repulsion energy           0.526271555853 Eh    ::

    * Orbital Energies and Occupations

         #    Occupation            Energy/Eh            Energy/eV
      -------------------------------------------------------------
         1        2.0000           -0.8992865             -24.4708
       ...           ...                  ...                  ...
        25        1.9998           -0.6513526             -17.7242
        26        1.9993           -0.6313633             -17.1803
        27        1.9993           -0.6302905             -17.1511
        28        1.9981           -0.6149909             -16.7348
        29        1.9980           -0.6142019             -16.7133
        30        1.9977           -0.6119079             -16.6509
        31        1.9970           -0.6074541             -16.5297
        32        1.9942           -0.5970287             -16.2460
        33        1.9646           -0.5682435             -15.4627
        34        1.9069           -0.5524561             -15.0331
        35        1.8966           -0.5506978             -14.9852
        36        1.8322           -0.5424838             -14.7617
        37        1.7387           -0.5346445             -14.5484 (HOMO)
        38        0.6649           -0.4935990             -13.4315 (LUMO)
        39        0.0120           -0.4236942             -11.5293
        40        0.0010           -0.3836456             -10.4395
        41        0.0001           -0.3505923              -9.5401
        42        0.0000           -0.2639497              -7.1824
        43                         -0.1808427              -4.9210
        44                         -0.1615056              -4.3948
        45                         -0.1202441              -3.2720
        46                         -0.0702613              -1.9119
        47                         -0.0248478              -0.6761
        48                         -0.0196119              -0.5337
       ...                                ...                  ...
        67                          0.5443431              14.8123
      -------------------------------------------------------------
                  HL-Gap            0.0410454 Eh            1.1169 eV

     #   Z          covCN         q      C6AA      α(0)
     1   6 C        3.692    -0.092    22.457     6.781
     2   7 N        2.826     0.087    19.740     6.599
     3   6 C        3.063     0.064    26.507     8.443
     4   7 N        2.795    -0.054    22.275     7.010
     5   6 C        3.065     0.149    24.711     8.151
     6   6 C        3.132    -0.021    28.312     8.711
     7   6 C        2.766     0.276    22.327     7.738
     8   8 O        0.858    -0.368    21.057     6.152
     9   7 N        2.747    -0.087    22.930     7.112
    10   6 C        3.703    -0.054    21.708     6.662
    11   6 C        2.754     0.339    21.243     7.547
    12   8 O        0.860    -0.354    20.785     6.112
    13   7 N        1.832    -0.250    27.370     7.753
    14   6 C        2.778    -0.072    29.767     8.936
    15   1 H        0.924     0.107     1.722     2.052
    16   1 H        0.925     0.107     1.725     2.054
    17   1 H        0.924     0.136     1.492     1.910
    18   1 H        0.926     0.125     1.573     1.961
    19   1 H        0.925     0.112     1.678     2.026
    20   1 H        0.924     0.102     1.769     2.080
    21   1 H        0.924     0.102     1.765     2.078
    22   1 H        0.926     0.131     1.526     1.932
    23   1 H        0.926     0.131     1.526     1.932
    24   1 H        0.926     0.147     1.410     1.857
    25   1 H        0.860     0.238     0.933     1.513

Wiberg/Mayer (AO) data.
largest (>0.10) Wiberg bond orders for each atom

     #   Z sym  total        # sym  WBO       # sym  WBO       # sym  WBO
 ---------------------------------------------------------------------------
     1   6 C    3.911 --     2 N    0.983    17 H    0.961    16 H    0.959
                            15 H    0.959
     2   7 N    3.710 --     3 C    1.393     6 C    1.182     1 C    0.983
     3   6 C    3.877 --     2 N    1.393     4 N    1.316    18 H    0.951
     4   7 N    3.595 --     3 C    1.316     5 C    1.153    25 H    0.916
     5   6 C    3.948 --    13 N    1.379     6 C    1.259     4 N    1.153
     6   6 C    3.808 --     5 C    1.259     2 N    1.182     7 C    1.078
     7   6 C    3.954 --     8 O    1.636     9 N    1.144     6 C    1.078
     8   8 O    1.940 --     7 C    1.636     9 N    0.140
     9   7 N    3.470 --     7 C    1.144    11 C    1.027    10 C    0.988
                             8 O    0.140
    10   6 C    3.891 --     9 N    0.988    19 H    0.961    21 H    0.950
                            20 H    0.950
    11   6 C    3.943 --    12 O    1.649    13 N    1.181     9 N    1.027
    12   8 O    1.913 --    11 C    1.649
    13   7 N    2.834 --     5 C    1.379    11 C    1.181
    14   6 C    2.934 --    23 H    0.980    22 H    0.980    24 H    0.973
    15   1 H    0.986 --     1 C    0.959
    16   1 H    0.986 --     1 C    0.959
    17   1 H    0.980 --     1 C    0.961
    18   1 H    0.983 --     3 C    0.951
    19   1 H    0.979 --    10 C    0.961
    20   1 H    0.969 --    10 C    0.950
    21   1 H    0.969 --    10 C    0.950
    22   1 H    0.982 --    14 C    0.980
    23   1 H    0.982 --    14 C    0.980
    24   1 H    0.977 --    14 C    0.973
    25   1 H    0.942 --     4 N    0.916
 ---------------------------------------------------------------------------

molecular dipole:
                 x           y           z       tot (Debye)
 q only:        1.744      -1.824      -0.003
   full:        2.185      -1.905      -0.001       7.369

           -------------------------------------------------
          | TOTAL ENERGY              -42.137167750740 Eh   |
          | GRADIENT NORM               0.003859999238 Eh/α |
          | HOMO-LUMO GAP               1.116902904911 eV   |
           -------------------------------------------------

 * finished run on 2024/06/05 at 20:00:17.696
