   * xtb version 6.6.1 (8d0f1dd) compiled by 'conda@1efc2f54142f' on 2023-08-01
          program call               : xtb xtbopt.xyz --opt crude --input .xc2 --gfn2

   ID    Z sym.   atoms
    1    6 C      1, 3, 5-7, 10, 11, 14
    2    7 N      2, 4, 9, 13
    3    8 O      8, 12
    4    1 H      15-25
########################################################################
[WARNING] Please study the warnings concerning your input carefully
-1- readin_getIntValue: could not parse ''
########################################################################

          :  Hamiltonian                  GFN2-xTB          :
 * total energy  :   -40.3742611 Eh     change       -0.1612932E-11 Eh
 * total energy  :   -42.0883877 Eh     change       -0.1714127E+01 Eh
 * total energy  :   -42.1017447 Eh     change       -0.1335707E-01 Eh
 * total energy  :   -42.1042695 Eh     change       -0.2524774E-02 Eh
 * total energy  :   -42.1076827 Eh     change       -0.3413221E-02 Eh
 * total energy  :   -42.1084509 Eh     change       -0.7682049E-03 Eh
 * total energy  :   -42.1092277 Eh     change       -0.7767325E-03 Eh
 * total energy  :   -42.1095555 Eh     change       -0.3278818E-03 Eh
 * total energy  :   -42.1098865 Eh     change       -0.3309521E-03 Eh
 * total energy  :   -42.1100979 Eh     change       -0.2114439E-03 Eh
   *** GEOMETRY OPTIMIZATION CONVERGED AFTER 10 ITERATIONS ***

 final structure:
================
25
 xtb: 6.6.1 (8d0f1dd)
C            4.42020479217940        1.54949036963751        0.32474775100803
N            3.60330475999156        0.42244065605847        0.43210208197446
C            2.04121230745052       -1.19048047167985       -0.27100723718848
N            0.84343985111838       -1.66932181420177       -0.24561720547154
C           -0.31538863810931       -0.95339555829504       -0.12344196161096
C            2.76882796225055       -0.04954410203252       -0.41501935674149
C           -0.45366620841695        0.50269890716197       -0.19021107711597
O            0.40219379085863        1.34040590757891       -0.37623736332675
N           -1.80588963490345        0.72065434318911       -0.00367603772741
C           -2.43310539429470        2.02071970046756       -0.01271908717799
C           -2.49616554978120       -0.45743384283677        0.16703298729335
O           -3.66422729431552       -0.62694397080653        0.34941265553862
N           -1.53146446408198       -1.49538191345175        0.08590484983400
C           -1.88181696596053       -2.88095490923967        0.23292853640549
H            4.40975525999340        2.06766287340375        1.28824996669133
H            5.45182825811014        1.22120938759105        0.15085620670490
H            4.11695500667863        2.24446308092371       -0.46752829654373
H            2.68739398096553        0.39374374635175       -1.42022339431530
H           -1.64601034007923        2.77228629254098       -0.01928819406264
H           -3.05798692719509        2.13192283541230       -0.90020426711464
H           -3.05919997553285        2.13381966794286        0.87193332495782
H           -1.36119395702575       -3.32748622046696        1.08251787947402
H           -1.65772523930310       -3.44168161481753       -0.67675688153478
H           -2.95612041903871       -2.92098962658678        0.41533293567624
H            0.73527655254295       -2.68966518224633       -0.24791719772410

          :  Hamiltonian                  GFN2-xTB          :
         :: total energy             -42.110097934669 Eh    ::
         :: gradient norm              0.007106965153 Eh/a0 ::
         :: HOMO-LUMO gap              0.304013534700 eV    ::
         :: SCC energy               -42.644870174749 Eh    ::
         :: -> dispersion             -0.020333728240 Eh    ::
         :: repulsion energy           0.534742698885 Eh    ::

    * Orbital Energies and Occupations

         #    Occupation            Energy/Eh            Energy/eV
      -------------------------------------------------------------
         1        2.0000           -0.8929193             -24.2976
       ...           ...                  ...                  ...
        25        1.9999           -0.6685197             -18.1913
        26        1.9999           -0.6659505             -18.1214
        27        1.9995           -0.6404897             -17.4286
        28        1.9994           -0.6361829             -17.3114
        29        1.9988           -0.6255776             -17.0228
        30        1.9975           -0.6135558             -16.6957
        31        1.9973           -0.6125942             -16.6695
        32        1.9957           -0.6052057             -16.4685
        33        1.9884           -0.5894123             -16.0387
        34        1.9624           -0.5704987             -15.5241
        35        1.9499           -0.5658789             -15.3983
        36        1.7300           -0.5373104             -14.6210
        37        1.3457           -0.5193150             -14.1313 (HOMO)
        38        1.0078           -0.5081427             -13.8273 (LUMO)
        39        0.0275           -0.4402353             -11.9794
        40        0.0003           -0.3675198             -10.0007
        41        0.0001           -0.3479918              -9.4693
        42        0.0000           -0.3275078              -8.9119
        43                         -0.1883360              -5.1249
        44                         -0.1814717              -4.9381
        45                         -0.1183008              -3.2191
        46                         -0.0588470              -1.6013
        47                         -0.0521853              -1.4200
        48                         -0.0248582              -0.6764
       ...                                ...                  ...
        67                          0.5706655              15.5286
      -------------------------------------------------------------
                  HL-Gap            0.0111723 Eh            0.3040 eV

     #   Z          covCN         q      C6AA      α(0)
     1   6 C        3.694    -0.051    21.672     6.660
     2   7 N        1.832    -0.092    23.792     7.228
     3   6 C        1.927     0.014    30.726     8.952
     4   7 N        2.683     0.017    20.963     6.800
     5   6 C        2.959     0.058    26.692     8.474
     6   6 C        2.828     0.083    26.139     8.378
     7   6 C        2.841     0.258    22.666     7.802
     8   8 O        0.857    -0.367    21.030     6.148
     9   7 N        2.803    -0.078    22.763     7.086
    10   6 C        3.690    -0.058    21.805     6.683
    11   6 C        2.833     0.316    21.642     7.623
    12   8 O        0.857    -0.324    20.219     6.029
    13   7 N        2.786    -0.044    22.092     6.981
    14   6 C        3.688    -0.072    22.077     6.725
    15   1 H        0.924     0.121     1.609     1.984
    16   1 H        0.924     0.121     1.608     1.983
    17   1 H        0.924     0.093     1.851     2.128
    18   1 H        0.923     0.140     1.460     1.890
    19   1 H        0.925     0.108     1.710     2.045
    20   1 H        0.924     0.100     1.782     2.088
    21   1 H        0.925     0.103     1.754     2.071
    22   1 H        0.924     0.092     1.859     2.132
    23   1 H        0.924     0.092     1.860     2.133
    24   1 H        0.924     0.127     1.561     1.954
    25   1 H        0.859     0.243     0.912     1.496

Wiberg/Mayer (AO) data.
largest (>0.10) Wiberg bond orders for each atom

     #   Z sym  total        # sym  WBO       # sym  WBO       # sym  WBO
 ---------------------------------------------------------------------------
     1   6 C    3.889 --     2 N    1.091    17 H    0.930    15 H    0.924
                            16 H    0.908
     2   7 N    2.782 --     6 C    1.574     1 C    1.091
     3   6 C    3.136 --     4 N    1.480     6 C    1.424
     4   7 N    3.656 --     3 C    1.480     5 C    1.148    25 H    0.888
     5   6 C    3.648 --    13 N    1.248     4 N    1.148     7 C    1.047
     6   6 C    3.935 --     2 N    1.574     3 C    1.424    18 H    0.830
     7   6 C    3.917 --     8 O    1.650     9 N    1.117     5 C    1.047
     8   8 O    1.928 --     7 C    1.650     9 N    0.134
     9   7 N    3.534 --     7 C    1.117    11 C    1.116    10 C    0.978
                             8 O    0.134    12 O    0.121
    10   6 C    3.907 --     9 N    0.978    19 H    0.970    21 H    0.961
                            20 H    0.957
    11   6 C    3.923 --    12 O    1.720     9 N    1.116    13 N    1.005
    12   8 O    2.006 --    11 C    1.720     9 N    0.121
    13   7 N    3.459 --     5 C    1.248    11 C    1.005    14 C    0.990
    14   6 C    3.922 --    13 N    0.990    24 H    0.964    22 H    0.960
                            23 H    0.959
    15   1 H    0.947 --     1 C    0.924
    16   1 H    0.937 --     1 C    0.908
    17   1 H    0.938 --     1 C    0.930
    18   1 H    0.894 --     6 C    0.830
    19   1 H    0.985 --    10 C    0.970
    20   1 H    0.977 --    10 C    0.957
    21   1 H    0.979 --    10 C    0.961
    22   1 H    0.979 --    14 C    0.960
    23   1 H    0.978 --    14 C    0.959
    24   1 H    0.983 --    14 C    0.964
    25   1 H    0.924 --     4 N    0.888
 ---------------------------------------------------------------------------

molecular dipole:
                 x           y           z       tot (Debye)
 q only:        1.868      -1.279      -0.261
   full:        1.801      -1.395      -0.505       5.932

           -------------------------------------------------
          | TOTAL ENERGY              -42.110097934669 Eh   |
          | GRADIENT NORM               0.007106965153 Eh/α |
          | HOMO-LUMO GAP               0.304013534700 eV   |
           -------------------------------------------------

 * finished run on 2024/06/05 at 20:00:28.226
