   * xtb version 6.6.1 (8d0f1dd) compiled by 'conda@1efc2f54142f' on 2023-08-01
          program call               : xtb xtbopt.xyz --opt crude --input .xc2 --gfn2

   ID    Z sym.   atoms
    1    6 C      1, 3, 5-7, 10, 11, 14
    2    7 N      2, 4, 9, 13
    3    8 O      8, 12
    4    1 H      15-25

          :  Hamiltonian                  GFN2-xTB          :
 * total energy  :   -42.0790671 Eh     change       -0.1997336E-10 Eh
   *** GEOMETRY OPTIMIZATION CONVERGED AFTER 1 ITERATIONS ***

 final structure:
================
25
 xtb: 6.6.1 (8d0f1dd)
C            3.25114409694149        1.24744593073405        0.01213842745653
N            2.32283454505526        0.14930733297335       -0.04881130317992
C            2.61710821359650       -1.13762268176991       -0.10347818159569
N            1.49081376299064       -1.87241746089821       -0.13693994712455
C            0.42191010916494       -1.00702332733951       -0.09883811813715
C            0.95570158502116        0.27640545598168       -0.04306737577087
C            0.12254221939508        1.46054069448418       -0.02022224906530
O            0.51719642273342        2.60319024643274       -0.01114669912539
N           -1.23276364585798        1.11771159999570       -0.01656376122190
C           -2.19444597925914        2.21726988967683        0.02866584667570
C           -1.80314489356452       -0.12505421839594       -0.04784601544023
O           -2.98243564994039       -0.32046054103527       -0.02998849109045
N           -0.90296447341561       -1.27537535299534       -0.11264229225514
C           -1.46003436609515       -2.49548597445651       -0.19464735925089
H            3.73210426587794        1.27906108943546        0.99113784217705
H            4.01842876505073        1.13887999228275       -0.75306472012466
H            2.70416309169057        2.17801611915206       -0.13948068882480
H            3.60958479411657       -1.54852519453424       -0.11965515163081
H           -1.63781306745008        3.15080544887772        0.03373249466890
H           -2.84806729795851        2.17166751851576       -0.84089425326768
H           -2.80400505308955        2.13598409646167        0.92736824919519
H           -2.81033783379777       -4.72114092417895        1.37471410225174
H           -0.85224960424436       -3.37654798636933       -0.23020134601852
H           -2.52989254119515       -2.54706652766830       -0.21626617881725
H            1.45505404833454       -2.88132668376254       -0.17283121258396

          :  Hamiltonian                  GFN2-xTB          :
         :: total energy             -42.079067090656 Eh    ::
         :: gradient norm              0.003899307360 Eh/a0 ::
         :: HOMO-LUMO gap              0.215313293495 eV    ::
         :: SCC energy               -42.604125708647 Eh    ::
         :: -> dispersion             -0.022669267578 Eh    ::
         :: repulsion energy           0.524974800749 Eh    ::

    * Orbital Energies and Occupations

         #    Occupation            Energy/Eh            Energy/eV
      -------------------------------------------------------------
         1        2.0000           -0.9236950             -25.1350
       ...           ...                  ...                  ...
        25        2.0000           -0.6709551             -18.2576
        26        2.0000           -0.6693222             -18.2132
        27        2.0000           -0.6602446             -17.9662
        28        2.0000           -0.6400469             -17.4166
        29        2.0000           -0.6309328             -17.1686
        30        2.0000           -0.6292849             -17.1237
        31        2.0000           -0.6233599             -16.9625
        32        2.0000           -0.5985472             -16.2873
        33        2.0000           -0.5926615             -16.1271
        34        2.0000           -0.5852016             -15.9241
        35        2.0000           -0.5651716             -15.3791
        36        1.9999           -0.5630287             -15.3208
        37        1.2386           -0.4850024             -13.1976 (HOMO)
        38        0.7491           -0.4770898             -12.9823 (LUMO)
        39        0.0123           -0.4408934             -11.9973
        40        0.0001           -0.4010619             -10.9135
        41        0.0000           -0.3746455             -10.1946
        42                         -0.2904092              -7.9024
        43                         -0.2162307              -5.8839
        44                         -0.2041736              -5.5558
        45                         -0.1538147              -4.1855
        46                         -0.1372069              -3.7336
        47                         -0.0712789              -1.9396
        48                         -0.0455874              -1.2405
       ...                                ...                  ...
        67                          0.5576841              15.1754
      -------------------------------------------------------------
                  HL-Gap            0.0079126 Eh            0.2153 eV

     #   Z          covCN         q      C6AA      α(0)
     1   6 C        3.692    -0.098    22.574     6.798
     2   7 N        2.835     0.094    19.613     6.578
     3   6 C        3.059     0.062    26.562     8.452
     4   7 N        2.793    -0.054    22.283     7.011
     5   6 C        3.040     0.093    25.908     8.348
     6   6 C        3.120    -0.018    28.289     8.711
     7   6 C        2.763     0.268    22.467     7.762
     8   8 O        0.858    -0.368    21.049     6.151
     9   7 N        2.744    -0.080    22.786     7.090
    10   6 C        3.714    -0.065    21.875     6.683
    11   6 C        2.734     0.311    21.709     7.628
    12   8 O        0.859    -0.336    20.438     6.061
    13   7 N        2.735     0.007    21.130     6.827
    14   6 C        2.796    -0.060    29.486     8.895
    15   1 H        0.924     0.113     1.668     2.020
    16   1 H        0.925     0.109     1.707     2.043
    17   1 H        0.925     0.142     1.445     1.880
    18   1 H        0.926     0.131     1.524     1.931
    19   1 H        0.925     0.115     1.653     2.010
    20   1 H        0.925     0.097     1.809     2.103
    21   1 H        0.925     0.097     1.810     2.104
    22   1 H        0.000    -0.016     8.337     5.280
    23   1 H        0.926     0.087     1.907     2.159
    24   1 H        0.926     0.134     1.504     1.918
    25   1 H        0.860     0.232     0.955     1.531

Wiberg/Mayer (AO) data.
largest (>0.10) Wiberg bond orders for each atom

     #   Z sym  total        # sym  WBO       # sym  WBO       # sym  WBO
 ---------------------------------------------------------------------------
     1   6 C    3.910 --     2 N    0.982    16 H    0.963    17 H    0.958
                            15 H    0.954
     2   7 N    3.720 --     3 C    1.419     6 C    1.169     1 C    0.982
     3   6 C    3.916 --     2 N    1.419     4 N    1.307    18 H    0.950
     4   7 N    3.576 --     3 C    1.307     5 C    1.159    25 H    0.917
     5   6 C    3.887 --     6 C    1.332    13 N    1.174     4 N    1.159
     6   6 C    3.864 --     5 C    1.332     2 N    1.169     7 C    1.071
     7   6 C    3.930 --     8 O    1.681     9 N    1.087     6 C    1.071
     8   8 O    2.009 --     7 C    1.681     9 N    0.144
     9   7 N    3.582 --    11 C    1.170     7 C    1.087    10 C    0.960
                            12 O    0.153     8 O    0.144
    10   6 C    3.917 --    19 H    0.969    20 H    0.969    21 H    0.968
                             9 N    0.960
    11   6 C    3.932 --    12 O    1.735     9 N    1.170    13 N    0.929
    12   8 O    2.072 --    11 C    1.735     9 N    0.153
    13   7 N    3.633 --    14 C    1.293     5 C    1.174    11 C    0.929
    14   6 C    3.376 --    13 N    1.293    23 H    0.970    24 H    0.958
    15   1 H    0.986 --     1 C    0.954
    16   1 H    0.987 --     1 C    0.963
    17   1 H    0.980 --     1 C    0.958
    18   1 H    0.982 --     3 C    0.950
    19   1 H    0.986 --    10 C    0.969
    20   1 H    0.990 --    10 C    0.969
    21   1 H    0.990 --    10 C    0.968
    22   1 H    0.053
    23   1 H    0.992 --    14 C    0.970
    24   1 H    0.981 --    14 C    0.958
    25   1 H    0.945 --     4 N    0.917
 ---------------------------------------------------------------------------

molecular dipole:
                 x           y           z       tot (Debye)
 q only:        2.937      -1.583      -0.213
   full:        3.235      -2.178      -0.214       9.928

           -------------------------------------------------
          | TOTAL ENERGY              -42.079067090656 Eh   |
          | GRADIENT NORM               0.003899307360 Eh/α |
          | HOMO-LUMO GAP               0.215313293495 eV   |
           -------------------------------------------------

 * finished run on 2024/06/05 at 19:57:59.023
