   * xtb version 6.6.1 (8d0f1dd) compiled by 'conda@1efc2f54142f' on 2023-08-01
          program call               : xtb struc.xyz --opt loose --input .xc1 --gfn2

   ID    Z sym.   atoms
    1    6 C      1, 3, 5-7, 10, 11, 14
    2    7 N      2, 4, 9, 13
    3    8 O      8, 12
    4    1 H      15-25
constraining bond 13 14 to    3.9200000 Å, actual value:    1.4502802 Å

          :  Hamiltonian                  GFN2-xTB          :
 * total energy  :     1.3156661 Eh     change       -0.6650680E-10 Eh
 * total energy  :   -19.2411073 Eh     change       -0.2055677E+02 Eh
 * total energy  :   -31.8828653 Eh     change       -0.1264176E+02 Eh
 * total energy  :   -38.8550398 Eh     change       -0.6972174E+01 Eh
 * total energy  :   -41.2660043 Eh     change       -0.2410964E+01 Eh
 * total energy  :   -41.5369911 Eh     change       -0.2709868E+00 Eh
 * total energy  :   -41.5576224 Eh     change       -0.2063127E-01 Eh
 * total energy  :   -41.6071494 Eh     change       -0.4952699E-01 Eh
 * total energy  :   -41.6509512 Eh     change       -0.4380177E-01 Eh
 * total energy  :   -41.6938562 Eh     change       -0.4290506E-01 Eh
 * total energy  :   -42.1365963 Eh     change       -0.5849794E-04 Eh
 * total energy  :   -42.1367692 Eh     change       -0.1728727E-03 Eh
 * total energy  :   -42.1351177 Eh     change        0.1651502E-02 Eh
 * total energy  :   -42.1370414 Eh     change       -0.1923674E-02 Eh
 * total energy  :   -42.1370971 Eh     change       -0.5571327E-04 Eh
 * total energy  :   -42.1371675 Eh     change       -0.7035877E-04 Eh
 * total energy  :   -42.1372373 Eh     change       -0.6988272E-04 Eh
 * total energy  :   -42.1372714 Eh     change       -0.3404712E-04 Eh
 * total energy  :   -42.1372983 Eh     change       -0.2687294E-04 Eh
   *** GEOMETRY OPTIMIZATION CONVERGED AFTER 76 ITERATIONS ***

 final structure:
================
25
 xtb: 6.6.1 (8d0f1dd)
C            3.42126561374312        1.74640202792034        0.04572701773620
N            2.64417847124022        0.53568565878649        0.09554495575661
C            3.10406456972394       -0.70559879535570        0.17837207657964
N            2.08501329016567       -1.58172512291237        0.19051986500637
C            0.91079611209958       -0.87647033707845        0.11070662843758
C            1.27928746375539        0.47449134002163        0.05157374390379
C            0.25847078486123        1.49753591688481       -0.02582424068250
O            0.46476746721361        2.69400836091882       -0.07058894727474
N           -1.00885398508981        0.94163311522067       -0.04133312101378
C           -2.14235633482988        1.84072431030510       -0.11719186919094
C           -1.32228829408137       -0.43829040730672        0.01132597928150
O           -2.48772936704254       -0.77090530399480       -0.01782627678493
N           -0.31284624687703       -1.34073201442720        0.09148077158390
C           -3.39608144390240       -3.74847214402961       -0.15839849960094
H            4.08868453257569        1.80543469441721        0.90533339595605
H            4.01914697876939        1.77554786555666       -0.86594601439330
H            2.74001511474800        2.59734778326615        0.05332591884402
H            4.14215932072897       -0.97434730760203        0.22982815795538
H           -1.76737923477631        2.86082351173884       -0.17662024440693
H           -2.74390563145227        1.60315463210267       -0.99577471879651
H           -2.77204913695928        1.71932023352716        0.76571385747472
H           -3.41943437489760       -4.36760073846769        0.71836015637135
H           -3.61910805339781       -4.18365866401746       -1.11506147589320
H           -3.16136554536245       -2.69812924216273       -0.08040399610182
H            2.15597944315855       -2.58794083170874        0.24832849715460

          :  Hamiltonian                  GFN2-xTB          :
         :: total energy             -42.137298255712 Eh    ::
         :: gradient norm              0.002194637217 Eh/a0 ::
         :: HOMO-LUMO gap              1.147303387812 eV    ::
         :: SCC energy               -42.663581576799 Eh    ::
         :: -> dispersion             -0.020791922009 Eh    ::
         :: repulsion energy           0.526260444049 Eh    ::

    * Orbital Energies and Occupations

         #    Occupation            Energy/Eh            Energy/eV
      -------------------------------------------------------------
         1        2.0000           -0.9023634             -24.5546
       ...           ...                  ...                  ...
        25        1.9998           -0.6565396             -17.8654
        26        1.9993           -0.6341792             -17.2569
        27        1.9993           -0.6329054             -17.2222
        28        1.9981           -0.6177279             -16.8092
        29        1.9980           -0.6169431             -16.7879
        30        1.9975           -0.6134708             -16.6934
        31        1.9969           -0.6105266             -16.6133
        32        1.9938           -0.5992815             -16.3073
        33        1.9644           -0.5713892             -15.5483
        34        1.9071           -0.5557256             -15.1221
        35        1.8977           -0.5541128             -15.0782
        36        1.8417           -0.5467264             -14.8772
        37        1.7459           -0.5383850             -14.6502 (HOMO)
        38        0.6479           -0.4962224             -13.5029 (LUMO)
        39        0.0118           -0.4266999             -11.6111
        40        0.0010           -0.3869166             -10.5285
        41        0.0001           -0.3549208              -9.6579
        42        0.0000           -0.2675532              -7.2805
        43                         -0.1840564              -5.0084
        44                         -0.1644392              -4.4746
        45                         -0.1219227              -3.3177
        46                         -0.0724476              -1.9714
        47                         -0.0265164              -0.7215
        48                         -0.0228592              -0.6220
       ...                                ...                  ...
        67                          0.5400699              14.6960
      -------------------------------------------------------------
                  HL-Gap            0.0421626 Eh            1.1473 eV

     #   Z          covCN         q      C6AA      α(0)
     1   6 C        3.692    -0.093    22.461     6.782
     2   7 N        2.827     0.087    19.733     6.598
     3   6 C        3.064     0.064    26.497     8.441
     4   7 N        2.795    -0.055    22.301     7.014
     5   6 C        3.069     0.149    24.710     8.151
     6   6 C        3.133    -0.021    28.322     8.712
     7   6 C        2.767     0.276    22.325     7.738
     8   8 O        0.858    -0.365    20.993     6.143
     9   7 N        2.747    -0.084    22.869     7.103
    10   6 C        3.704    -0.055    21.720     6.663
    11   6 C        2.759     0.338    21.262     7.551
    12   8 O        0.860    -0.361    20.923     6.133
    13   7 N        1.832    -0.262    27.667     7.795
    14   6 C        2.778    -0.075    29.854     8.949
    15   1 H        0.925     0.107     1.725     2.054
    16   1 H        0.924     0.108     1.711     2.046
    17   1 H        0.925     0.136     1.491     1.909
    18   1 H        0.926     0.125     1.570     1.959
    19   1 H        0.925     0.113     1.674     2.023
    20   1 H        0.924     0.104     1.746     2.066
    21   1 H        0.924     0.104     1.749     2.068
    22   1 H        0.926     0.130     1.537     1.939
    23   1 H        0.926     0.130     1.534     1.937
    24   1 H        0.926     0.163     1.305     1.786
    25   1 H        0.860     0.237     0.938     1.517

Wiberg/Mayer (AO) data.
largest (>0.10) Wiberg bond orders for each atom

     #   Z sym  total        # sym  WBO       # sym  WBO       # sym  WBO
 ---------------------------------------------------------------------------
     1   6 C    3.911 --     2 N    0.983    15 H    0.961    17 H    0.960
                            16 H    0.957
     2   7 N    3.711 --     3 C    1.395     6 C    1.181     1 C    0.983
     3   6 C    3.878 --     2 N    1.395     4 N    1.315    18 H    0.951
     4   7 N    3.595 --     3 C    1.315     5 C    1.153    25 H    0.916
     5   6 C    3.948 --    13 N    1.375     6 C    1.262     4 N    1.153
     6   6 C    3.812 --     5 C    1.262     2 N    1.181     7 C    1.077
     7   6 C    3.954 --     8 O    1.641     9 N    1.139     6 C    1.077
     8   8 O    1.945 --     7 C    1.641     9 N    0.139
     9   7 N    3.479 --     7 C    1.139    11 C    1.043    10 C    0.986
                             8 O    0.139
    10   6 C    3.888 --     9 N    0.986    19 H    0.961    20 H    0.950
                            21 H    0.949
    11   6 C    3.943 --    12 O    1.630    13 N    1.183     9 N    1.043
    12   8 O    1.917 --    11 C    1.630
    13   7 N    2.835 --     5 C    1.375    11 C    1.183
    14   6 C    2.919 --    22 H    0.980    23 H    0.980    24 H    0.949
    15   1 H    0.986 --     1 C    0.961
    16   1 H    0.985 --     1 C    0.957
    17   1 H    0.980 --     1 C    0.960
    18   1 H    0.983 --     3 C    0.951
    19   1 H    0.979 --    10 C    0.961
    20   1 H    0.968 --    10 C    0.950
    21   1 H    0.968 --    10 C    0.949
    22   1 H    0.981 --    14 C    0.980
    23   1 H    0.981 --    14 C    0.980
    24   1 H    0.970 --    14 C    0.949
    25   1 H    0.943 --     4 N    0.916
 ---------------------------------------------------------------------------

molecular dipole:
                 x           y           z       tot (Debye)
 q only:        2.019      -2.040       0.067
   full:        2.446      -2.182       0.090       8.334

           -------------------------------------------------
          | TOTAL ENERGY              -42.137298255712 Eh   |
          | GRADIENT NORM               0.002194637217 Eh/α |
          | HOMO-LUMO GAP               1.147303387812 eV   |
           -------------------------------------------------

 * finished run on 2024/06/05 at 20:00:20.045
