   * xtb version 6.6.1 (8d0f1dd) compiled by 'conda@1efc2f54142f' on 2023-08-01
          program call               : xtb struc.xyz --opt loose --input .xc1 --gfn2

   ID    Z sym.   atoms
    1    7 N      1, 17
    2    6 C      2-6, 8, 9, 11-16, 18-23, 25, 26, 28-33
    3    8 O      7, 10, 24, 27
    4    1 H      34-72
constraining bond 2 72 to    2.7133300 Å, actual value:    1.9604601 Å

          :  Hamiltonian                  GFN2-xTB          :
 * total energy  :   -99.5053372 Eh     change       -0.4035485E-08 Eh
 * total energy  :   -99.5879532 Eh     change       -0.8261603E-01 Eh
 * total energy  :   -99.7108259 Eh     change       -0.1228727E+00 Eh
 * total energy  :   -99.6403240 Eh     change        0.7050192E-01 Eh
 * total energy  :   -99.7714254 Eh     change       -0.1311014E+00 Eh
 * total energy  :   -99.7563196 Eh     change        0.1510578E-01 Eh
 * total energy  :   -99.7904946 Eh     change       -0.3417504E-01 Eh
 * total energy  :   -99.8124366 Eh     change       -0.2194192E-01 Eh
 * total energy  :   -99.8409327 Eh     change       -0.2849614E-01 Eh
 * total energy  :   -99.8728921 Eh     change       -0.3195936E-01 Eh
 * total energy  :   -99.9366455 Eh     change       -0.1823846E-03 Eh
 * total energy  :   -99.9367413 Eh     change       -0.9576135E-04 Eh
 * total energy  :   -99.9368662 Eh     change       -0.1249380E-03 Eh
 * total energy  :   -99.9369581 Eh     change       -0.9190962E-04 Eh
 * total energy  :   -99.9370482 Eh     change       -0.9012710E-04 Eh
 * total energy  :   -99.9371325 Eh     change       -0.8423835E-04 Eh
 * total energy  :   -99.9372148 Eh     change       -0.8237815E-04 Eh
 * total energy  :   -99.9372788 Eh     change       -0.6393310E-04 Eh
 * total energy  :   -99.9373210 Eh     change       -0.4218958E-04 Eh
   *** GEOMETRY OPTIMIZATION CONVERGED AFTER 42 ITERATIONS ***

 final structure:
================
72
 xtb: 6.6.1 (8d0f1dd)
N           -2.67005152545985        2.56620776322072        2.73560481151820
C           -2.25957598612561        2.46214234066857        1.58233616414260
C           -3.17678881958398        2.05977489967553        0.38205186366258
C           -3.61233055534604        0.61035287728859        0.49402261442739
C           -4.44609664104400        0.08929967078243       -0.49924428435852
C           -4.86593378408829       -1.23083153530632       -0.47535956231219
O           -5.67902892769823       -1.80739992175281       -1.37901308979619
C           -6.25570498343067       -1.02572924352114       -2.39907462512278
C           -4.42196750528828       -2.08857486394981        0.57192579963789
O           -4.85762450067860       -3.35751926870591        0.50201693798365
C           -4.49283528405345       -4.26944949282494        1.51297194649074
C           -3.60152914981542       -1.56089525272639        1.55785008385106
C           -3.20824546028664       -0.23120453269742        1.52136191298506
C           -2.39020684122275        2.27610800891425       -0.92974108123095
C           -1.45286508833868        1.13343941768140       -1.33543343321059
C           -0.31797060956795        0.86917201051450       -0.33893523400350
N            0.62114621952565       -0.10103436473649       -0.85053945723529
C            1.98201794737374       -0.01029770438453       -0.37662817243268
C            2.98447226229294       -0.36452063077029       -1.49333056248453
C            4.39262946496862       -0.15810078717907       -1.02051466031410
C            5.03300495608545        1.06097720572138       -1.20813492212872
C            6.32623274027019        1.26499479974958       -0.75757436655119
C            7.01407910688462        0.25175797253597       -0.10000624058337
O            8.26589203345507        0.33241811558796        0.37658769964034
C            9.00067000925201        1.52279947572529        0.20240995898427
C            6.36559341989217       -1.00236259717383        0.10256106194188
O            7.10364293083075       -1.92668854656225        0.74020139720834
C            6.56806272772438       -3.20873819824431        0.97098427050097
C            5.06857902392527       -1.17953841214127       -0.35852371630237
C            0.09175613392367       -1.44130421872550       -0.92935978197678
C           -4.42696187180547        2.97940434081540        0.46607248052814
C           -5.19422026398283        2.67867027111515        1.74272045072775
C           -4.07169122966755        4.46358338082706        0.39282650327874
H           -4.77496733860802        0.72833068215863       -1.30251105739019
H           -6.84379155704063       -0.20025325018485       -1.98724202929433
H           -6.91369873469205       -1.69918427026918       -2.94481131823088
H           -5.49674786415740       -0.63160538321601       -3.08262505463857
H           -4.85306560259328       -3.94511977011388        2.49359052480031
H           -4.97093510220354       -5.20940955343661        1.24474789497404
H           -3.40824528348421       -4.41161036416575        1.55041836968352
H           -3.26502383787774       -2.17903846499898        2.37441986160944
H           -2.59522789843597        0.14187726016173        2.32614587903452
H           -3.10571708898295        2.41081792092101       -1.74308312052687
H           -1.81403013646450        3.20056553847766       -0.85561582085625
H           -2.03585551823424        0.22213630345515       -1.46822644513251
H           -1.00485696593777        1.38819510212670       -2.29870282094752
H           -0.74789422765190        0.51328123183765        0.61104871292030
H            0.22175261095528        1.80196365514555       -0.15943591675758
H            2.15296475909983       -0.67332949569363        0.48507220152305
H            2.18158221821311        1.01367459956031       -0.05325765806212
H            2.77891874783149        0.27568829981988       -2.35160861542286
H            2.84487073289250       -1.40160452006133       -1.79902084917248
H            4.52193546711622        1.86048884064289       -1.72207295146308
H            6.79791895778839        2.21924952207680       -0.92630962559765
H            8.51813597621927        2.36764904904385        0.70279933346237
H            9.13837874964272        1.75501048925894       -0.85777438371647
H            9.97018352411895        1.33712623637760        0.66105606539130
H            7.35694302275353       -3.76923313890097        1.46934500502931
H            5.68932010658477       -3.16346661352833        1.62182493598215
H            6.30555714814182       -3.70808322268324        0.03339154932050
H            4.57280820415936       -2.12685335520663       -0.21510738689545
H           -0.62903957295873       -1.50944124039723       -1.74192585144365
H           -0.41254973915586       -1.73153351157998        0.00426239286229
H            0.89341644969749       -2.14865869653100       -1.12611952788508
H           -5.06386960886011        2.74146684878862       -0.39318574476636
H           -4.46443496393798        2.68475344384933        2.57630360882485
H           -5.65938710546801        1.69614597317044        1.71542598124639
H           -5.94717982433647        3.43529970444316        1.94157490403818
H           -3.45282258725218        4.75304394943664        1.23858485627721
H           -3.54921334327999        4.70729542528606       -0.52840609288843
H           -4.98259442273498        5.05587895399089        0.42569056954051
H           -1.46317270278499        2.60571236401811        1.34951169970898

          :  Hamiltonian                  GFN2-xTB          :
         :: total energy             -99.937320969516 Eh    ::
         :: gradient norm              0.003582467742 Eh/a0 ::
         :: HOMO-LUMO gap              0.797239905412 eV    ::
         :: SCC energy              -100.754672839946 Eh    ::
         :: -> dispersion             -0.073627031293 Eh    ::
         :: repulsion energy           1.441378883137 Eh    ::

    * Orbital Energies and Occupations

         #    Occupation            Energy/Eh            Energy/eV
      -------------------------------------------------------------
         1        2.0000           -0.8190910             -22.2886
       ...           ...                  ...                  ...
        78        1.9968           -0.5363394             -14.5945
        79        1.9960           -0.5326680             -14.4946
        80        1.9955           -0.5306677             -14.4402
        81        1.9944           -0.5271368             -14.3441
        82        1.9935           -0.5250093             -14.2862
        83        1.9924           -0.5225180             -14.2184
        84        1.9902           -0.5184146             -14.1068
        85        1.9720           -0.5016166             -13.6497
        86        1.9624           -0.4968532             -13.5201
        87        1.9583           -0.4951876             -13.4747
        88        1.8034           -0.4693336             -12.7712
        89        1.7610           -0.4658617             -12.6767
        90        1.6847           -0.4607757             -12.5383 (HOMO)
        91        0.9130           -0.4314776             -11.7411 (LUMO)
        92        0.0022           -0.3264166              -8.8822
        93        0.0019           -0.3237372              -8.8093
        94        0.0015           -0.3198709              -8.7041
        95        0.0014           -0.3190476              -8.6817
        96        0.0012           -0.3171476              -8.6300
        97        0.0000           -0.1983011              -5.3960
        98        0.0000           -0.1948612              -5.3024
        99                         -0.1099826              -2.9928
       100                         -0.0729866              -1.9861
       101                         -0.0683000              -1.8585
       ...                                ...                  ...
       171                          0.8693667              23.6567
      -------------------------------------------------------------
                  HL-Gap            0.0292980 Eh            0.7972 eV

     #   Z          covCN         q      C6AA      α(0)
     1   7 N        0.913    -0.264    26.821     7.489
     2   6 C        2.821     0.072    26.374     8.415
     3   6 C        3.904     0.013    20.309     6.406
     4   6 C        2.970     0.012    27.733     8.638
     5   6 C        2.920    -0.075    29.869     8.962
     6   6 C        2.861     0.134    25.072     8.207
     7   8 O        1.706    -0.220    17.647     5.672
     8   6 C        3.644     0.025    20.493     6.507
     9   6 C        2.864     0.134    25.060     8.206
    10   8 O        1.706    -0.216    17.594     5.663
    11   6 C        3.645     0.024    20.511     6.509
    12   6 C        2.913    -0.068    29.691     8.935
    13   6 C        2.920    -0.043    29.080     8.843
    14   6 C        3.805    -0.067    21.778     6.644
    15   6 C        3.800    -0.069    21.825     6.651
    16   6 C        3.750    -0.001    20.658     6.482
    17   7 N        2.728    -0.105    23.306     7.170
    18   6 C        3.750     0.002    20.615     6.475
    19   6 C        3.808    -0.073    21.880     6.659
    20   6 C        2.967     0.013    27.732     8.638
    21   6 C        2.922    -0.042    29.042     8.837
    22   6 C        2.912    -0.064    29.588     8.920
    23   6 C        2.864     0.137    25.001     8.196
    24   8 O        1.706    -0.209    17.482     5.645
    25   6 C        3.645     0.022    20.546     6.515
    26   6 C        2.861     0.137    24.998     8.195
    27   8 O        1.706    -0.213    17.537     5.654
    28   6 C        3.644     0.024    20.513     6.510
    29   6 C        2.919    -0.075    29.865     8.962
    30   6 C        3.704    -0.049    21.615     6.647
    31   6 C        3.856    -0.007    20.671     6.466
    32   6 C        3.754    -0.120    22.847     6.816
    33   6 C        3.755    -0.115    22.760     6.803
    34   1 H        0.926     0.055     2.257     2.349
    35   1 H        0.924     0.057     2.238     2.339
    36   1 H        0.925     0.085     1.926     2.170
    37   1 H        0.924     0.054     2.275     2.359
    38   1 H        0.924     0.061     2.190     2.315
    39   1 H        0.925     0.085     1.927     2.171
    40   1 H        0.924     0.054     2.266     2.354
    41   1 H        0.926     0.060     2.204     2.322
    42   1 H        0.926     0.058     2.220     2.330
    43   1 H        0.924     0.053     2.287     2.365
    44   1 H        0.924     0.049     2.337     2.391
    45   1 H        0.925     0.046     2.372     2.409
    46   1 H        0.924     0.056     2.241     2.341
    47   1 H        0.923     0.035     2.516     2.480
    48   1 H        0.924     0.047     2.359     2.402
    49   1 H        0.923     0.041     2.434     2.440
    50   1 H        0.924     0.051     2.302     2.372
    51   1 H        0.924     0.065     2.144     2.290
    52   1 H        0.925     0.056     2.243     2.342
    53   1 H        0.926     0.057     2.234     2.337
    54   1 H        0.926     0.064     2.153     2.294
    55   1 H        0.924     0.060     2.193     2.316
    56   1 H        0.924     0.062     2.179     2.308
    57   1 H        0.925     0.087     1.909     2.160
    58   1 H        0.925     0.086     1.917     2.165
    59   1 H        0.924     0.056     2.247     2.344
    60   1 H        0.924     0.058     2.219     2.330
    61   1 H        0.926     0.055     2.255     2.348
    62   1 H        0.925     0.060     2.194     2.316
    63   1 H        0.923     0.040     2.455     2.450
    64   1 H        0.925     0.061     2.183     2.311
    65   1 H        0.924     0.053     2.277     2.360
    66   1 H        0.922     0.113     1.672     2.022
    67   1 H        0.925     0.047     2.359     2.402
    68   1 H        0.925     0.066     2.132     2.283
    69   1 H        0.925     0.052     2.293     2.368
    70   1 H        0.925     0.043     2.410     2.428
    71   1 H        0.925     0.056     2.244     2.343
    72   1 H        0.930     0.101     1.776     2.084

Wiberg/Mayer (AO) data.
largest (>0.10) Wiberg bond orders for each atom

     #   Z sym  total        # sym  WBO       # sym  WBO       # sym  WBO
 ---------------------------------------------------------------------------
     1   7 N    2.344 --     2 C    2.116
     2   6 C    3.947 --     1 N    2.116    72 H    0.918     3 C    0.857
     3   6 C    3.857 --     4 C    0.980    14 C    0.974    31 C    0.939
                             2 C    0.857
     4   6 C    3.921 --    13 C    1.400     5 C    1.364     3 C    0.980
     5   6 C    3.944 --     6 C    1.394     4 C    1.364    34 H    0.957
     6   6 C    3.882 --     5 C    1.394     9 C    1.205     7 O    1.111
     7   8 O    2.249 --     6 C    1.111     8 C    0.976
     8   6 C    3.926 --    36 H    0.976     7 O    0.976    35 H    0.972
                            37 H    0.971
     9   6 C    3.877 --    12 C    1.380     6 C    1.205    10 O    1.116
    10   8 O    2.250 --     9 C    1.116    11 C    0.975
    11   6 C    3.925 --    39 H    0.976    10 O    0.975    40 H    0.972
                            38 H    0.971
    12   6 C    3.949 --    13 C    1.414     9 C    1.380    41 H    0.962
    13   6 C    3.929 --    12 C    1.414     4 C    1.400    42 H    0.960
    14   6 C    3.981 --    15 C    1.006     3 C    0.974    44 H    0.971
                            43 H    0.966
    15   6 C    3.979 --    14 C    1.006    16 C    0.994    46 H    0.973
                            45 H    0.969
    16   6 C    3.967 --    17 N    1.006    15 C    0.994    48 H    0.968
                            47 H    0.947
    17   7 N    3.093 --    30 C    1.017    18 C    1.009    16 C    1.006
    18   6 C    3.960 --    17 N    1.009    50 H    0.970    19 C    0.968
                            49 H    0.956
    19   6 C    3.974 --    20 C    1.016    51 H    0.969    18 C    0.968
                            52 H    0.966
    20   6 C    3.917 --    29 C    1.387    21 C    1.383    19 C    1.016
    21   6 C    3.918 --    22 C    1.429    20 C    1.383    53 H    0.966
    22   6 C    3.943 --    21 C    1.429    23 C    1.367    54 H    0.962
    23   6 C    3.863 --    22 C    1.367    26 C    1.202    24 O    1.124
    24   8 O    2.248 --    23 C    1.124    25 C    0.973
    25   6 C    3.921 --    57 H    0.976    24 O    0.973    56 H    0.970
                            55 H    0.970
    26   6 C    3.871 --    29 C    1.383    23 C    1.202    27 O    1.118
    27   8 O    2.249 --    26 C    1.118    28 C    0.975
    28   6 C    3.925 --    58 H    0.976    27 O    0.975    59 H    0.971
                            60 H    0.971
    29   6 C    3.945 --    20 C    1.387    26 C    1.383    61 H    0.961
    30   6 C    3.967 --    17 N    1.017    64 H    0.978    62 H    0.972
                            63 H    0.963
    31   6 C    3.969 --    32 C    1.018    33 C    1.006     3 C    0.939
                            65 H    0.937
    32   6 C    3.901 --    31 C    1.018    67 H    0.978    68 H    0.973
                            66 H    0.861
    33   6 C    3.982 --    31 C    1.006    70 H    0.982    69 H    0.980
                            71 H    0.980
    34   1 H    0.995 --     5 C    0.957
    35   1 H    0.991 --     8 C    0.972
    36   1 H    0.992 --     8 C    0.976
    37   1 H    0.990 --     8 C    0.971
    38   1 H    0.989 --    11 C    0.971
    39   1 H    0.992 --    11 C    0.976
    40   1 H    0.990 --    11 C    0.972
    41   1 H    0.994 --    12 C    0.962
    42   1 H    0.995 --    13 C    0.960
    43   1 H    0.990 --    14 C    0.966
    44   1 H    0.995 --    14 C    0.971
    45   1 H    0.996 --    15 C    0.969
    46   1 H    0.994 --    15 C    0.973
    47   1 H    0.974 --    16 C    0.947
    48   1 H    0.997 --    16 C    0.968
    49   1 H    0.975 --    18 C    0.956
    50   1 H    0.997 --    18 C    0.970
    51   1 H    0.992 --    19 C    0.969
    52   1 H    0.994 --    19 C    0.966
    53   1 H    0.995 --    21 C    0.966
    54   1 H    0.994 --    22 C    0.962
    55   1 H    0.987 --    25 C    0.970
    56   1 H    0.987 --    25 C    0.970
    57   1 H    0.991 --    25 C    0.976
    58   1 H    0.992 --    28 C    0.976
    59   1 H    0.989 --    28 C    0.971
    60   1 H    0.989 --    28 C    0.971
    61   1 H    0.995 --    29 C    0.961
    62   1 H    0.987 --    30 C    0.972
    63   1 H    0.976 --    30 C    0.963
    64   1 H    0.996 --    30 C    0.978
    65   1 H    0.974 --    31 C    0.937
    66   1 H    0.972 --    32 C    0.861
    67   1 H    0.994 --    32 C    0.978
    68   1 H    0.989 --    32 C    0.973
    69   1 H    0.994 --    33 C    0.980
    70   1 H    0.996 --    33 C    0.982
    71   1 H    0.994 --    33 C    0.980
    72   1 H    0.941 --     2 C    0.918
 ---------------------------------------------------------------------------

molecular dipole:
                 x           y           z       tot (Debye)
 q only:        0.810      -0.274      -0.821
   full:        0.873      -0.266      -1.018       3.474

           -------------------------------------------------
          | TOTAL ENERGY              -99.937320969516 Eh   |
          | GRADIENT NORM               0.003582467742 Eh/α |
          | HOMO-LUMO GAP               0.797239905412 eV   |
           -------------------------------------------------

 * finished run on 2024/04/06 at 11:15:38.771
