   * xtb version 6.6.1 (8d0f1dd) compiled by 'conda@1efc2f54142f' on 2023-08-01
          program call               : xtb xtbopt.xyz --opt crude --input .xc2 --gfn2

   ID    Z sym.   atoms
    1    7 N      1, 17
    2    6 C      2-6, 8, 9, 11-16, 18-23, 25, 26, 28-33
    3    8 O      7, 10, 24, 27
    4    1 H      34-72
########################################################################
[WARNING] Please study the warnings concerning your input carefully
-1- readin_getIntValue: could not parse ''
########################################################################

          :  Hamiltonian                  GFN2-xTB          :
 * total energy  :   -99.3120950 Eh     change       -0.3552714E-12 Eh
 * total energy  :   -99.3716631 Eh     change       -0.5956811E-01 Eh
 * total energy  :   -99.3730681 Eh     change       -0.1404967E-02 Eh
 * total energy  :   -99.3738163 Eh     change       -0.7482332E-03 Eh
 * total energy  :   -99.3738969 Eh     change       -0.8059783E-04 Eh
   *** GEOMETRY OPTIMIZATION CONVERGED AFTER 5 ITERATIONS ***

 final structure:
================
72
 xtb: 6.6.1 (8d0f1dd)
N           -2.67637625587050        2.57084220506990        2.76462387610419
C           -2.30985703874094        2.46228808843808        1.60598277250132
C           -3.17450105467135        2.05911621568712        0.39716033081930
C           -3.61156758188071        0.60784586042550        0.50058055510519
C           -4.44238730948233        0.08785341497230       -0.49544506599815
C           -4.86304711627036       -1.23238552030250       -0.47474010252370
O           -5.67506627992935       -1.80664807265553       -1.38130128018432
C           -6.24407910792519       -1.02266471078725       -2.40403745235379
C           -4.42310410973121       -2.09106167479360        0.57303973948626
O           -4.86097922869006       -3.35944539296845        0.50359244258380
C           -4.50125258521344       -4.27055408707957        1.51671215739586
C           -3.60231958163649       -1.56531418708396        1.56007851254640
C           -3.20774503861671       -0.23607148237737        1.52609681395310
C           -2.38650095342601        2.27709140104002       -0.91511361282218
C           -1.45511898248330        1.13212605168539       -1.32960913387413
C           -0.31335010890626        0.86846939260954       -0.34361819290437
N            0.62062638086937       -0.11056069033461       -0.85013964364895
C            1.98214205252605       -0.01914710941232       -0.37804185481894
C            2.98447923261964       -0.36573247740063       -1.49670462672519
C            4.39199582766897       -0.15782600485786       -1.02257050277667
C            5.03094419552341        1.06246780686636       -1.20742752831703
C            6.32397202182702        1.26660979996025       -0.75625563633176
C            7.01242017189898        0.25249527795492       -0.10072763714625
O            8.26471338507020        0.33302177049683        0.37399475043953
C            8.99799660925640        1.52457203039201        0.20267720006498
C            6.36447186917786       -1.00201687799430        0.10127817980322
O            7.10128407701114       -1.92629395541604        0.73979748986049
C            6.56494245831220       -3.20828855776593        0.96886940362009
C            5.06787348705667       -1.17938551437361       -0.36103751161253
C            0.08939752265418       -1.44816472556744       -0.93327048431579
C           -4.43433586677623        2.97366428550847        0.46661669739811
C           -5.21107425587528        2.67861815628545        1.74033144726713
C           -4.08304376505017        4.45820941929076        0.38518939220743
H           -4.76738295367992        0.72733185748388       -1.29981373883943
H           -6.83379304287371       -0.19724639427091       -1.99416667066294
H           -6.89964250295099       -1.69408014419891       -2.95529527534311
H           -5.48033774153341       -0.62801066540595       -3.08148060238016
H           -4.86353567572502       -3.94398000264450        2.49572190410618
H           -4.98076123423185       -5.20997631201646        1.24874611162920
H           -3.41726547483444       -4.41531049834717        1.55765216423030
H           -3.26719911187834       -2.18527959725042        2.37556516199430
H           -2.59232108108170        0.13617054462494        2.32941781462192
H           -3.10290538043528        2.42012276036729       -1.72670789855275
H           -1.80651944218186        3.19842567948426       -0.83469319273060
H           -2.04137526067579        0.22252248393870       -1.45828603907895
H           -1.01408483213125        1.38662751906424       -2.29540573482388
H           -0.73340245933281        0.52994485866361        0.61776685150694
H            0.23463594783414        1.80015566029249       -0.18140003818656
H            2.15612570699811       -0.68410128148593        0.48087022648362
H            2.17878193448961        1.00411306087650       -0.05256514093776
H            2.77719570190598        0.27821289980473       -2.35159406731721
H            2.84705539807657       -1.40154729573153       -1.80736002019516
H            4.51933729867146        1.86262185986775       -1.71972833485713
H            6.79488930259586        2.22160961750002       -0.92297277574823
H            8.51557679960006        2.36723867011253        0.70668317979779
H            9.13378572020014        1.76082652388785       -0.85677364807747
H            9.96836874255027        1.33828280288164        0.65889416271296
H            7.35088785254080       -3.76781407558723        1.47251693382025
H            5.68221398289445       -3.16313086634937        1.61417123397651
H            6.30829023729834       -3.70856173332073        0.03028550877565
H            4.57226214166430       -2.12697190034639       -0.21896349856238
H           -0.64381460689924       -1.50870545283686       -1.73675785935377
H           -0.40058901522299       -1.74897196622206        0.00321312721645
H            0.88764852844477       -2.15212891617328       -1.15004610235197
H           -5.06454534234725        2.72696614545900       -0.39522509728698
H           -4.49087946414692        2.68184012952453        2.58171917448705
H           -5.68265067991564        1.69936510327349        1.71002851482005
H           -5.96182467828350        3.43904185431132        1.93245209499683
H           -3.46225322673686        4.75324515644877        1.22772314354891
H           -3.56230549102641        4.69847832354215       -0.53800062802792
H           -4.99506122060675        5.04900503596716        0.41604261036188
H           -1.27764285032762        2.68407794180042        1.31244979203185

          :  Hamiltonian                  GFN2-xTB          :
         :: total energy             -99.373896888579 Eh    ::
         :: gradient norm              0.004464316457 Eh/a0 ::
         :: HOMO-LUMO gap              0.769535926780 eV    ::
         :: SCC energy              -100.733216045074 Eh    ::
         :: -> dispersion             -0.073565677943 Eh    ::
         :: repulsion energy           1.358112679165 Eh    ::

    * Orbital Energies and Occupations

         #    Occupation            Energy/Eh            Energy/eV
      -------------------------------------------------------------
         1        2.0000           -0.8194484             -22.2983
       ...           ...                  ...                  ...
        78        1.9967           -0.5364799             -14.5984
        79        1.9959           -0.5330512             -14.5051
        80        1.9952           -0.5305193             -14.4362
        81        1.9935           -0.5256055             -14.3025
        82        1.9935           -0.5255593             -14.3012
        83        1.9917           -0.5216469             -14.1947
        84        1.9892           -0.5174971             -14.0818
        85        1.9696           -0.5009965             -13.6328
        86        1.9607           -0.4968561             -13.5201
        87        1.9579           -0.4957669             -13.4905
        88        1.7983           -0.4695998             -12.7785
        89        1.7559           -0.4662084             -12.6862
        90        1.6806           -0.4612551             -12.5514 (HOMO)
        91        0.9374           -0.4329751             -11.7819 (LUMO)
        92        0.0018           -0.3240124              -8.8168
        93        0.0015           -0.3214075              -8.7459
        94        0.0014           -0.3196189              -8.6973
        95        0.0013           -0.3183309              -8.6622
        96        0.0012           -0.3177241              -8.6457
        97        0.0000           -0.1984209              -5.3993
        98        0.0000           -0.1954363              -5.3181
        99                         -0.1111687              -3.0251
       100                         -0.0735785              -2.0022
       101                         -0.0686504              -1.8681
       ...                                ...                  ...
       171                          0.5686805              15.4746
      -------------------------------------------------------------
                  HL-Gap            0.0282799 Eh            0.7695 eV

     #   Z          covCN         q      C6AA      α(0)
     1   7 N        0.913    -0.259    26.709     7.474
     2   6 C        2.820     0.089    26.012     8.357
     3   6 C        3.905     0.013    20.302     6.405
     4   6 C        2.970     0.014    27.706     8.634
     5   6 C        2.920    -0.075    29.866     8.962
     6   6 C        2.861     0.134    25.072     8.207
     7   8 O        1.706    -0.219    17.643     5.671
     8   6 C        3.644     0.025    20.494     6.507
     9   6 C        2.864     0.135    25.058     8.205
    10   8 O        1.706    -0.216    17.587     5.662
    11   6 C        3.645     0.024    20.511     6.509
    12   6 C        2.913    -0.068    29.685     8.934
    13   6 C        2.920    -0.043    29.063     8.841
    14   6 C        3.804    -0.066    21.764     6.642
    15   6 C        3.800    -0.069    21.819     6.651
    16   6 C        3.749    -0.001    20.653     6.482
    17   7 N        2.727    -0.104    23.279     7.166
    18   6 C        3.750     0.001    20.620     6.476
    19   6 C        3.808    -0.073    21.880     6.659
    20   6 C        2.967     0.013    27.729     8.638
    21   6 C        2.922    -0.042    29.039     8.837
    22   6 C        2.912    -0.064    29.586     8.919
    23   6 C        2.864     0.137    24.998     8.195
    24   8 O        1.706    -0.209    17.475     5.644
    25   6 C        3.645     0.022    20.548     6.515
    26   6 C        2.861     0.138    24.995     8.195
    27   8 O        1.706    -0.212    17.529     5.653
    28   6 C        3.645     0.024    20.515     6.510
    29   6 C        2.919    -0.075    29.865     8.962
    30   6 C        3.703    -0.049    21.618     6.648
    31   6 C        3.857    -0.007    20.662     6.465
    32   6 C        3.754    -0.118    22.826     6.813
    33   6 C        3.754    -0.115    22.750     6.801
    34   1 H        0.926     0.056     2.252     2.346
    35   1 H        0.924     0.057     2.235     2.338
    36   1 H        0.925     0.085     1.925     2.170
    37   1 H        0.924     0.054     2.273     2.358
    38   1 H        0.924     0.061     2.188     2.313
    39   1 H        0.925     0.085     1.925     2.170
    40   1 H        0.924     0.055     2.264     2.353
    41   1 H        0.926     0.060     2.201     2.320
    42   1 H        0.926     0.058     2.217     2.329
    43   1 H        0.924     0.052     2.295     2.369
    44   1 H        0.924     0.049     2.334     2.389
    45   1 H        0.925     0.046     2.373     2.409
    46   1 H        0.924     0.057     2.239     2.340
    47   1 H        0.923     0.036     2.497     2.471
    48   1 H        0.924     0.048     2.348     2.396
    49   1 H        0.923     0.042     2.425     2.435
    50   1 H        0.924     0.052     2.297     2.370
    51   1 H        0.925     0.065     2.143     2.289
    52   1 H        0.925     0.056     2.242     2.341
    53   1 H        0.926     0.057     2.232     2.336
    54   1 H        0.926     0.064     2.150     2.293
    55   1 H        0.924     0.061     2.191     2.315
    56   1 H        0.924     0.062     2.177     2.307
    57   1 H        0.925     0.087     1.907     2.159
    58   1 H        0.925     0.086     1.915     2.164
    59   1 H        0.924     0.056     2.246     2.344
    60   1 H        0.924     0.059     2.216     2.328
    61   1 H        0.926     0.055     2.253     2.347
    62   1 H        0.925     0.060     2.194     2.316
    63   1 H        0.923     0.040     2.445     2.445
    64   1 H        0.925     0.062     2.177     2.307
    65   1 H        0.924     0.052     2.299     2.371
    66   1 H        0.922     0.109     1.705     2.042
    67   1 H        0.925     0.046     2.372     2.409
    68   1 H        0.925     0.065     2.142     2.289
    69   1 H        0.925     0.052     2.296     2.369
    70   1 H        0.925     0.043     2.412     2.429
    71   1 H        0.925     0.056     2.245     2.343
    72   1 H        0.924     0.070     2.083     2.257

Wiberg/Mayer (AO) data.
largest (>0.10) Wiberg bond orders for each atom

     #   Z sym  total        # sym  WBO       # sym  WBO       # sym  WBO
 ---------------------------------------------------------------------------
     1   7 N    2.347 --     2 C    2.125
     2   6 C    3.944 --     1 N    2.125     3 C    0.892    72 H    0.869
     3   6 C    3.878 --     4 C    0.978    14 C    0.972    31 C    0.933
                             2 C    0.892
     4   6 C    3.920 --    13 C    1.399     5 C    1.366     3 C    0.978
     5   6 C    3.944 --     6 C    1.393     4 C    1.366    34 H    0.957
     6   6 C    3.881 --     5 C    1.393     9 C    1.206     7 O    1.111
     7   8 O    2.248 --     6 C    1.111     8 C    0.976
     8   6 C    3.926 --    36 H    0.976     7 O    0.976    35 H    0.972
                            37 H    0.971
     9   6 C    3.875 --    12 C    1.379     6 C    1.206    10 O    1.117
    10   8 O    2.249 --     9 C    1.117    11 C    0.975
    11   6 C    3.924 --    39 H    0.976    10 O    0.975    40 H    0.971
                            38 H    0.971
    12   6 C    3.948 --    13 C    1.415     9 C    1.379    41 H    0.962
    13   6 C    3.927 --    12 C    1.415     4 C    1.399    42 H    0.960
    14   6 C    3.981 --    15 C    1.006     3 C    0.972    44 H    0.970
                            43 H    0.968
    15   6 C    3.979 --    14 C    1.006    16 C    0.995    46 H    0.972
                            45 H    0.968
    16   6 C    3.965 --    17 N    1.005    15 C    0.995    48 H    0.966
                            47 H    0.947
    17   7 N    3.093 --    30 C    1.018    18 C    1.009    16 C    1.005
    18   6 C    3.960 --    17 N    1.009    50 H    0.970    19 C    0.968
                            49 H    0.956
    19   6 C    3.973 --    20 C    1.016    51 H    0.969    18 C    0.968
                            52 H    0.966
    20   6 C    3.916 --    29 C    1.387    21 C    1.382    19 C    1.016
    21   6 C    3.918 --    22 C    1.429    20 C    1.382    53 H    0.966
    22   6 C    3.943 --    21 C    1.429    23 C    1.367    54 H    0.962
    23   6 C    3.862 --    22 C    1.367    26 C    1.201    24 O    1.125
    24   8 O    2.248 --    23 C    1.125    25 C    0.973
    25   6 C    3.921 --    57 H    0.976    24 O    0.973    56 H    0.970
                            55 H    0.970
    26   6 C    3.870 --    29 C    1.383    23 C    1.201    27 O    1.119
    27   8 O    2.250 --    26 C    1.119    28 C    0.975
    28   6 C    3.924 --    58 H    0.976    27 O    0.975    59 H    0.971
                            60 H    0.971
    29   6 C    3.945 --    20 C    1.387    26 C    1.383    61 H    0.961
    30   6 C    3.967 --    17 N    1.018    64 H    0.978    62 H    0.972
                            63 H    0.963
    31   6 C    3.969 --    32 C    1.018    33 C    1.007    65 H    0.940
                             3 C    0.933
    32   6 C    3.904 --    31 C    1.018    67 H    0.978    68 H    0.974
                            66 H    0.869
    33   6 C    3.981 --    31 C    1.007    70 H    0.982    69 H    0.980
                            71 H    0.980
    34   1 H    0.995 --     5 C    0.957
    35   1 H    0.990 --     8 C    0.972
    36   1 H    0.992 --     8 C    0.976
    37   1 H    0.990 --     8 C    0.971
    38   1 H    0.989 --    11 C    0.971
    39   1 H    0.992 --    11 C    0.976
    40   1 H    0.990 --    11 C    0.971
    41   1 H    0.994 --    12 C    0.962
    42   1 H    0.995 --    13 C    0.960
    43   1 H    0.992 --    14 C    0.968
    44   1 H    0.995 --    14 C    0.970
    45   1 H    0.996 --    15 C    0.968
    46   1 H    0.994 --    15 C    0.972
    47   1 H    0.973 --    16 C    0.947
    48   1 H    0.997 --    16 C    0.966
    49   1 H    0.975 --    18 C    0.956
    50   1 H    0.997 --    18 C    0.970
    51   1 H    0.992 --    19 C    0.969
    52   1 H    0.994 --    19 C    0.966
    53   1 H    0.995 --    21 C    0.966
    54   1 H    0.993 --    22 C    0.962
    55   1 H    0.987 --    25 C    0.970
    56   1 H    0.987 --    25 C    0.970
    57   1 H    0.991 --    25 C    0.976
    58   1 H    0.992 --    28 C    0.976
    59   1 H    0.989 --    28 C    0.971
    60   1 H    0.989 --    28 C    0.971
    61   1 H    0.995 --    29 C    0.961
    62   1 H    0.987 --    30 C    0.972
    63   1 H    0.975 --    30 C    0.963
    64   1 H    0.996 --    30 C    0.978
    65   1 H    0.976 --    31 C    0.940
    66   1 H    0.973 --    32 C    0.869
    67   1 H    0.994 --    32 C    0.978
    68   1 H    0.990 --    32 C    0.974
    69   1 H    0.994 --    33 C    0.980
    70   1 H    0.996 --    33 C    0.982
    71   1 H    0.993 --    33 C    0.980
    72   1 H    0.901 --     2 C    0.869
 ---------------------------------------------------------------------------

molecular dipole:
                 x           y           z       tot (Debye)
 q only:        0.869      -0.349      -0.861
   full:        0.934      -0.336      -1.064       3.699

           -------------------------------------------------
          | TOTAL ENERGY              -99.373896888579 Eh   |
          | GRADIENT NORM               0.004464316457 Eh/α |
          | HOMO-LUMO GAP               0.769535926780 eV   |
           -------------------------------------------------

 * finished run on 2024/04/06 at 11:15:39.882
