   * xtb version 6.6.1 (8d0f1dd) compiled by 'conda@1efc2f54142f' on 2023-08-01
          program call               : xtb struc.xyz --opt loose --input .xc1 --gfn2

   ID    Z sym.   atoms
    1    7 N      1, 17
    2    6 C      2-6, 8, 9, 11-16, 18-23, 25, 26, 28-33
    3    8 O      7, 10, 24, 27
    4    1 H      34-72
constraining bond 31 47 to    5.1400000 Å, actual value:    3.4964145 Å

          :  Hamiltonian                  GFN2-xTB          :
 * total energy  :   -98.9217921 Eh     change       -0.4035485E-08 Eh
 * total energy  :   -99.1077974 Eh     change       -0.1860053E+00 Eh
 * total energy  :   -99.2020808 Eh     change       -0.9428342E-01 Eh
 * total energy  :   -99.2419716 Eh     change       -0.3989085E-01 Eh
 * total energy  :   -99.2561554 Eh     change       -0.1418372E-01 Eh
 * total energy  :   -99.2656105 Eh     change       -0.9455133E-02 Eh
 * total energy  :   -99.2820040 Eh     change       -0.1639349E-01 Eh
 * total energy  :   -99.3026178 Eh     change       -0.2061385E-01 Eh
 * total energy  :   -99.3148319 Eh     change       -0.1221406E-01 Eh
 * total energy  :   -99.3290600 Eh     change       -0.1422806E-01 Eh
 * total energy  :   -99.3844614 Eh     change       -0.2391076E-03 Eh
 * total energy  :   -99.3846779 Eh     change       -0.2164904E-03 Eh
 * total energy  :   -99.3848641 Eh     change       -0.1861583E-03 Eh
 * total energy  :   -99.3850463 Eh     change       -0.1822640E-03 Eh
 * total energy  :   -99.3852388 Eh     change       -0.1925210E-03 Eh
 * total energy  :   -99.3854479 Eh     change       -0.2090282E-03 Eh
 * total energy  :   -99.3855639 Eh     change       -0.1160156E-03 Eh
 * total energy  :   -99.3856280 Eh     change       -0.6407747E-04 Eh
 * total energy  :   -99.3856685 Eh     change       -0.4050036E-04 Eh
   *** GEOMETRY OPTIMIZATION CONVERGED AFTER 46 ITERATIONS ***

 final structure:
================
72
 xtb: 6.6.1 (8d0f1dd)
N           -1.98013837093481        3.04904080255598        2.33813095636486
C           -2.62413354038786        2.24191866361045        1.72053298549631
C           -3.34610169754227        1.94264657071352        0.51687968822994
C           -3.91392838842141        0.52945847943854        0.57468209458638
C           -4.69902885941069        0.03536610368115       -0.46594653323078
C           -5.16246034760617       -1.27008051042216       -0.45227802528332
O           -5.92820424987292       -1.83479770496294       -1.40735977920382
C           -6.36534503924395       -1.05154953824663       -2.49250631265374
C           -4.81766898073362       -2.12603704493504        0.62923746670813
O           -5.28164844552053       -3.38763848525544        0.53808082546711
C           -4.95807997476183       -4.31063121493540        1.55156926510673
C           -4.04711926432947       -1.61968819699479        1.66398118546689
C           -3.60380812324704       -0.30610977869829        1.63419133291852
C           -2.33480276632083        2.04255166475826       -0.67444981035738
C           -1.45172387164341        0.81295936461673       -0.93380238223130
C           -0.14276530893025        0.69649104290037       -0.13637643011374
N            0.82553408498964       -0.07157699456988       -0.89993358159269
C            2.20160489335018        0.09998319894302       -0.47560750150148
C            3.18723324736518       -0.14613794357174       -1.62844135203798
C            4.60029353657565        0.00966288655609       -1.14778743311096
C            5.29559374386615        1.19576935332427       -1.33036275564917
C            6.59253627996983        1.34026003458922       -0.86297367712792
C            7.22315521300945        0.29965162317647       -0.19471143185141
O            8.47402379263431        0.32666874177698        0.30137706817705
C            9.25781368785376        1.48449393227640        0.13062344500248
C            6.51864449509737       -0.92173282795045        0.00034284110594
O            7.20391504593113       -1.88109624837787        0.65387099172866
C            6.60344988196400       -3.13728654288398        0.86034399034038
C            5.22317501135778       -1.04111889211730       -0.47781167358691
C            0.44363994084164       -1.45976342086277       -1.03452243743022
C           -4.52878140983199        2.98877161433988        0.37446222527414
C           -5.49752477569951        2.83905057201258        1.54339052404375
C           -4.03694505840294        4.42573113057031        0.26273120859794
H           -4.93939403603636        0.67256782693248       -1.30066431378327
H           -6.96096621781600       -0.19720933046800       -2.15576191683036
H           -6.98938396229413       -1.70925527088842       -3.09424063877252
H           -5.52525300506227       -0.69830401453735       -3.09870367701806
H           -5.37383396214257       -4.00870307511935        2.51747614964218
H           -5.40876329464336       -5.25222754590954        1.24371916528815
H           -3.87520291421002       -4.44098357981470        1.64380339776771
H           -3.78288027036170       -2.24134701148095        2.50349251545225
H           -3.00006071974473        0.07101040865931        2.44914961278169
H           -2.94048147836600        2.20174101546861       -1.56782321316520
H           -1.70778007058260        2.92370547894826       -0.53604263073154
H           -2.04651166109112       -0.09038991627241       -0.80806283545983
H           -1.14687871350399        0.86783569370720       -1.98035250691093
H           -0.27188036582239        0.21757750481198        0.85167025980950
H            0.26978323489547        1.69679106860891        0.01823424477749
H            2.45045964504905       -0.56916640340165        0.36355924901707
H            2.33430528679436        1.12757690087866       -0.13228581775167
H            2.97504752287773        0.56555436148484       -2.42486321738713
H            3.05073587758147       -1.15164555698714       -2.02676868970591
H            4.82835511491660        2.01711097475900       -1.85150947058124
H            7.10876648817475        2.27215606412952       -1.02758981984403
H            8.80493548709265        2.35087417873138        0.62156516458188
H            9.41753856302451        1.70686566634947       -0.92845791377835
H           10.21336982116540        1.26177214745057        0.60110114608833
H            7.34951280611084       -3.73639975988873        1.37849924557825
H            5.70794108460765       -3.05636501867937        1.48447538703230
H            6.34642798688856       -3.61937677743770       -0.08760724664936
H            4.68228176891616       -1.96480166656792       -0.34324517482017
H           -0.47596291744960       -1.53714796725467       -1.61007308844028
H            0.28618246268648       -1.93790416671331       -0.05657555266328
H            1.21733128410797       -2.00494475591472       -1.56548703088590
H           -5.04915953112416        2.72636224819630       -0.54981772152264
H           -5.01728824568162        3.11418317569278        2.47962875736556
H           -5.85900788145787        1.81648870253490        1.62503516884379
H           -6.35403143560479        3.49227635440052        1.39742021996411
H           -3.47599159813808        4.71872779226045        1.14612625286445
H           -3.41183157366120        4.56892691182411       -0.61395457973007
H           -4.89398827830711        5.08888564841941        0.17372637736932
H           -1.56033108719168        3.00609078057878        3.25291260714593

          :  Hamiltonian                  GFN2-xTB          :
         :: total energy             -99.385668469228 Eh    ::
         :: gradient norm              0.003102835858 Eh/a0 ::
         :: HOMO-LUMO gap              1.366758826026 eV    ::
         :: SCC energy              -100.767578841133 Eh    ::
         :: -> dispersion             -0.071697382308 Eh    ::
         :: repulsion energy           1.380597242934 Eh    ::

    * Orbital Energies and Occupations

         #    Occupation            Energy/Eh            Energy/eV
      -------------------------------------------------------------
         1        2.0000           -0.8085587             -22.0020
       ...           ...                  ...                  ...
        78        1.9987           -0.5320708             -14.4784
        79        1.9985           -0.5292333             -14.4012
        80        1.9984           -0.5282288             -14.3738
        81        1.9983           -0.5273815             -14.3508
        82        1.9976           -0.5218071             -14.1991
        83        1.9974           -0.5209522             -14.1758
        84        1.9970           -0.5183689             -14.1055
        85        1.9952           -0.5110199             -13.9056
        86        1.9841           -0.4919618             -13.3870
        87        1.9670           -0.4802460             -13.0682
        88        1.8855           -0.4598820             -12.5140
        89        1.8604           -0.4565415             -12.4231
        90        1.7712           -0.4479379             -12.1890 (HOMO)
        91        0.4900           -0.3977104             -10.8223 (LUMO)
        92        0.0585           -0.3600777              -9.7982
        93        0.0041           -0.3174614              -8.6386
        94        0.0034           -0.3144175              -8.5557
        95        0.0018           -0.3043798              -8.2826
        96        0.0015           -0.3015615              -8.2059
        97        0.0000           -0.1914072              -5.2085
        98        0.0000           -0.1792915              -4.8788
        99                         -0.1057946              -2.8788
       100                         -0.0863450              -2.3496
       101                         -0.0798448              -2.1727
       ...                                ...                  ...
       171                          0.7189274              19.5630
      -------------------------------------------------------------
                  HL-Gap            0.0502275 Eh            1.3668 eV

     #   Z          covCN         q      C6AA      α(0)
     1   7 N        1.771    -0.159    25.196     7.433
     2   6 C        1.922     0.105    28.503     8.622
     3   6 C        3.901     0.027    20.073     6.369
     4   6 C        2.978     0.004    27.937     8.670
     5   6 C        2.919    -0.078    29.951     8.975
     6   6 C        2.863     0.131    25.121     8.216
     7   8 O        1.706    -0.228    17.777     5.693
     8   6 C        3.645     0.027    20.454     6.500
     9   6 C        2.865     0.131    25.122     8.216
    10   8 O        1.706    -0.226    17.750     5.688
    11   6 C        3.646     0.027    20.460     6.501
    12   6 C        2.914    -0.070    29.743     8.943
    13   6 C        2.922    -0.048    29.193     8.860
    14   6 C        3.810    -0.061    21.668     6.626
    15   6 C        3.800    -0.074    21.908     6.664
    16   6 C        3.752     0.002    20.598     6.472
    17   7 N        2.727    -0.132    23.867     7.256
    18   6 C        3.756     0.005    20.543     6.462
    19   6 C        3.809    -0.071    21.860     6.656
    20   6 C        2.968     0.009    27.815     8.651
    21   6 C        2.922    -0.045    29.116     8.849
    22   6 C        2.913    -0.066    29.645     8.928
    23   6 C        2.864     0.133    25.079     8.209
    24   8 O        1.706    -0.220    17.651     5.672
    25   6 C        3.645     0.025    20.490     6.506
    26   6 C        2.862     0.134    25.074     8.208
    27   8 O        1.706    -0.223    17.699     5.680
    28   6 C        3.645     0.027    20.454     6.500
    29   6 C        2.920    -0.077    29.913     8.969
    30   6 C        3.709    -0.046    21.538     6.633
    31   6 C        3.853    -0.007    20.668     6.466
    32   6 C        3.755    -0.113    22.723     6.797
    33   6 C        3.754    -0.120    22.850     6.816
    34   1 H        0.926     0.052     2.292     2.368
    35   1 H        0.924     0.052     2.295     2.369
    36   1 H        0.925     0.082     1.960     2.189
    37   1 H        0.924     0.050     2.326     2.385
    38   1 H        0.924     0.055     2.265     2.353
    39   1 H        0.925     0.081     1.964     2.191
    40   1 H        0.924     0.050     2.318     2.381
    41   1 H        0.926     0.056     2.250     2.346
    42   1 H        0.925     0.038     2.480     2.463
    43   1 H        0.924     0.066     2.134     2.285
    44   1 H        0.924     0.058     2.217     2.328
    45   1 H        0.925     0.051     2.307     2.375
    46   1 H        0.924     0.068     2.112     2.273
    47   1 H        0.922     0.020     2.738     2.588
    48   1 H        0.924     0.045     2.384     2.414
    49   1 H        0.923     0.030     2.592     2.518
    50   1 H        0.924     0.045     2.389     2.417
    51   1 H        0.925     0.060     2.199     2.319
    52   1 H        0.925     0.054     2.265     2.354
    53   1 H        0.926     0.052     2.295     2.369
    54   1 H        0.926     0.059     2.215     2.327
    55   1 H        0.924     0.055     2.257     2.350
    56   1 H        0.924     0.057     2.234     2.338
    57   1 H        0.925     0.082     1.958     2.188
    58   1 H        0.925     0.081     1.967     2.193
    59   1 H        0.924     0.050     2.317     2.380
    60   1 H        0.924     0.054     2.270     2.356
    61   1 H        0.926     0.051     2.311     2.377
    62   1 H        0.925     0.054     2.273     2.357
    63   1 H        0.923     0.030     2.594     2.519
    64   1 H        0.925     0.058     2.222     2.331
    65   1 H        0.924     0.055     2.253     2.347
    66   1 H        0.925     0.042     2.418     2.432
    67   1 H        0.925     0.045     2.378     2.412
    68   1 H        0.925     0.059     2.213     2.326
    69   1 H        0.925     0.050     2.322     2.383
    70   1 H        0.925     0.047     2.360     2.402
    71   1 H        0.925     0.061     2.190     2.314
    72   1 H        0.860     0.224     0.992     1.561

Wiberg/Mayer (AO) data.
largest (>0.10) Wiberg bond orders for each atom

     #   Z sym  total        # sym  WBO       # sym  WBO       # sym  WBO
 ---------------------------------------------------------------------------
     1   7 N    3.224 --     2 C    2.187    72 H    0.898
     2   6 C    3.390 --     1 N    2.187     3 C    1.083
     3   6 C    3.963 --     2 C    1.083     4 C    0.958    14 C    0.911
                            31 C    0.887
     4   6 C    3.933 --    13 C    1.416     5 C    1.372     3 C    0.958
     5   6 C    3.964 --     6 C    1.399     4 C    1.372    34 H    0.958
     6   6 C    3.909 --     5 C    1.399     9 C    1.223     7 O    1.102
     7   8 O    2.259 --     6 C    1.102     8 C    0.978
     8   6 C    3.932 --     7 O    0.978    36 H    0.977    35 H    0.974
                            37 H    0.973
     9   6 C    3.906 --    12 C    1.391     6 C    1.223    10 O    1.105
    10   8 O    2.259 --     9 C    1.105    11 C    0.977
    11   6 C    3.931 --    10 O    0.977    39 H    0.977    40 H    0.974
                            38 H    0.973
    12   6 C    3.965 --    13 C    1.409     9 C    1.391    41 H    0.963
    13   6 C    3.951 --     4 C    1.416    12 C    1.409    42 H    0.955
    14   6 C    3.965 --    15 C    1.008    44 H    0.972    43 H    0.964
                             3 C    0.911
    15   6 C    3.986 --    14 C    1.008    16 C    0.999    45 H    0.968
                            46 H    0.968
    16   6 C    3.977 --    17 N    1.002    15 C    0.999    48 H    0.970
                            47 H    0.960
    17   7 N    3.091 --    30 C    1.016    18 C    1.003    16 C    1.002
    18   6 C    3.968 --    17 N    1.003    19 C    0.977    50 H    0.971
                            49 H    0.958
    19   6 C    3.982 --    20 C    1.013    18 C    0.977    51 H    0.972
                            52 H    0.962
    20   6 C    3.930 --    21 C    1.398    29 C    1.381    19 C    1.013
    21   6 C    3.932 --    22 C    1.420    20 C    1.398    53 H    0.967
    22   6 C    3.952 --    21 C    1.420    23 C    1.378    54 H    0.963
    23   6 C    3.877 --    22 C    1.378    26 C    1.213    24 O    1.110
    24   8 O    2.245 --    23 C    1.110    25 C    0.976
    25   6 C    3.927 --    57 H    0.977    24 O    0.976    55 H    0.972
                            56 H    0.972
    26   6 C    3.884 --    29 C    1.393    23 C    1.213    27 O    1.105
    27   8 O    2.246 --    26 C    1.105    28 C    0.978
    28   6 C    3.931 --    27 O    0.978    58 H    0.977    59 H    0.973
                            60 H    0.973
    29   6 C    3.953 --    26 C    1.393    20 C    1.381    61 H    0.962
    30   6 C    3.973 --    17 N    1.016    62 H    0.977    64 H    0.975
                            63 H    0.966
    31   6 C    3.959 --    33 C    1.015    32 C    1.012    65 H    0.955
                             3 C    0.887
    32   6 C    3.991 --    31 C    1.012    66 H    0.983    67 H    0.982
                            68 H    0.981
    33   6 C    3.990 --    31 C    1.015    70 H    0.983    69 H    0.982
                            71 H    0.978
    34   1 H    0.996 --     5 C    0.958
    35   1 H    0.994 --     8 C    0.974
    36   1 H    0.993 --     8 C    0.977
    37   1 H    0.994 --     8 C    0.973
    38   1 H    0.993 --    11 C    0.973
    39   1 H    0.993 --    11 C    0.977
    40   1 H    0.994 --    11 C    0.974
    41   1 H    0.995 --    12 C    0.963
    42   1 H    0.998 --    13 C    0.955
    43   1 H    0.992 --    14 C    0.964
    44   1 H    0.995 --    14 C    0.972
    45   1 H    0.997 --    15 C    0.968
    46   1 H    0.994 --    15 C    0.968
    47   1 H    0.984 --    16 C    0.960
    48   1 H    0.997 --    16 C    0.970
    49   1 H    0.983 --    18 C    0.958
    50   1 H    0.997 --    18 C    0.971
    51   1 H    0.994 --    19 C    0.972
    52   1 H    0.994 --    19 C    0.962
    53   1 H    0.996 --    21 C    0.967
    54   1 H    0.995 --    22 C    0.963
    55   1 H    0.990 --    25 C    0.972
    56   1 H    0.990 --    25 C    0.972
    57   1 H    0.992 --    25 C    0.977
    58   1 H    0.993 --    28 C    0.977
    59   1 H    0.992 --    28 C    0.973
    60   1 H    0.991 --    28 C    0.973
    61   1 H    0.996 --    29 C    0.962
    62   1 H    0.993 --    30 C    0.977
    63   1 H    0.983 --    30 C    0.966
    64   1 H    0.996 --    30 C    0.975
    65   1 H    0.993 --    31 C    0.955
    66   1 H    0.997 --    32 C    0.983
    67   1 H    0.997 --    32 C    0.982
    68   1 H    0.995 --    32 C    0.981
    69   1 H    0.997 --    33 C    0.982
    70   1 H    0.997 --    33 C    0.983
    71   1 H    0.995 --    33 C    0.978
    72   1 H    0.923 --     1 N    0.898
 ---------------------------------------------------------------------------

molecular dipole:
                 x           y           z       tot (Debye)
 q only:       -0.489       1.106       0.480
   full:       -0.486       1.025       0.889       3.663

           -------------------------------------------------
          | TOTAL ENERGY              -99.385668469228 Eh   |
          | GRADIENT NORM               0.003102835858 Eh/α |
          | HOMO-LUMO GAP               1.366758826026 eV   |
           -------------------------------------------------

 * finished run on 2024/04/06 at 11:14:51.484
