   * xtb version 6.6.1 (8d0f1dd) compiled by 'conda@1efc2f54142f' on 2023-08-01
          program call               : xtb xtbopt.xyz --opt crude --input .xc2 --gfn2

   ID    Z sym.   atoms
    1    7 N      1, 17
    2    6 C      2-6, 8, 9, 11-16, 18-23, 25, 26, 28-33
    3    8 O      7, 10, 24, 27
    4    1 H      34-72
########################################################################
[WARNING] Please study the warnings concerning your input carefully
-1- readin_getIntValue: could not parse ''
########################################################################

          :  Hamiltonian                  GFN2-xTB          :
 * total energy  :   -99.3859289 Eh     change       -0.1051603E-11 Eh
 * total energy  :   -99.3869764 Eh     change       -0.1047512E-02 Eh
 * total energy  :   -99.3876493 Eh     change       -0.6729209E-03 Eh
 * total energy  :   -99.3880965 Eh     change       -0.4471242E-03 Eh
   *** GEOMETRY OPTIMIZATION CONVERGED AFTER 4 ITERATIONS ***

 final structure:
================
72
 xtb: 6.6.1 (8d0f1dd)
N           -1.94419642745445        3.03458274143087        2.32407276533947
C           -2.55629341046094        2.20608273575987        1.70012416758820
C           -3.29205381288794        1.91146239162484        0.50238785031634
C           -3.86981474011484        0.50342267247581        0.56161029239853
C           -4.67100360032102        0.01996616571071       -0.47193767261354
C           -5.15604376254225       -1.27770472506500       -0.45233692953760
O           -5.93166271935199       -1.83397618015685       -1.40414359776965
C           -6.36158164902411       -1.04976253884599       -2.49211578016116
C           -4.82126349746242       -2.13506713667629        0.63168365201159
O           -5.30029335691307       -3.39054724865646        0.54490806559763
C           -4.98389554872944       -4.31474071486171        1.56020557227618
C           -4.04362434500556       -1.63554665622185        1.66470872124995
C           -3.57580387987169       -0.33026538966835        1.62752224293207
C           -2.34073410789197        2.05482784474456       -0.72855099206304
C           -1.46328715597949        0.84228738979526       -1.03488392814625
C           -0.19516647348953        0.74192924544234       -0.17949807429213
N            0.80060284408247       -0.07366931431672       -0.85305924915708
C            2.17512256334789        0.10799834464986       -0.43155918193316
C            3.16201275031825       -0.13084049264128       -1.59196696058288
C            4.58029747605287        0.02325580616865       -1.12358570190919
C            5.27856812123567        1.20705603042293       -1.31140879003499
C            6.58084283796826        1.34689398651074       -0.85691099301274
C            7.21548648508291        0.30421340961581       -0.19563950495303
O            8.47015232604924        0.32832344524852        0.29263775405452
C            9.25325580385352        1.48736643813484        0.12487417879164
C            6.51047857680758       -0.91652130846123        0.00026020120879
O            7.20101210308940       -1.87858084513547        0.64458248623648
C            6.60180392150504       -3.13460702621866        0.85559917591182
C            5.21052545370002       -1.03235252509480       -0.46723362125619
C            0.41841943201605       -1.45996273032271       -0.98945438363604
C           -4.46216412596391        2.95129640302256        0.39156927361028
C           -5.43683291735893        2.81181896356355        1.55819586163420
C           -3.98738907973797        4.39492216138659        0.27218510386172
H           -4.90966207130605        0.65902594053919       -1.30600725218464
H           -6.95141810275346       -0.19033710623245       -2.15894842462441
H           -6.98934272139398       -1.70509692684786       -3.09272482772242
H           -5.51793508426514       -0.70443851157466       -3.09849864368775
H           -5.39235946699073       -4.00490264036440        2.52675263053217
H           -5.44649973894963       -5.25177393533675        1.25707615978792
H           -3.90206066869900       -4.45641490989716        1.64843803653670
H           -3.79221062570793       -2.25719586590542        2.50828623784483
H           -2.97122391772611        0.04065776538747        2.44415768220188
H           -2.98048894312057        2.23450896404957       -1.59350075105458
H           -1.71261460852945        2.93378311880537       -0.58620170900443
H           -2.05453103824505       -0.06678789809277       -0.92407944414014
H           -1.14524587540661        0.91274610620494       -2.07688155706199
H           -0.45903810932534        0.34305989747332        0.81911204094042
H            0.22863680427535        1.73907876774105       -0.04052545413450
H            2.43213728555041       -0.56503623795890        0.40164780736287
H            2.30567149822286        1.13533562580603       -0.08479787591317
H            2.94469875272838        0.58388531327891       -2.38612048006926
H            3.02564453101289       -1.13564106291693       -1.99273107441056
H            4.80987561208336        2.03077538187172       -1.82743516057592
H            7.09877919249121        2.27690381912474       -1.02543795337527
H            8.80172100554287        2.35180347814830        0.62146690320169
H            9.40997799958742        1.71461952903881       -0.93387387460176
H           10.21071612926243        1.26296391378271        0.59155290734062
H            7.35034068964364       -3.73245249593309        1.37238172090716
H            5.70832383833298       -3.05295803110661        1.48289836297391
H            6.34175919160923       -3.61890427455012       -0.09074297164912
H            4.67198807113564       -1.95762024098033       -0.33353640766821
H           -0.49709613686251       -1.53697650529433       -1.57059026389985
H            0.25788678959373       -1.94152885443361       -0.01398903148674
H            1.19670388406917       -2.00355411608876       -1.51849584366791
H           -4.99603877346336        2.69427989258357       -0.52834126449276
H           -4.96580920072484        3.09628793587371        2.49634060974792
H           -5.80218427620991        1.79157434435953        1.64694641872708
H           -6.29069673377700        3.46555616190210        1.39783015465402
H           -3.41992973894732        4.69865704697870        1.14811799967029
H           -3.37580627989571        4.54944803211140       -0.61198071102486
H           -4.85556571570451        5.04476473729362        0.19215633219080
H           -1.52606393512311        3.00248202034352        3.23870181045827

          :  Hamiltonian                  GFN2-xTB          :
         :: total energy             -99.388096457773 Eh    ::
         :: gradient norm              0.005278070209 Eh/a0 ::
         :: HOMO-LUMO gap              1.351478224488 eV    ::
         :: SCC energy              -100.769598847363 Eh    ::
         :: -> dispersion             -0.071939410902 Eh    ::
         :: repulsion energy           1.380437056150 Eh    ::

    * Orbital Energies and Occupations

         #    Occupation            Energy/Eh            Energy/eV
      -------------------------------------------------------------
         1        2.0000           -0.8085779             -22.0025
       ...           ...                  ...                  ...
        78        1.9986           -0.5310661             -14.4510
        79        1.9985           -0.5292583             -14.4019
        80        1.9984           -0.5280771             -14.3697
        81        1.9983           -0.5278291             -14.3630
        82        1.9976           -0.5220599             -14.2060
        83        1.9975           -0.5210539             -14.1786
        84        1.9971           -0.5189354             -14.1210
        85        1.9953           -0.5112097             -13.9107
        86        1.9840           -0.4918022             -13.3826
        87        1.9672           -0.4803587             -13.0712
        88        1.8854           -0.4598595             -12.5134
        89        1.8533           -0.4556820             -12.3997
        90        1.7691           -0.4477630             -12.1843 (HOMO)
        91        0.4993           -0.3980971             -10.8328 (LUMO)
        92        0.0580           -0.3599322              -9.7943
        93        0.0041           -0.3174482              -8.6382
        94        0.0034           -0.3144476              -8.5566
        95        0.0018           -0.3046351              -8.2895
        96        0.0015           -0.3018039              -8.2125
        97        0.0000           -0.1915242              -5.2116
        98        0.0000           -0.1796885              -4.8896
        99                         -0.1012855              -2.7561
       100                         -0.0843092              -2.2942
       101                         -0.0755374              -2.0555
       ...                                ...                  ...
       171                          0.7124337              19.3863
      -------------------------------------------------------------
                  HL-Gap            0.0496659 Eh            1.3515 eV

     #   Z          covCN         q      C6AA      α(0)
     1   7 N        1.772    -0.160    25.216     7.436
     2   6 C        1.921     0.102    28.573     8.633
     3   6 C        3.904     0.028    20.043     6.364
     4   6 C        2.978     0.003    27.948     8.672
     5   6 C        2.919    -0.078    29.950     8.974
     6   6 C        2.863     0.131    25.122     8.216
     7   8 O        1.706    -0.228    17.780     5.693
     8   6 C        3.644     0.027    20.457     6.501
     9   6 C        2.865     0.132    25.119     8.215
    10   8 O        1.706    -0.226    17.747     5.688
    11   6 C        3.646     0.026    20.462     6.501
    12   6 C        2.914    -0.070    29.748     8.944
    13   6 C        2.922    -0.048    29.193     8.860
    14   6 C        3.809    -0.061    21.674     6.627
    15   6 C        3.801    -0.072    21.883     6.660
    16   6 C        3.747     0.002    20.616     6.476
    17   7 N        2.727    -0.125    23.713     7.232
    18   6 C        3.751     0.004    20.576     6.469
    19   6 C        3.808    -0.072    21.865     6.656
    20   6 C        2.967     0.009    27.821     8.652
    21   6 C        2.922    -0.045    29.114     8.848
    22   6 C        2.913    -0.066    29.645     8.928
    23   6 C        2.864     0.133    25.079     8.209
    24   8 O        1.706    -0.220    17.655     5.673
    25   6 C        3.645     0.025    20.490     6.506
    26   6 C        2.862     0.134    25.075     8.208
    27   8 O        1.706    -0.223    17.701     5.680
    28   6 C        3.645     0.027    20.454     6.500
    29   6 C        2.920    -0.077    29.914     8.969
    30   6 C        3.705    -0.047    21.569     6.639
    31   6 C        3.859    -0.008    20.679     6.467
    32   6 C        3.755    -0.114    22.730     6.798
    33   6 C        3.754    -0.120    22.861     6.818
    34   1 H        0.926     0.052     2.294     2.369
    35   1 H        0.924     0.052     2.293     2.368
    36   1 H        0.925     0.082     1.959     2.189
    37   1 H        0.924     0.049     2.327     2.386
    38   1 H        0.924     0.055     2.264     2.353
    39   1 H        0.925     0.082     1.963     2.191
    40   1 H        0.924     0.050     2.316     2.380
    41   1 H        0.926     0.056     2.251     2.346
    42   1 H        0.925     0.038     2.481     2.463
    43   1 H        0.924     0.065     2.142     2.289
    44   1 H        0.925     0.058     2.217     2.329
    45   1 H        0.925     0.051     2.309     2.376
    46   1 H        0.924     0.064     2.147     2.292
    47   1 H        0.922     0.019     2.743     2.590
    48   1 H        0.924     0.046     2.376     2.411
    49   1 H        0.923     0.032     2.558     2.501
    50   1 H        0.924     0.045     2.378     2.412
    51   1 H        0.924     0.060     2.205     2.322
    52   1 H        0.924     0.055     2.263     2.353
    53   1 H        0.926     0.052     2.297     2.370
    54   1 H        0.926     0.059     2.215     2.327
    55   1 H        0.924     0.055     2.259     2.350
    56   1 H        0.924     0.057     2.235     2.338
    57   1 H        0.925     0.082     1.959     2.189
    58   1 H        0.925     0.081     1.967     2.194
    59   1 H        0.924     0.050     2.318     2.381
    60   1 H        0.924     0.054     2.270     2.356
    61   1 H        0.926     0.050     2.314     2.379
    62   1 H        0.925     0.055     2.260     2.351
    63   1 H        0.923     0.031     2.568     2.506
    64   1 H        0.925     0.059     2.213     2.326
    65   1 H        0.924     0.056     2.252     2.347
    66   1 H        0.925     0.042     2.418     2.432
    67   1 H        0.925     0.045     2.387     2.416
    68   1 H        0.925     0.058     2.220     2.330
    69   1 H        0.925     0.050     2.317     2.380
    70   1 H        0.925     0.047     2.363     2.404
    71   1 H        0.925     0.061     2.192     2.316
    72   1 H        0.860     0.223     0.996     1.564

Wiberg/Mayer (AO) data.
largest (>0.10) Wiberg bond orders for each atom

     #   Z sym  total        # sym  WBO       # sym  WBO       # sym  WBO
 ---------------------------------------------------------------------------
     1   7 N    3.220 --     2 C    2.183    72 H    0.899
     2   6 C    3.383 --     1 N    2.183     3 C    1.079
     3   6 C    3.964 --     2 C    1.079     4 C    0.958    14 C    0.915
                            31 C    0.890
     4   6 C    3.934 --    13 C    1.417     5 C    1.372     3 C    0.958
     5   6 C    3.964 --     6 C    1.399     4 C    1.372    34 H    0.957
     6   6 C    3.909 --     5 C    1.399     9 C    1.222     7 O    1.102
     7   8 O    2.259 --     6 C    1.102     8 C    0.977
     8   6 C    3.932 --     7 O    0.977    36 H    0.977    35 H    0.974
                            37 H    0.973
     9   6 C    3.906 --    12 C    1.391     6 C    1.222    10 O    1.106
    10   8 O    2.259 --     9 C    1.106    11 C    0.977
    11   6 C    3.931 --    39 H    0.977    10 O    0.977    40 H    0.974
                            38 H    0.973
    12   6 C    3.964 --    13 C    1.408     9 C    1.391    41 H    0.963
    13   6 C    3.951 --     4 C    1.417    12 C    1.408    42 H    0.955
    14   6 C    3.966 --    15 C    1.010    44 H    0.972    43 H    0.964
                             3 C    0.915
    15   6 C    3.986 --    14 C    1.010    16 C    0.998    46 H    0.969
                            45 H    0.967
    16   6 C    3.977 --    17 N    1.005    15 C    0.998    48 H    0.969
                            47 H    0.957
    17   7 N    3.099 --    30 C    1.017    16 C    1.005    18 C    1.005
    18   6 C    3.967 --    17 N    1.005    19 C    0.975    50 H    0.972
                            49 H    0.959
    19   6 C    3.981 --    20 C    1.014    18 C    0.975    51 H    0.972
                            52 H    0.962
    20   6 C    3.930 --    21 C    1.398    29 C    1.380    19 C    1.014
    21   6 C    3.933 --    22 C    1.420    20 C    1.398    53 H    0.967
    22   6 C    3.952 --    21 C    1.420    23 C    1.379    54 H    0.963
    23   6 C    3.877 --    22 C    1.379    26 C    1.214    24 O    1.110
    24   8 O    2.245 --    23 C    1.110    25 C    0.976
    25   6 C    3.927 --    57 H    0.977    24 O    0.976    55 H    0.972
                            56 H    0.972
    26   6 C    3.884 --    29 C    1.393    23 C    1.214    27 O    1.104
    27   8 O    2.246 --    26 C    1.104    28 C    0.978
    28   6 C    3.931 --    27 O    0.978    58 H    0.977    59 H    0.973
                            60 H    0.973
    29   6 C    3.953 --    26 C    1.393    20 C    1.380    61 H    0.962
    30   6 C    3.972 --    17 N    1.017    62 H    0.976    64 H    0.975
                            63 H    0.966
    31   6 C    3.960 --    33 C    1.014    32 C    1.011    65 H    0.952
                             3 C    0.890
    32   6 C    3.991 --    31 C    1.011    66 H    0.984    67 H    0.982
                            68 H    0.981
    33   6 C    3.989 --    31 C    1.014    70 H    0.983    69 H    0.982
                            71 H    0.979
    34   1 H    0.996 --     5 C    0.957
    35   1 H    0.994 --     8 C    0.974
    36   1 H    0.993 --     8 C    0.977
    37   1 H    0.994 --     8 C    0.973
    38   1 H    0.993 --    11 C    0.973
    39   1 H    0.993 --    11 C    0.977
    40   1 H    0.994 --    11 C    0.974
    41   1 H    0.995 --    12 C    0.963
    42   1 H    0.998 --    13 C    0.955
    43   1 H    0.992 --    14 C    0.964
    44   1 H    0.996 --    14 C    0.972
    45   1 H    0.997 --    15 C    0.967
    46   1 H    0.994 --    15 C    0.969
    47   1 H    0.983 --    16 C    0.957
    48   1 H    0.997 --    16 C    0.969
    49   1 H    0.982 --    18 C    0.959
    50   1 H    0.997 --    18 C    0.972
    51   1 H    0.994 --    19 C    0.972
    52   1 H    0.994 --    19 C    0.962
    53   1 H    0.996 --    21 C    0.967
    54   1 H    0.995 --    22 C    0.963
    55   1 H    0.990 --    25 C    0.972
    56   1 H    0.990 --    25 C    0.972
    57   1 H    0.992 --    25 C    0.977
    58   1 H    0.993 --    28 C    0.977
    59   1 H    0.992 --    28 C    0.973
    60   1 H    0.991 --    28 C    0.973
    61   1 H    0.996 --    29 C    0.962
    62   1 H    0.993 --    30 C    0.976
    63   1 H    0.981 --    30 C    0.966
    64   1 H    0.995 --    30 C    0.975
    65   1 H    0.993 --    31 C    0.952
    66   1 H    0.997 --    32 C    0.984
    67   1 H    0.998 --    32 C    0.982
    68   1 H    0.995 --    32 C    0.981
    69   1 H    0.997 --    33 C    0.982
    70   1 H    0.997 --    33 C    0.983
    71   1 H    0.995 --    33 C    0.979
    72   1 H    0.924 --     1 N    0.899
 ---------------------------------------------------------------------------

molecular dipole:
                 x           y           z       tot (Debye)
 q only:       -0.429       1.060       0.449
   full:       -0.446       0.997       0.852       3.520

           -------------------------------------------------
          | TOTAL ENERGY              -99.388096457773 Eh   |
          | GRADIENT NORM               0.005278070209 Eh/α |
          | HOMO-LUMO GAP               1.351478224488 eV   |
           -------------------------------------------------

 * finished run on 2024/04/06 at 11:14:52.414
