   * xtb version 6.6.1 (8d0f1dd) compiled by 'conda@1efc2f54142f' on 2023-08-01
          program call               : xtb xtbopt.xyz --opt crude --input .xc2 --gfn2

   ID    Z sym.   atoms
    1    6 C      1, 3, 5-7, 10, 11, 14
    2    7 N      2, 4, 9, 13
    3    8 O      8, 12
    4    1 H      15-25

          :  Hamiltonian                  GFN2-xTB          :
 * total energy  :   -42.1371193 Eh     change       -0.3197442E-12 Eh
   *** GEOMETRY OPTIMIZATION CONVERGED AFTER 1 ITERATIONS ***

 final structure:
================
25
 xtb: 6.6.1 (8d0f1dd)
C            3.28266315994538        1.26779987708371        0.05578138406654
N            2.38251661562673        0.14728771215716        0.04295162258694
C            2.71918379188483       -1.14698926763051        0.05745058678909
N            1.60188820404582       -1.91349666293373        0.03820825715537
C            0.51651022726561       -1.07547291939026        0.01143577085134
C            1.00940294883514        0.22720142129140        0.01258622157105
C            0.14622043932011        1.37792477714346       -0.01492217128033
O            0.49991835421109        2.54087970544512       -0.01895549635506
N           -1.20503760983008        1.00249447372817       -0.03842316173489
C           -2.19261954531397        2.07204981913111       -0.07954477374808
C           -1.73347586841061       -0.26208603949207       -0.02121449297921
O           -2.91475471037796       -0.48060474011593       -0.02122827507049
N           -0.80908862150239       -1.37585310726114       -0.00404237611427
C           -1.32714498206864       -2.61874687215282       -0.00408989546665
H            3.92950721042451        1.22508875630712        0.93251960597689
H            3.90586254989453        1.26596683802917       -0.83950280743611
H            2.69647390309933        2.18630336318919        0.08189901527115
H            3.72028670369971       -1.52708852007286        0.07957771551527
H           -1.66071211149317        3.02108476223589       -0.08461501383334
H           -2.80472354529190        1.97593949076534       -0.97656512668044
H           -2.84617509435372        2.00842180857653        0.79055870026553
H           -0.68533972023782       -3.47430565116325       -0.01085567047048
H           -2.41075183154674       -2.71371744788739       -0.01045745375311
H           -4.25340883895192       -2.98956384404185        0.00453293126917
H            1.59322988522425       -2.92227919134412        0.04808652150487

          :  Hamiltonian                  GFN2-xTB          :
         :: total energy             -42.137119324499 Eh    ::
         :: gradient norm              0.003277214658 Eh/a0 ::
         :: HOMO-LUMO gap              0.040700397246 eV    ::
         :: SCC energy               -42.652046893020 Eh    ::
         :: -> dispersion             -0.022870581273 Eh    ::
         :: repulsion energy           0.514847870890 Eh    ::

    * Orbital Energies and Occupations

         #    Occupation            Energy/Eh            Energy/eV
      -------------------------------------------------------------
         1        2.0000           -0.9093389             -24.7444
       ...           ...                  ...                  ...
        25        1.9993           -0.6714261             -18.2704
        26        1.9991           -0.6653613             -18.1054
        27        1.9989           -0.6618457             -18.0097
        28        1.9966           -0.6340715             -17.2540
        29        1.9962           -0.6318561             -17.1937
        30        1.9961           -0.6312444             -17.1770
        31        1.9926           -0.6159397             -16.7606
        32        1.9879           -0.6041497             -16.4397
        33        1.9754           -0.5871052             -15.9759
        34        1.9734           -0.5852720             -15.9261
        35        1.9420           -0.5663507             -15.4112
        36        1.9405           -0.5656966             -15.3934
        37        0.9725           -0.4816329             -13.1059 (HOMO)
        38        0.9410           -0.4801372             -13.0652 (LUMO)
        39        0.2119           -0.4322857             -11.7631
        40        0.0585           -0.3997414             -10.8775
        41        0.0195           -0.3731978             -10.1552
        42        0.0006           -0.2883086              -7.8453
        43        0.0000           -0.2097062              -5.7064
        44        0.0000           -0.1980851              -5.3902
        45        0.0000           -0.1467345              -3.9928
        46        0.0000           -0.1336527              -3.6369
        47                         -0.0658116              -1.7908
        48                         -0.0358197              -0.9747
       ...                                ...                  ...
        67                          0.5414880              14.7346
      -------------------------------------------------------------
                  HL-Gap            0.0014957 Eh            0.0407 eV

     #   Z          covCN         q      C6AA      α(0)
     1   6 C        3.691    -0.093    22.476     6.784
     2   7 N        2.824     0.074    19.956     6.635
     3   6 C        3.037     0.045    26.955     8.516
     4   7 N        2.782    -0.060    22.408     7.031
     5   6 C        3.031     0.090    25.961     8.358
     6   6 C        3.102    -0.014    28.225     8.706
     7   6 C        2.764     0.261    22.608     7.787
     8   8 O        0.858    -0.362    20.927     6.133
     9   7 N        2.744    -0.074    22.678     7.073
    10   6 C        3.712    -0.062    21.838     6.678
    11   6 C        2.736     0.307    21.792     7.643
    12   8 O        0.859    -0.340    20.513     6.072
    13   7 N        2.735     0.009    21.100     6.822
    14   6 C        2.796    -0.060    29.479     8.894
    15   1 H        0.924     0.107     1.724     2.053
    16   1 H        0.924     0.108     1.716     2.048
    17   1 H        0.925     0.137     1.481     1.903
    18   1 H        0.926     0.123     1.588     1.971
    19   1 H        0.925     0.122     1.599     1.978
    20   1 H        0.924     0.105     1.738     2.062
    21   1 H        0.925     0.106     1.730     2.057
    22   1 H        0.927     0.088     1.900     2.156
    23   1 H        0.925     0.133     1.513     1.923
    24   1 H        0.000     0.025     6.633     4.709
    25   1 H        0.860     0.226     0.982     1.552

Wiberg/Mayer (AO) data.
largest (>0.10) Wiberg bond orders for each atom

     #   Z sym  total        # sym  WBO       # sym  WBO       # sym  WBO
 ---------------------------------------------------------------------------
     1   6 C    3.906 --     2 N    0.988    15 H    0.958    17 H    0.957
                            16 H    0.956
     2   7 N    3.611 --     3 C    1.341     6 C    1.156     1 C    0.988
     3   6 C    3.746 --     2 N    1.341     4 N    1.264    18 H    0.954
     4   7 N    3.521 --     3 C    1.264     5 C    1.170    25 H    0.920
     5   6 C    3.848 --     6 C    1.322     4 N    1.170    13 N    1.151
     6   6 C    3.830 --     5 C    1.322     2 N    1.156     7 C    1.092
     7   6 C    3.880 --     8 O    1.637     6 C    1.092     9 N    1.069
     8   8 O    1.915 --     7 C    1.637     9 N    0.121
     9   7 N    3.518 --    11 C    1.158     7 C    1.069    10 C    0.970
                            12 O    0.138     8 O    0.121
    10   6 C    3.885 --     9 N    0.970    19 H    0.959    20 H    0.955
                            21 H    0.955
    11   6 C    3.897 --    12 O    1.693     9 N    1.158    13 N    0.955
    12   8 O    1.995 --    11 C    1.693     9 N    0.138
    13   7 N    3.599 --    14 C    1.283     5 C    1.151    11 C    0.955
    14   6 C    3.272 --    13 N    1.283    22 H    0.968    23 H    0.917
    15   1 H    0.980 --     1 C    0.958
    16   1 H    0.979 --     1 C    0.956
    17   1 H    0.978 --     1 C    0.957
    18   1 H    0.984 --     3 C    0.954
    19   1 H    0.978 --    10 C    0.959
    20   1 H    0.973 --    10 C    0.955
    21   1 H    0.973 --    10 C    0.955
    22   1 H    0.988 --    14 C    0.968
    23   1 H    0.980 --    14 C    0.917
    24   1 H    0.046
    25   1 H    0.948 --     4 N    0.920
 ---------------------------------------------------------------------------

molecular dipole:
                 x           y           z       tot (Debye)
 q only:        2.433      -1.723       0.039
   full:        2.707      -2.261       0.042       8.966

           -------------------------------------------------
          | TOTAL ENERGY              -42.137119324499 Eh   |
          | GRADIENT NORM               0.003277214658 Eh/α |
          | HOMO-LUMO GAP               0.040700397246 eV   |
           -------------------------------------------------

 * finished run on 2024/06/05 at 19:58:47.923
