   * xtb version 6.6.1 (8d0f1dd) compiled by 'conda@1efc2f54142f' on 2023-08-01
          program call               : xtb struc.xyz --opt loose --input .xc1 --gfn2

   ID    Z sym.   atoms
    1    6 C      1, 3, 5-7, 10, 11, 14
    2    7 N      2, 4, 9, 13
    3    8 O      8, 12
    4    1 H      15-25
constraining bond 9 12 to    4.6800000 Å, actual value:    2.2666725 Å

          :  Hamiltonian                  GFN2-xTB          :
 * total energy  :   -31.8486522 Eh     change       -0.6650680E-10 Eh
 * total energy  :   -35.7191072 Eh     change       -0.3870455E+01 Eh
 * total energy  :   -38.6644761 Eh     change       -0.2945369E+01 Eh
 * total energy  :   -40.5488699 Eh     change       -0.1884394E+01 Eh
 * total energy  :   -41.4819359 Eh     change       -0.9330661E+00 Eh
 * total energy  :   -41.6741496 Eh     change       -0.1922136E+00 Eh
 * total energy  :   -41.6877381 Eh     change       -0.1358850E-01 Eh
 * total energy  :   -41.7156365 Eh     change       -0.2789840E-01 Eh
 * total energy  :   -41.7352956 Eh     change       -0.1965911E-01 Eh
 * total energy  :   -41.7488346 Eh     change       -0.1353906E-01 Eh
 * total energy  :   -42.0368840 Eh     change       -0.1356025E-03 Eh
 * total energy  :   -42.0369844 Eh     change       -0.1004124E-03 Eh
 * total energy  :   -42.0371112 Eh     change       -0.1268448E-03 Eh
 * total energy  :   -42.0372038 Eh     change       -0.9261361E-04 Eh
 * total energy  :   -42.0373049 Eh     change       -0.1010389E-03 Eh
 * total energy  :   -42.0373794 Eh     change       -0.7449448E-04 Eh
 * total energy  :   -42.0374515 Eh     change       -0.7209022E-04 Eh
 * total energy  :   -42.0374868 Eh     change       -0.3535899E-04 Eh
 * total energy  :   -42.0375355 Eh     change       -0.4867510E-04 Eh
   *** GEOMETRY OPTIMIZATION CONVERGED AFTER 53 ITERATIONS ***

 final structure:
================
25
 xtb: 6.6.1 (8d0f1dd)
C            2.98536067196592        1.13008077505509       -0.02526109150946
N            2.04928844141274        0.04626944146941       -0.12185883468102
C            2.33550289292056       -1.23305133067030       -0.36575534697608
N            1.20730382864692       -1.94593688491510       -0.36754284880827
C            0.12988917218616       -1.12900363528627       -0.11884489010988
C            0.66236666055906        0.18105677441909        0.06410706222049
C            0.10850108491189        1.39065650691855        0.32066668935010
O            0.55773569460632        2.63627325956470        0.60098463352883
N           -0.83282681921123        2.22504752818195        0.85240638394011
C           -1.82494480081394        2.86748276078221        0.02781404663792
C           -2.19566831733026       -1.09914677554590       -0.68039501605149
O           -3.33730040860697       -1.31995476696764       -0.89139873886136
N           -1.15895574354298       -1.65312021363439       -0.09459527370499
C           -1.31100906833840       -3.01070378175019        0.48162335321321
H            2.95211424878766        1.57246362293574        0.97222278906699
H            3.98853523190261        0.76069641360944       -0.22455600460850
H            2.73585444445805        1.91046290977968       -0.74642283026493
H            3.31747701966587       -1.62864022667056       -0.52893639227885
H           -2.07678809666313        3.81772055439021        0.49595981583296
H           -1.49303702464083        3.03713176431391       -0.99973251581574
H           -2.70311254753470        2.22249108553174        0.03163842791679
H           -0.65914548626046       -3.11008214543694        1.34683956181938
H           -1.08754972670989       -3.77854644554595       -0.26188671051752
H           -2.34504197116829       -3.13170611199689        0.79932197257508
H            1.15588213289660       -2.93970253693094       -0.53522662401368

          :  Hamiltonian                  GFN2-xTB          :
         :: total energy             -42.037535486247 Eh    ::
         :: gradient norm              0.003493088480 Eh/a0 ::
         :: HOMO-LUMO gap              0.452749050640 eV    ::
         :: SCC energy               -42.547621684990 Eh    ::
         :: -> dispersion             -0.020922476364 Eh    ::
         :: repulsion energy           0.509916360009 Eh    ::

    * Orbital Energies and Occupations

         #    Occupation            Energy/Eh            Energy/eV
      -------------------------------------------------------------
         1        2.0000           -0.8959465             -24.3799
       ...           ...                  ...                  ...
        25        2.0000           -0.6744725             -18.3533
        26        2.0000           -0.6670724             -18.1520
        27        2.0000           -0.6651972             -18.1009
        28        2.0000           -0.6530233             -17.7697
        29        2.0000           -0.6384746             -17.3738
        30        1.9999           -0.6303994             -17.1540
        31        1.9999           -0.6173051             -16.7977
        32        1.9998           -0.6085009             -16.5582
        33        1.9997           -0.6048471             -16.4587
        34        1.9995           -0.5937744             -16.1574
        35        1.9980           -0.5721883             -15.5700
        36        1.9827           -0.5383182             -14.6484
        37        1.2357           -0.4708033             -12.8112 (HOMO)
        38        0.7223           -0.4541650             -12.3585 (LUMO)
        39        0.0581           -0.4076191             -11.0919
        40        0.0041           -0.3650491              -9.9335
        41        0.0003           -0.3219228              -8.7600
        42        0.0001           -0.3050772              -8.3016
        43        0.0000           -0.2131402              -5.7998
        44        0.0000           -0.1980949              -5.3904
        45                         -0.1661557              -4.5213
        46                         -0.1146323              -3.1193
        47                         -0.0805348              -2.1915
        48                         -0.0553849              -1.5071
       ...                                ...                  ...
        67                          0.6286341              17.1060
      -------------------------------------------------------------
                  HL-Gap            0.0166382 Eh            0.4527 eV

     #   Z          covCN         q      C6AA      α(0)
     1   6 C        3.691    -0.082    22.262     6.752
     2   7 N        2.833     0.043    20.482     6.722
     3   6 C        2.977     0.050    26.876     8.504
     4   7 N        2.789    -0.051    22.228     7.002
     5   6 C        2.989     0.062    26.608     8.462
     6   6 C        3.031     0.009    27.778     8.645
     7   6 C        2.760     0.164    24.443     8.096
     8   8 O        1.748    -0.232    17.843     5.704
     9   7 N        2.712    -0.018    21.593     6.902
    10   6 C        3.690    -0.055    21.765     6.677
    11   6 C        1.800     0.209    26.260     8.282
    12   8 O        0.856    -0.197    18.011     5.690
    13   7 N        2.728    -0.010    21.456     6.880
    14   6 C        3.703    -0.074    22.083     6.719
    15   1 H        0.924     0.110     1.694     2.036
    16   1 H        0.925     0.097     1.815     2.107
    17   1 H        0.924     0.107     1.725     2.054
    18   1 H        0.926     0.115     1.652     2.010
    19   1 H        0.925     0.100     1.789     2.092
    20   1 H        0.924     0.065     2.136     2.286
    21   1 H        0.925     0.084     1.935     2.175
    22   1 H        0.925     0.091     1.871     2.139
    23   1 H        0.924     0.083     1.952     2.185
    24   1 H        0.925     0.108     1.716     2.048
    25   1 H        0.860     0.223     0.996     1.563

Wiberg/Mayer (AO) data.
largest (>0.10) Wiberg bond orders for each atom

     #   Z sym  total        # sym  WBO       # sym  WBO       # sym  WBO
 ---------------------------------------------------------------------------
     1   6 C    3.931 --     2 N    0.995    16 H    0.974    17 H    0.960
                            15 H    0.958
     2   7 N    3.571 --     3 C    1.335     6 C    1.070     1 C    0.995
     3   6 C    3.817 --     2 N    1.335     4 N    1.316    18 H    0.953
                             5 C    0.110
     4   7 N    3.587 --     3 C    1.316     5 C    1.172    25 H    0.920
     5   6 C    3.669 --     6 C    1.217     4 N    1.172    13 N    1.068
                             3 C    0.110
     6   6 C    3.920 --     7 C    1.410     5 C    1.217     2 N    1.070
     7   6 C    3.574 --     6 C    1.410     9 N    1.063     8 O    0.998
     8   8 O    2.007 --     7 C    0.998     9 N    0.887
     9   7 N    3.029 --     7 C    1.063    10 C    1.001     8 O    0.887
    10   6 C    3.941 --     9 N    1.001    20 H    0.972    19 H    0.970
                            21 H    0.960
    11   6 C    3.294 --    12 O    1.917    13 N    1.312
    12   8 O    2.107 --    11 C    1.917    13 N    0.148
    13   7 N    3.514 --    11 C    1.312     5 C    1.068    14 C    0.918
                            12 O    0.148
    14   6 C    3.875 --    22 H    0.974    24 H    0.973    23 H    0.973
                            13 N    0.918
    15   1 H    0.982 --     1 C    0.958
    16   1 H    0.990 --     1 C    0.974
    17   1 H    0.983 --     1 C    0.960
    18   1 H    0.985 --     3 C    0.953
    19   1 H    0.988 --    10 C    0.970
    20   1 H    0.989 --    10 C    0.972
    21   1 H    0.993 --    10 C    0.960
    22   1 H    0.987 --    14 C    0.974
    23   1 H    0.992 --    14 C    0.973
    24   1 H    0.986 --    14 C    0.973
    25   1 H    0.950 --     4 N    0.920
 ---------------------------------------------------------------------------

molecular dipole:
                 x           y           z       tot (Debye)
 q only:        1.761      -1.870      -0.219
   full:        1.954      -2.149      -0.474       7.479

           -------------------------------------------------
          | TOTAL ENERGY              -42.037535486247 Eh   |
          | GRADIENT NORM               0.003493088480 Eh/α |
          | HOMO-LUMO GAP               0.452749050640 eV   |
           -------------------------------------------------

 * finished run on 2024/06/05 at 19:57:59.331
