   * xtb version 6.6.1 (8d0f1dd) compiled by 'conda@1efc2f54142f' on 2023-08-01
          program call               : xtb struc.xyz --opt loose --input .xc1 --gfn2

   ID    Z sym.   atoms
    1    6 C      1, 3, 5-7, 10, 11, 14
    2    7 N      2, 4, 9, 13
    3    8 O      8, 12
    4    1 H      15-25
constraining bond 10 13 to    5.9200000 Å, actual value:    3.6911810 Å

          :  Hamiltonian                  GFN2-xTB          :
 * total energy  :   -33.3779884 Eh     change       -0.6650680E-10 Eh
 * total energy  :   -37.1225517 Eh     change       -0.3744563E+01 Eh
 * total energy  :   -39.7462823 Eh     change       -0.2623731E+01 Eh
 * total energy  :   -41.2289459 Eh     change       -0.1482664E+01 Eh
 * total energy  :   -41.7453084 Eh     change       -0.5163626E+00 Eh
 * total energy  :   -41.8281556 Eh     change       -0.8284712E-01 Eh
 * total energy  :   -41.8778580 Eh     change       -0.4970240E-01 Eh
 * total energy  :   -41.9485519 Eh     change       -0.7069392E-01 Eh
 * total energy  :   -41.9868397 Eh     change       -0.3828781E-01 Eh
 * total energy  :   -42.0087892 Eh     change       -0.2194946E-01 Eh
 * total energy  :   -42.1110659 Eh     change       -0.3357319E-02 Eh
 * total energy  :   -42.1143585 Eh     change       -0.3292612E-02 Eh
 * total energy  :   -42.1176359 Eh     change       -0.3277354E-02 Eh
 * total energy  :   -42.1189760 Eh     change       -0.1340102E-02 Eh
 * total energy  :   -42.1192699 Eh     change       -0.2938988E-03 Eh
 * total energy  :   -42.1195203 Eh     change       -0.2504788E-03 Eh
 * total energy  :   -42.1196392 Eh     change       -0.1188321E-03 Eh
 * total energy  :   -42.1196998 Eh     change       -0.6057851E-04 Eh
 * total energy  :   -42.1197354 Eh     change       -0.3561772E-04 Eh
   *** GEOMETRY OPTIMIZATION CONVERGED AFTER 50 ITERATIONS ***

 final structure:
================
25
 xtb: 6.6.1 (8d0f1dd)
C            2.94846779296679        1.18482905117177        0.00758638255872
N            2.16850889060540       -0.02358550025722       -0.01076362683499
C            2.62037400201770       -1.26734805848821       -0.01790863670063
N            1.58274422187959       -2.13246201898098       -0.01485215606753
C            0.42232876560744       -1.40417471318973       -0.00464236595127
C            0.80062016627056       -0.06660462488918       -0.00084366195982
C           -0.22342855946540        0.99521213286283       -0.01750521867820
O            0.05730661853003        2.18081249483298       -0.04718718009437
N           -1.46375528308201        0.49638301730661       -0.00236206508045
C           -2.34948543383984        3.91149064185618        0.03719317665865
C           -1.87876635177627       -0.76487730346789        0.00572317314213
O           -3.02309757244263       -1.12628251484703        0.01723231386652
N           -0.84402185878524       -1.81332964454087       -0.00515282667344
C           -1.24389721751624       -3.19789884299860       -0.00809753221680
H            3.22681747601126        1.43700595317207        1.03268676970475
H            3.85190603436534        1.06126875711718       -0.58612807463198
H            2.34046945451481        1.99836777100770       -0.38889263301777
H            3.65300230858044       -1.55674701369184       -0.02633089811586
H           -1.28357311822400        4.04828406639166        0.05404301083667
H           -2.87043535692916        3.84459604083778       -0.89861138105209
H           -2.89444041310159        3.78347560709727        0.95312523650081
H           -0.87785951803687       -3.71084928462890        0.88312196023290
H           -0.88255134180795       -3.70473021591238       -0.90497886357384
H           -2.33421668946663       -3.21473757288634       -0.00571828629178
H            1.65741449722948       -3.13985968326491       -0.01956499865687

          :  Hamiltonian                  GFN2-xTB          :
         :: total energy             -42.119735376643 Eh    ::
         :: gradient norm              0.002990622985 Eh/a0 ::
         :: HOMO-LUMO gap              1.106333642427 eV    ::
         :: SCC energy               -42.651082426370 Eh    ::
         :: -> dispersion             -0.021218908377 Eh    ::
         :: repulsion energy           0.531296962961 Eh    ::

    * Orbital Energies and Occupations

         #    Occupation            Energy/Eh            Energy/eV
      -------------------------------------------------------------
         1        2.0000           -0.9110041             -24.7897
       ...           ...                  ...                  ...
        25        1.9998           -0.6534079             -17.7801
        26        1.9998           -0.6474385             -17.6177
        27        1.9995           -0.6360710             -17.3084
        28        1.9986           -0.6187054             -16.8358
        29        1.9984           -0.6163118             -16.7707
        30        1.9983           -0.6154716             -16.7478
        31        1.9980           -0.6131487             -16.6846
        32        1.9978           -0.6112559             -16.6331
        33        1.9709           -0.5702875             -15.5183
        34        1.9119           -0.5522720             -15.0281
        35        1.9054           -0.5511034             -14.9963
        36        1.8636           -0.5449439             -14.8287
        37        1.7122           -0.5317865             -14.4706 (HOMO)
        38        0.6268           -0.4911294             -13.3643 (LUMO)
        39        0.0176           -0.4287319             -11.6664
        40        0.0014           -0.3883535             -10.5676
        41        0.0002           -0.3580660              -9.7435
        42        0.0000           -0.2620555              -7.1309
        43                         -0.1965868              -5.3494
        44                         -0.1748235              -4.7572
        45                         -0.1395534              -3.7974
        46                         -0.0833557              -2.2682
        47                         -0.0576046              -1.5675
        48                         -0.0354117              -0.9636
       ...                                ...                  ...
        67                          0.5701627              15.5149
      -------------------------------------------------------------
                  HL-Gap            0.0406570 Eh            1.1063 eV

     #   Z          covCN         q      C6AA      α(0)
     1   6 C        3.692    -0.091    22.428     6.776
     2   7 N        2.834     0.088    19.710     6.594
     3   6 C        3.058     0.057    26.671     8.469
     4   7 N        2.798    -0.065    22.490     7.043
     5   6 C        3.030     0.123    25.265     8.245
     6   6 C        3.132    -0.018    28.251     8.701
     7   6 C        2.762     0.296    21.978     7.677
     8   8 O        0.858    -0.372    21.130     6.163
     9   7 N        1.843    -0.250    27.368     7.753
    10   6 C        2.779    -0.063    29.556     8.904
    11   6 C        2.708     0.338    21.249     7.545
    12   8 O        0.860    -0.326    20.258     6.035
    13   7 N        2.735    -0.070    22.589     7.059
    14   6 C        3.693    -0.067    21.971     6.707
    15   1 H        0.924     0.113     1.671     2.021
    16   1 H        0.925     0.104     1.753     2.070
    17   1 H        0.924     0.135     1.495     1.912
    18   1 H        0.926     0.125     1.575     1.962
    19   1 H        0.926     0.152     1.376     1.834
    20   1 H        0.926     0.135     1.499     1.915
    21   1 H        0.926     0.134     1.501     1.916
    22   1 H        0.924     0.081     1.966     2.193
    23   1 H        0.924     0.081     1.966     2.193
    24   1 H        0.924     0.129     1.546     1.945
    25   1 H        0.860     0.229     0.967     1.541

Wiberg/Mayer (AO) data.
largest (>0.10) Wiberg bond orders for each atom

     #   Z sym  total        # sym  WBO       # sym  WBO       # sym  WBO
 ---------------------------------------------------------------------------
     1   6 C    3.913 --     2 N    0.985    16 H    0.969    17 H    0.958
                            15 H    0.952
     2   7 N    3.716 --     3 C    1.407     6 C    1.178     1 C    0.985
     3   6 C    3.885 --     2 N    1.407     4 N    1.283    18 H    0.952
     4   7 N    3.589 --     3 C    1.283     5 C    1.170    25 H    0.919
     5   6 C    3.951 --     6 C    1.333    13 N    1.272     4 N    1.170
     6   6 C    3.814 --     5 C    1.333     2 N    1.178     7 C    1.001
     7   6 C    3.948 --     8 O    1.610     9 N    1.253     6 C    1.001
     8   8 O    1.921 --     7 C    1.610     9 N    0.135
     9   7 N    2.871 --    11 C    1.270     7 C    1.253     8 O    0.135
                            12 O    0.112
    10   6 C    2.948 --    21 H    0.979    20 H    0.979    19 H    0.968
    11   6 C    3.946 --    12 O    1.689     9 N    1.270    13 N    0.907
    12   8 O    1.987 --    11 C    1.689     9 N    0.112
    13   7 N    3.464 --     5 C    1.272    14 C    0.987    11 C    0.907
    14   6 C    3.916 --    13 N    0.987    22 H    0.963    23 H    0.963
                            24 H    0.959
    15   1 H    0.985 --     1 C    0.952
    16   1 H    0.988 --     1 C    0.969
    17   1 H    0.980 --     1 C    0.958
    18   1 H    0.983 --     3 C    0.952
    19   1 H    0.974 --    10 C    0.968
    20   1 H    0.980 --    10 C    0.979
    21   1 H    0.980 --    10 C    0.979
    22   1 H    0.981 --    14 C    0.963
    23   1 H    0.981 --    14 C    0.963
    24   1 H    0.981 --    14 C    0.959
    25   1 H    0.947 --     4 N    0.919
 ---------------------------------------------------------------------------

molecular dipole:
                 x           y           z       tot (Debye)
 q only:        2.700      -0.756       0.026
   full:        3.215      -1.410       0.036       8.923

           -------------------------------------------------
          | TOTAL ENERGY              -42.119735376643 Eh   |
          | GRADIENT NORM               0.002990622985 Eh/α |
          | HOMO-LUMO GAP               1.106333642427 eV   |
           -------------------------------------------------

 * finished run on 2024/06/05 at 19:58:01.624
