   * xtb version 6.6.1 (8d0f1dd) compiled by 'conda@1efc2f54142f' on 2023-08-01
          program call               : xtb struc.xyz --opt loose --input .xc1 --gfn2

   ID    Z sym.   atoms
    1    7 N      1, 17
    2    6 C      2-6, 8, 9, 11-16, 18-23, 25, 26, 28-33
    3    8 O      7, 10, 24, 27
    4    1 H      34-72
constraining bond 1 48 to    6.6866700 Å, actual value:    3.8607231 Å

          :  Hamiltonian                  GFN2-xTB          :
 * total energy  :  -100.8300526 Eh     change       -0.4035485E-08 Eh
 * total energy  :  -101.5672167 Eh     change       -0.7371642E+00 Eh
 * total energy  :  -102.4220318 Eh     change       -0.8548151E+00 Eh
 * total energy  :  -103.4029056 Eh     change       -0.9808738E+00 Eh
 * total energy  :  -104.6012263 Eh     change       -0.1198321E+01 Eh
 * total energy  :  -104.7402861 Eh     change       -0.1390598E+00 Eh
 * total energy  :  -105.2010829 Eh     change       -0.4607968E+00 Eh
 * total energy  :  -105.3574328 Eh     change       -0.1563499E+00 Eh
 * total energy  :  -105.4466389 Eh     change       -0.8920610E-01 Eh
 * total energy  :  -105.4857584 Eh     change       -0.3911950E-01 Eh
 * total energy  :  -105.6773421 Eh     change       -0.1205294E-03 Eh
 * total energy  :  -105.6774391 Eh     change       -0.9701271E-04 Eh
 * total energy  :  -105.6775156 Eh     change       -0.7650715E-04 Eh
 * total energy  :  -105.6775816 Eh     change       -0.6595966E-04 Eh
 * total energy  :  -105.6776226 Eh     change       -0.4108917E-04 Eh
 * total energy  :  -105.6776603 Eh     change       -0.3768305E-04 Eh
 * total energy  :  -105.6776777 Eh     change       -0.1741348E-04 Eh
 * total energy  :  -105.6776951 Eh     change       -0.1732482E-04 Eh
 * total energy  :  -105.6777162 Eh     change       -0.2108565E-04 Eh
   *** GEOMETRY OPTIMIZATION CONVERGED AFTER 105 ITERATIONS ***

 final structure:
================
72
 xtb: 6.6.1 (8d0f1dd)
N           -0.17511203108694        2.41284527100297       -0.46656651484730
C           -0.97607172143023        1.21324959579788       -0.29536910694877
C           -2.52835337518680        1.37260393795976       -0.37334142359956
C           -3.22432730086193        0.10078434565095        0.11515604896700
C           -4.61053560917047        0.01290916085053       -0.04884332569901
C           -5.33475535339837       -1.09388721463629        0.35696074501133
O           -6.67031342580874       -1.24073292794182        0.23564062926961
C           -7.43660221856212       -0.19076277499213       -0.30522542190546
C           -4.65679313072798       -2.19021852965645        0.95274221498704
O           -5.43443188965066       -3.22700659492157        1.32121333209737
C           -4.84204462486671       -4.33780354665964        1.95217969913842
C           -3.28312234391710       -2.10992887921386        1.09980112842905
C           -2.57942312312284       -0.98472800128165        0.68695400615955
C           -2.73233996357320        1.44027077087408       -1.90015994175420
C           -1.83310900736475        0.31244249299033       -2.41791737770005
C           -0.71474453180998        0.27139447922452       -1.43700604435242
N            0.37388312380175       -0.45966116363326       -1.59727477471081
C            1.54351818901711       -0.33745114064024       -0.75730101866202
C            2.69552710876975        0.36499781274385       -1.49851082101227
C            3.90886756506907        0.47623354446961       -0.61738975649221
C            4.34463109293841        1.70365512912315       -0.15011068457579
C            5.47973790440404        1.80034847773036        0.64170041276297
C            6.19281206278580        0.66546924152113        0.99724578711970
O            7.30644849926924        0.63983973674782        1.75379231984600
C            7.85741924552724        1.85547485163642        2.20498712728304
C            5.74099984393296       -0.60260606285683        0.54023290296247
O            6.48226245488813       -1.65521426808768        0.94335063437195
C            6.09961156590229       -2.95344197120604        0.55834247765308
C            4.61527782199265       -0.67262202757617       -0.26339452909861
C            0.49404083962444       -1.33741922983164       -2.73837900513029
C           -3.09867559875229        2.56572408894266        0.43735240943953
C           -2.60152288638079        2.51408150712812        1.88339650888971
C           -2.86838566838900        3.95681421548581       -0.15303961097488
H           -5.14061431414271        0.83410408424644       -0.50368617069635
H           -7.33973554450505        0.72432705750588        0.28825265285965
H           -8.46925297712290       -0.53449444333792       -0.26873712947745
H           -7.16172878583113        0.01433129640840       -1.34525982116345
H           -4.34485926244241       -4.05100287622001        2.88339962640192
H           -5.66135521004280       -5.01831626248484        2.17578143475548
H           -4.12565141615792       -4.83846571752340        1.29386940694319
H           -2.73648300665951       -2.92501499076949        1.54540682286689
H           -1.51365206195306       -0.99917005712757        0.83774735409074
H           -3.76885587520287        1.30690359121657       -2.19681840876957
H           -2.38510136150104        2.39595208274045       -2.29083551973217
H           -2.37885521494669       -0.63687027273183       -2.42001204373262
H           -1.48183489442523        0.48777759244748       -3.43723721151442
H           -0.68507882136715        0.80633699542079        0.67562559789957
H           -0.06144777155221        2.79943757129284        0.07086156656578
H            1.86049339225173       -1.33774177844843       -0.44853060880551
H            1.30059214317197        0.24249418443885        0.13052584018728
H            2.36303963841285        1.35982661784720       -1.79622626992748
H            2.95218596572804       -0.19962619664754       -2.39693553222796
H            3.80927590028802        2.60256072624245       -0.41386205113700
H            5.80394188601445        2.77200067520092        0.97548491931027
H            7.16776559508906        2.38680900009439        2.86775405994179
H            8.13436570436977        2.50418791601892        1.36860662732342
H            8.75232833010683        1.58136017318806        2.75990523255510
H            6.83165994026412       -3.62108268992433        1.00831446766692
H            5.10244745728141       -3.20563137948863        0.93463804810706
H            6.12250670824929       -3.07544833235265       -0.52980915091159
H            4.28535164837009       -1.62848362812079       -0.63925112455913
H            0.70105608467250       -0.77565644052165       -3.65242290490543
H           -0.42906769836437       -1.89798660167517       -2.88198550821331
H            1.30644335297349       -2.04025570549512       -2.57024044554522
H           -4.18269154305669        2.42535380426643        0.46955751613328
H           -1.54728628650522        2.76995257810415        1.95451097077251
H           -2.75146848952765        1.52234257411604        2.30406221693939
H           -3.15616520763185        3.22664322452661        2.48772103118177
H           -1.81827979400607        4.22953978411958       -0.18365583283545
H           -3.28649062764352        4.03997248483379       -1.15245570700384
H           -3.37552020310738        4.68529485698687        0.47541225381690
H           -0.31983529640607        2.84622369728726       -1.36943038953533

          :  Hamiltonian                  GFN2-xTB          :
         :: total energy            -105.677716161345 Eh    ::
         :: gradient norm              0.002748024860 Eh/a0 ::
         :: HOMO-LUMO gap              1.747886906374 eV    ::
         :: SCC energy              -100.846868828833 Eh    ::
         :: -> dispersion             -0.076335200978 Eh    ::
         :: repulsion energy           1.627953366782 Eh    ::

    * Orbital Energies and Occupations

         #    Occupation            Energy/Eh            Energy/eV
      -------------------------------------------------------------
         1        2.0000           -0.8037841             -21.8721
       ...           ...                  ...                  ...
        78        1.9990           -0.5323365             -14.4856
        79        1.9987           -0.5290522             -14.3962
        80        1.9985           -0.5257499             -14.3064
        81        1.9983           -0.5241889             -14.2639
        82        1.9981           -0.5225532             -14.2194
        83        1.9977           -0.5196620             -14.1407
        84        1.9972           -0.5162849             -14.0488
        85        1.9964           -0.5125041             -13.9459
        86        1.9800           -0.4850288             -13.1983
        87        1.9793           -0.4845286             -13.1847
        88        1.9563           -0.4724701             -12.8566
        89        1.8730           -0.4548916             -12.3782
        90        1.8564           -0.4528159             -12.3217 (HOMO)
        91        0.3657           -0.3885822             -10.5739 (LUMO)
        92        0.0033           -0.3109329              -8.4609
        93        0.0030           -0.3090947              -8.4109
        94        0.0028           -0.3081684              -8.3857
        95        0.0024           -0.3055034              -8.3132
        96        0.0000           -0.1852129              -5.0399
        97        0.0000           -0.1831976              -4.9851
        98                         -0.1347479              -3.6667
        99                         -0.0883643              -2.4045
       100                         -0.0774968              -2.1088
       101                         -0.0602099              -1.6384
       ...                                ...                  ...
       171                          1.4166715              38.5496
      -------------------------------------------------------------
                  HL-Gap            0.0642337 Eh            1.7479 eV

     #   Z          covCN         q      C6AA      α(0)
     1   7 N        2.635    -0.356    29.171     8.021
     2   6 C        3.809     0.041    19.875     6.346
     3   6 C        3.938    -0.003    20.570     6.445
     4   6 C        2.971    -0.006    28.171     8.706
     5   6 C        2.924    -0.078    29.958     8.976
     6   6 C        2.862     0.131    25.126     8.216
     7   8 O        1.706    -0.229    17.796     5.696
     8   6 C        3.644     0.028    20.443     6.499
     9   6 C        2.864     0.131    25.130     8.217
    10   8 O        1.706    -0.227    17.768     5.691
    11   6 C        3.646     0.027    20.449     6.499
    12   6 C        2.914    -0.073    29.816     8.954
    13   6 C        2.922    -0.056    29.384     8.889
    14   6 C        3.845    -0.066    21.740     6.632
    15   6 C        3.824    -0.071    21.834     6.649
    16   6 C        2.943     0.049    26.892     8.505
    17   7 N        2.730     0.016    20.977     6.802
    18   6 C        3.752    -0.020    20.996     6.534
    19   6 C        3.808    -0.072    21.878     6.658
    20   6 C        2.968     0.000    28.022     8.683
    21   6 C        2.922    -0.048    29.203     8.862
    22   6 C        2.914    -0.068    29.692     8.935
    23   6 C        2.865     0.133    25.095     8.211
    24   8 O        1.706    -0.224    17.719     5.683
    25   6 C        3.645     0.025    20.479     6.504
    26   6 C        2.863     0.132    25.108     8.213
    27   8 O        1.706    -0.227    17.767     5.691
    28   6 C        3.645     0.028    20.434     6.497
    29   6 C        2.920    -0.081    30.029     8.986
    30   6 C        3.706    -0.073    22.053     6.713
    31   6 C        3.852    -0.015    20.811     6.489
    32   6 C        3.755    -0.111    22.672     6.789
    33   6 C        3.753    -0.113    22.713     6.796
    34   1 H        0.926     0.051     2.310     2.377
    35   1 H        0.924     0.052     2.301     2.372
    36   1 H        0.925     0.081     1.971     2.195
    37   1 H        0.924     0.049     2.338     2.391
    38   1 H        0.924     0.053     2.287     2.365
    39   1 H        0.925     0.081     1.972     2.196
    40   1 H        0.924     0.050     2.322     2.383
    41   1 H        0.926     0.050     2.321     2.383
    42   1 H        0.926     0.030     2.593     2.518
    43   1 H        0.925     0.053     2.279     2.361
    44   1 H        0.925     0.053     2.278     2.360
    45   1 H        0.924     0.072     2.062     2.246
    46   1 H        0.924     0.069     2.098     2.265
    47   1 H        0.924     0.057     2.231     2.336
    48   1 H        0.863     0.207     1.069     1.619
    49   1 H        0.924     0.067     2.119     2.276
    50   1 H        0.925     0.079     1.992     2.207
    51   1 H        0.924     0.060     2.197     2.318
    52   1 H        0.924     0.057     2.229     2.335
    53   1 H        0.926     0.048     2.346     2.395
    54   1 H        0.926     0.058     2.226     2.333
    55   1 H        0.924     0.054     2.277     2.360
    56   1 H        0.924     0.055     2.261     2.351
    57   1 H        0.925     0.081     1.966     2.193
    58   1 H        0.925     0.081     1.972     2.196
    59   1 H        0.924     0.046     2.365     2.405
    60   1 H        0.924     0.051     2.313     2.378
    61   1 H        0.926     0.043     2.405     2.425
    62   1 H        0.924     0.079     1.988     2.205
    63   1 H        0.925     0.080     1.980     2.201
    64   1 H        0.925     0.084     1.942     2.179
    65   1 H        0.924     0.045     2.386     2.416
    66   1 H        0.925     0.037     2.493     2.469
    67   1 H        0.925     0.038     2.477     2.461
    68   1 H        0.925     0.049     2.335     2.390
    69   1 H        0.925     0.041     2.433     2.439
    70   1 H        0.925     0.038     2.470     2.458
    71   1 H        0.925     0.049     2.329     2.386
    72   1 H        0.860     0.150     1.401     1.854

Wiberg/Mayer (AO) data.
largest (>0.10) Wiberg bond orders for each atom

     #   Z sym  total        # sym  WBO       # sym  WBO       # sym  WBO
 ---------------------------------------------------------------------------
     1   7 N    3.006 --     2 C    1.009    72 H    0.959    48 H    0.947
     2   6 C    3.977 --     1 N    1.009    16 C    0.998    47 H    0.942
                             3 C    0.941
     3   6 C    3.974 --     4 C    0.980    14 C    0.975    31 C    0.962
                             2 C    0.941
     4   6 C    3.949 --    13 C    1.423     5 C    1.369     3 C    0.980
     5   6 C    3.961 --     6 C    1.404     4 C    1.369    34 H    0.955
     6   6 C    3.905 --     5 C    1.404     9 C    1.220     7 O    1.100
     7   8 O    2.255 --     6 C    1.100     8 C    0.979
     8   6 C    3.933 --     7 O    0.979    36 H    0.977    35 H    0.973
                            37 H    0.973
     9   6 C    3.903 --    12 C    1.395     6 C    1.220    10 O    1.103
    10   8 O    2.254 --     9 C    1.103    11 C    0.978
    11   6 C    3.932 --    10 O    0.978    39 H    0.977    38 H    0.974
                            40 H    0.974
    12   6 C    3.961 --    13 C    1.401     9 C    1.395    41 H    0.964
    13   6 C    3.955 --     4 C    1.423    12 C    1.401    42 H    0.963
    14   6 C    3.987 --    15 C    0.999     3 C    0.975    43 H    0.974
                            44 H    0.970
    15   6 C    3.989 --    16 C    1.040    14 C    0.999    46 H    0.950
                            45 H    0.936
    16   6 C    3.609 --    17 N    1.422    15 C    1.040     2 C    0.998
    17   7 N    3.499 --    16 C    1.422    30 C    0.997    18 C    0.984
    18   6 C    3.952 --    17 N    0.984    19 C    0.969    50 H    0.964
                            49 H    0.961
    19   6 C    3.978 --    20 C    1.007    51 H    0.974    18 C    0.969
                            52 H    0.965
    20   6 C    3.946 --    21 C    1.416    29 C    1.374    19 C    1.007
    21   6 C    3.951 --    20 C    1.416    22 C    1.411    53 H    0.967
    22   6 C    3.960 --    21 C    1.411    23 C    1.388    54 H    0.963
    23   6 C    3.898 --    22 C    1.388    26 C    1.220    24 O    1.107
    24   8 O    2.254 --    23 C    1.107    25 C    0.976
    25   6 C    3.929 --    57 H    0.977    24 O    0.976    56 H    0.973
                            55 H    0.973
    26   6 C    3.901 --    29 C    1.401    23 C    1.220    27 O    1.099
    27   8 O    2.253 --    26 C    1.099    28 C    0.980
    28   6 C    3.934 --    27 O    0.980    58 H    0.977    59 H    0.974
                            60 H    0.973
    29   6 C    3.960 --    26 C    1.401    20 C    1.374    61 H    0.962
    30   6 C    3.957 --    17 N    0.997    64 H    0.976    63 H    0.970
                            62 H    0.963
    31   6 C    3.984 --    33 C    1.008    32 C    1.006     3 C    0.962
                            65 H    0.958
    32   6 C    3.991 --    31 C    1.006    68 H    0.984    66 H    0.984
                            67 H    0.984
    33   6 C    3.990 --    31 C    1.008    70 H    0.983    71 H    0.982
                            69 H    0.980
    34   1 H    0.996 --     5 C    0.955
    35   1 H    0.993 --     8 C    0.973
    36   1 H    0.993 --     8 C    0.977
    37   1 H    0.994 --     8 C    0.973
    38   1 H    0.993 --    11 C    0.974
    39   1 H    0.993 --    11 C    0.977
    40   1 H    0.993 --    11 C    0.974
    41   1 H    0.996 --    12 C    0.964
    42   1 H    0.998 --    13 C    0.963
    43   1 H    0.996 --    14 C    0.974
    44   1 H    0.996 --    14 C    0.970
    45   1 H    0.976 --    15 C    0.936
    46   1 H    0.983 --    15 C    0.950
    47   1 H    0.989 --     2 C    0.942
    48   1 H    0.956 --     1 N    0.947
    49   1 H    0.991 --    18 C    0.961
    50   1 H    0.993 --    18 C    0.964
    51   1 H    0.996 --    19 C    0.974
    52   1 H    0.994 --    19 C    0.965
    53   1 H    0.997 --    21 C    0.967
    54   1 H    0.995 --    22 C    0.963
    55   1 H    0.992 --    25 C    0.973
    56   1 H    0.992 --    25 C    0.973
    57   1 H    0.993 --    25 C    0.977
    58   1 H    0.993 --    28 C    0.977
    59   1 H    0.994 --    28 C    0.974
    60   1 H    0.993 --    28 C    0.973
    61   1 H    0.997 --    29 C    0.962
    62   1 H    0.985 --    30 C    0.963
    63   1 H    0.990 --    30 C    0.970
    64   1 H    0.992 --    30 C    0.976
    65   1 H    0.995 --    31 C    0.958
    66   1 H    0.998 --    32 C    0.984
    67   1 H    0.998 --    32 C    0.984
    68   1 H    0.997 --    32 C    0.984
    69   1 H    0.997 --    33 C    0.980
    70   1 H    0.998 --    33 C    0.983
    71   1 H    0.996 --    33 C    0.982
    72   1 H    0.977 --     1 N    0.959
 ---------------------------------------------------------------------------

molecular dipole:
                 x           y           z       tot (Debye)
 q only:        0.311      -0.056      -1.307
   full:        0.147       0.089      -1.419       3.633

           -------------------------------------------------
          | TOTAL ENERGY             -105.677716161345 Eh   |
          | GRADIENT NORM               0.002748024860 Eh/α |
          | HOMO-LUMO GAP               1.747886906374 eV   |
           -------------------------------------------------

 * finished run on 2024/04/06 at 11:15:35.812
