   * xtb version 6.6.1 (8d0f1dd) compiled by 'conda@1efc2f54142f' on 2023-08-01
          program call               : xtb xtbopt.xyz --opt crude --input .xc2 --gfn2

   ID    Z sym.   atoms
    1    7 N      1, 17
    2    6 C      2-6, 8, 9, 11-16, 18-23, 25, 26, 28-33
    3    8 O      7, 10, 24, 27
    4    1 H      34-72
########################################################################
[WARNING] Please study the warnings concerning your input carefully
-1- readin_getIntValue: could not parse ''
########################################################################

          :  Hamiltonian                  GFN2-xTB          :
 * total energy  :   -99.2177194 Eh     change        0.4263256E-13 Eh
 * total energy  :   -99.4438490 Eh     change       -0.2261296E+00 Eh
 * total energy  :   -99.4475035 Eh     change       -0.3654436E-02 Eh
 * total energy  :   -99.4482903 Eh     change       -0.7868839E-03 Eh
 * total energy  :   -99.4485948 Eh     change       -0.3044303E-03 Eh
   *** GEOMETRY OPTIMIZATION CONVERGED AFTER 5 ITERATIONS ***

 final structure:
================
72
 xtb: 6.6.1 (8d0f1dd)
N           -0.11548144341545        2.36259882538141       -0.53723870519319
C           -0.96969201129314        1.20810905943556       -0.30516574692923
C           -2.52256182618442        1.37490352213207       -0.38009916235620
C           -3.21905123209590        0.10371688157601        0.11311410881987
C           -4.60570822610679        0.01534867945878       -0.05090289089605
C           -5.33023417202071       -1.09121120430635        0.35583128360221
O           -6.66568873145174       -1.23910688162276        0.23476128095990
C           -7.43381234103315       -0.19080496292891       -0.30628114387102
C           -4.65261139915251       -2.18693413110016        0.95306022259349
O           -5.43084539821792       -3.22334437282456        1.32173482689494
C           -4.83923595117543       -4.33504165047624        1.95234182117436
C           -3.27909819762077       -2.10554724366773        1.10154345116627
C           -2.57483943543423       -0.98042344526034        0.68800058831523
C           -2.73212837047924        1.43411976935555       -1.90663585435894
C           -1.84122175140268        0.29715153499534       -2.42205291548409
C           -0.72395251851102        0.24676628546552       -1.43968318733622
N            0.36760986876985       -0.47724079966875       -1.60062335619022
C            1.53631050941795       -0.35220768014785       -0.75900806515352
C            2.68581076131155        0.35780959774528       -1.49667161112058
C            3.89970269358755        0.47105882053376       -0.61557514546863
C            4.33276678932121        1.69951380519480       -0.14731864676097
C            5.46894125146628        1.79928789788566        0.64289186093439
C            6.18646397167313        0.66640687685007        0.99665126491357
O            7.30153243178679        0.64321783245884        1.75183351036572
C            7.85014119431101        1.85884836464807        2.20615076520867
C            5.73777731370228       -0.60295047109352        0.53845966931101
O            6.48291785982821       -1.65380033217559        0.94005211129257
C            6.10572454784284       -2.95266775573605        0.55280991418971
C            4.61140036065687       -0.67554794609983       -0.26391740832994
C            0.49298511419616       -1.35036922166194       -2.74483062860526
C           -3.09349983065353        2.56717893119766        0.43080522296268
C           -2.59708244374356        2.51281679065843        1.87722353030233
C           -2.86222343374381        3.95860124547991       -0.15833346474274
H           -5.13663476700547        0.83498510090918       -0.50732697120624
H           -7.33905396401189        0.72440027282801        0.28617117987727
H           -8.46507274259416       -0.53635434464808       -0.26992356573520
H           -7.15998950070271        0.01453682477950       -1.34610942967774
H           -4.34251241654899       -4.04987042724935        2.88473655022305
H           -5.65902938810789       -5.01552474161175        2.17424183692609
H           -4.12206019887106       -4.83542812780927        1.29396126442748
H           -2.73284258394716       -2.92029397642319        1.54853219566356
H           -1.50825826363687       -0.99359313668862        0.83907162601671
H           -3.77044485795377        1.30537024708417       -2.19844039029325
H           -2.38200684145217        2.38518828437053       -2.30605799834342
H           -2.39579895936206       -0.64730982262909       -2.42889158792990
H           -1.48549375392902        0.47278354468696       -3.44001186148819
H           -0.67801733459029        0.81028528883050        0.66747082009011
H            0.00961567360065        2.94730787013480        0.28357862979940
H            1.85566346928615       -1.35223788817140       -0.45201797765876
H            1.29026633211237        0.22788425389115        0.12730673540776
H            2.34638343886215        1.35222820570549       -1.78723511777209
H            2.94577037614136       -0.20157465351257       -2.39747623959243
H            3.79353270355823        2.59676651404619       -0.40894437215368
H            5.79018035193712        2.77190613199098        0.97782577935655
H            7.15989837989301        2.38786018249429        2.87034089629452
H            8.12584231252125        2.50994517507810        1.37113295333398
H            8.74544202144198        1.58525236447433        2.76130484648781
H            6.83971603345660       -3.61725198651927        1.00429271944701
H            5.10888755327315       -3.20849330835891        0.92690881227920
H            6.13169600870840       -3.07246836180235       -0.53479209322269
H            4.28447770487791       -1.63257075257939       -0.63970055554748
H            0.70147187220738       -0.78350049988401       -3.65527803148801
H           -0.42855544078968       -1.91223489572301       -2.89389047383391
H            1.30650616267988       -2.05238025985381       -2.57792557209665
H           -4.17797001613231        2.42786368713236        0.46306515946690
H           -1.54142393058811        2.76459302664624        1.94866626423517
H           -2.74916454912778        1.52108967647446        2.29728100543030
H           -3.14939845413552        3.22660046635983        2.48290589524681
H           -1.81118800529778        4.22938035784823       -0.19042909369132
H           -3.28187609733059        4.04341611300786       -1.15719908824598
H           -3.36734917394008        4.68766712398461        0.47126059669839
H           -0.41580951163373        2.90765937145018       -1.34006800439135

          :  Hamiltonian                  GFN2-xTB          :
         :: total energy             -99.448594770627 Eh    ::
         :: gradient norm              0.008317165291 Eh/a0 ::
         :: HOMO-LUMO gap              1.746927345137 eV    ::
         :: SCC energy              -100.804041823964 Eh    ::
         :: -> dispersion             -0.076308612285 Eh    ::
         :: repulsion energy           1.354243208933 Eh    ::

    * Orbital Energies and Occupations

         #    Occupation            Energy/Eh            Energy/eV
      -------------------------------------------------------------
         1        2.0000           -0.8039519             -21.8766
       ...           ...                  ...                  ...
        78        1.9990           -0.5333522             -14.5133
        79        1.9987           -0.5282515             -14.3745
        80        1.9985           -0.5257357             -14.3060
        81        1.9984           -0.5250684             -14.2878
        82        1.9982           -0.5231879             -14.2367
        83        1.9979           -0.5211719             -14.1818
        84        1.9971           -0.5155087             -14.0277
        85        1.9965           -0.5128666             -13.9558
        86        1.9804           -0.4853055             -13.2058
        87        1.9786           -0.4839152             -13.1680
        88        1.9668           -0.4768570             -12.9759
        89        1.8755           -0.4551574             -12.3855
        90        1.8521           -0.4522260             -12.3057 (HOMO)
        91        0.3568           -0.3880276             -10.5588 (LUMO)
        92        0.0034           -0.3112498              -8.4695
        93        0.0029           -0.3085107              -8.3950
        94        0.0028           -0.3083615              -8.3909
        95        0.0023           -0.3048723              -8.2960
        96        0.0000           -0.1855434              -5.0489
        97        0.0000           -0.1826526              -4.9702
        98                         -0.1337190              -3.6387
        99                         -0.0963717              -2.6224
       100                         -0.0799668              -2.1760
       101                         -0.0724881              -1.9725
       ...                                ...                  ...
       171                          0.5819626              15.8360
      -------------------------------------------------------------
                  HL-Gap            0.0641984 Eh            1.7469 eV

     #   Z          covCN         q      C6AA      α(0)
     1   7 N        2.635    -0.331    28.513     7.931
     2   6 C        3.807     0.044    19.825     6.338
     3   6 C        3.937    -0.003    20.573     6.446
     4   6 C        2.971    -0.007    28.183     8.708
     5   6 C        2.924    -0.078    29.960     8.976
     6   6 C        2.862     0.131    25.128     8.217
     7   8 O        1.706    -0.229    17.797     5.696
     8   6 C        3.644     0.028    20.441     6.499
     9   6 C        2.864     0.131    25.130     8.217
    10   8 O        1.706    -0.227    17.770     5.691
    11   6 C        3.645     0.027    20.450     6.499
    12   6 C        2.914    -0.073    29.816     8.954
    13   6 C        2.922    -0.056    29.382     8.889
    14   6 C        3.844    -0.065    21.705     6.627
    15   6 C        3.823    -0.070    21.822     6.647
    16   6 C        2.946     0.054    26.795     8.490
    17   7 N        2.730     0.019    20.912     6.792
    18   6 C        3.752    -0.021    21.010     6.537
    19   6 C        3.808    -0.074    21.901     6.662
    20   6 C        2.968     0.001    27.998     8.679
    21   6 C        2.922    -0.048    29.195     8.861
    22   6 C        2.914    -0.068    29.687     8.935
    23   6 C        2.864     0.133    25.096     8.212
    24   8 O        1.706    -0.224    17.717     5.683
    25   6 C        3.645     0.025    20.481     6.504
    26   6 C        2.863     0.132    25.109     8.214
    27   8 O        1.706    -0.227    17.768     5.691
    28   6 C        3.645     0.028    20.435     6.497
    29   6 C        2.920    -0.081    30.023     8.985
    30   6 C        3.707    -0.074    22.060     6.714
    31   6 C        3.852    -0.016    20.818     6.490
    32   6 C        3.755    -0.109    22.645     6.785
    33   6 C        3.753    -0.111    22.683     6.791
    34   1 H        0.926     0.050     2.316     2.380
    35   1 H        0.924     0.051     2.303     2.373
    36   1 H        0.925     0.081     1.970     2.195
    37   1 H        0.924     0.048     2.340     2.392
    38   1 H        0.924     0.053     2.288     2.365
    39   1 H        0.925     0.081     1.971     2.196
    40   1 H        0.924     0.050     2.323     2.384
    41   1 H        0.926     0.050     2.321     2.382
    42   1 H        0.926     0.029     2.594     2.518
    43   1 H        0.925     0.053     2.285     2.364
    44   1 H        0.925     0.051     2.305     2.374
    45   1 H        0.924     0.072     2.067     2.248
    46   1 H        0.924     0.070     2.087     2.259
    47   1 H        0.924     0.057     2.234     2.337
    48   1 H        0.860     0.158     1.347     1.818
    49   1 H        0.924     0.067     2.119     2.277
    50   1 H        0.925     0.081     1.966     2.193
    51   1 H        0.925     0.064     2.147     2.292
    52   1 H        0.924     0.058     2.226     2.333
    53   1 H        0.926     0.049     2.327     2.385
    54   1 H        0.926     0.058     2.227     2.334
    55   1 H        0.924     0.053     2.277     2.360
    56   1 H        0.924     0.055     2.259     2.351
    57   1 H        0.925     0.081     1.967     2.193
    58   1 H        0.925     0.081     1.972     2.196
    59   1 H        0.924     0.047     2.364     2.404
    60   1 H        0.924     0.051     2.310     2.377
    61   1 H        0.926     0.043     2.403     2.424
    62   1 H        0.924     0.080     1.978     2.200
    63   1 H        0.925     0.080     1.981     2.201
    64   1 H        0.925     0.084     1.939     2.177
    65   1 H        0.924     0.045     2.386     2.416
    66   1 H        0.925     0.035     2.522     2.483
    67   1 H        0.925     0.038     2.469     2.457
    68   1 H        0.925     0.049     2.333     2.388
    69   1 H        0.925     0.039     2.469     2.457
    70   1 H        0.925     0.038     2.471     2.458
    71   1 H        0.925     0.050     2.324     2.384
    72   1 H        0.860     0.157     1.357     1.825

Wiberg/Mayer (AO) data.
largest (>0.10) Wiberg bond orders for each atom

     #   Z sym  total        # sym  WBO       # sym  WBO       # sym  WBO
 ---------------------------------------------------------------------------
     1   7 N    3.009 --     2 C    1.009    72 H    0.955    48 H    0.953
     2   6 C    3.976 --     1 N    1.009    16 C    0.994    47 H    0.943
                             3 C    0.943
     3   6 C    3.976 --     4 C    0.979    14 C    0.975    31 C    0.963
                             2 C    0.943
     4   6 C    3.950 --    13 C    1.424     5 C    1.368     3 C    0.979
     5   6 C    3.962 --     6 C    1.404     4 C    1.368    34 H    0.955
     6   6 C    3.906 --     5 C    1.404     9 C    1.220     7 O    1.099
     7   8 O    2.255 --     6 C    1.099     8 C    0.979
     8   6 C    3.933 --     7 O    0.979    36 H    0.977    35 H    0.974
                            37 H    0.973
     9   6 C    3.903 --    12 C    1.395     6 C    1.220    10 O    1.103
    10   8 O    2.254 --     9 C    1.103    11 C    0.978
    11   6 C    3.932 --    10 O    0.978    39 H    0.977    38 H    0.974
                            40 H    0.974
    12   6 C    3.962 --    13 C    1.400     9 C    1.395    41 H    0.964
    13   6 C    3.956 --     4 C    1.424    12 C    1.400    42 H    0.963
    14   6 C    3.988 --    15 C    0.999     3 C    0.975    43 H    0.974
                            44 H    0.969
    15   6 C    3.989 --    16 C    1.040    14 C    0.999    46 H    0.949
                            45 H    0.937
    16   6 C    3.617 --    17 N    1.430    15 C    1.040     2 C    0.994
    17   7 N    3.505 --    16 C    1.430    30 C    0.997    18 C    0.983
    18   6 C    3.951 --    17 N    0.983    19 C    0.969    50 H    0.964
                            49 H    0.961
    19   6 C    3.977 --    20 C    1.008    51 H    0.973    18 C    0.969
                            52 H    0.965
    20   6 C    3.945 --    21 C    1.415    29 C    1.374    19 C    1.008
    21   6 C    3.950 --    20 C    1.415    22 C    1.412    53 H    0.967
    22   6 C    3.960 --    21 C    1.412    23 C    1.388    54 H    0.963
    23   6 C    3.897 --    22 C    1.388    26 C    1.220    24 O    1.107
    24   8 O    2.253 --    23 C    1.107    25 C    0.977
    25   6 C    3.929 --    57 H    0.977    24 O    0.977    56 H    0.973
                            55 H    0.973
    26   6 C    3.900 --    29 C    1.401    23 C    1.220    27 O    1.099
    27   8 O    2.252 --    26 C    1.099    28 C    0.980
    28   6 C    3.934 --    27 O    0.980    58 H    0.977    59 H    0.974
                            60 H    0.973
    29   6 C    3.960 --    26 C    1.401    20 C    1.374    61 H    0.962
    30   6 C    3.957 --    17 N    0.997    64 H    0.976    63 H    0.970
                            62 H    0.962
    31   6 C    3.985 --    33 C    1.008    32 C    1.007     3 C    0.963
                            65 H    0.958
    32   6 C    3.992 --    31 C    1.007    68 H    0.984    67 H    0.984
                            66 H    0.982
    33   6 C    3.991 --    31 C    1.008    70 H    0.983    71 H    0.982
                            69 H    0.979
    34   1 H    0.996 --     5 C    0.955
    35   1 H    0.994 --     8 C    0.974
    36   1 H    0.993 --     8 C    0.977
    37   1 H    0.994 --     8 C    0.973
    38   1 H    0.993 --    11 C    0.974
    39   1 H    0.993 --    11 C    0.977
    40   1 H    0.993 --    11 C    0.974
    41   1 H    0.996 --    12 C    0.964
    42   1 H    0.998 --    13 C    0.963
    43   1 H    0.996 --    14 C    0.974
    44   1 H    0.996 --    14 C    0.969
    45   1 H    0.977 --    15 C    0.937
    46   1 H    0.982 --    15 C    0.949
    47   1 H    0.990 --     2 C    0.943
    48   1 H    0.972 --     1 N    0.953
    49   1 H    0.991 --    18 C    0.961
    50   1 H    0.993 --    18 C    0.964
    51   1 H    0.995 --    19 C    0.973
    52   1 H    0.994 --    19 C    0.965
    53   1 H    0.997 --    21 C    0.967
    54   1 H    0.995 --    22 C    0.963
    55   1 H    0.992 --    25 C    0.973
    56   1 H    0.992 --    25 C    0.973
    57   1 H    0.993 --    25 C    0.977
    58   1 H    0.993 --    28 C    0.977
    59   1 H    0.994 --    28 C    0.974
    60   1 H    0.993 --    28 C    0.973
    61   1 H    0.997 --    29 C    0.962
    62   1 H    0.984 --    30 C    0.962
    63   1 H    0.990 --    30 C    0.970
    64   1 H    0.992 --    30 C    0.976
    65   1 H    0.995 --    31 C    0.958
    66   1 H    0.998 --    32 C    0.982
    67   1 H    0.998 --    32 C    0.984
    68   1 H    0.997 --    32 C    0.984
    69   1 H    0.997 --    33 C    0.979
    70   1 H    0.998 --    33 C    0.983
    71   1 H    0.996 --    33 C    0.982
    72   1 H    0.975 --     1 N    0.955
 ---------------------------------------------------------------------------

molecular dipole:
                 x           y           z       tot (Debye)
 q only:        0.306      -0.076      -1.287
   full:        0.042       0.129      -1.338       3.419

           -------------------------------------------------
          | TOTAL ENERGY              -99.448594770627 Eh   |
          | GRADIENT NORM               0.008317165291 Eh/α |
          | HOMO-LUMO GAP               1.746927345137 eV   |
           -------------------------------------------------

 * finished run on 2024/04/06 at 11:15:36.935
