   * xtb version 6.6.1 (8d0f1dd) compiled by 'conda@1efc2f54142f' on 2023-08-01
          program call               : xtb xtbopt.xyz --opt crude --input .xc2 --gfn2

   ID    Z sym.   atoms
    1    6 C      1, 3, 5-7, 10, 11, 14
    2    7 N      2, 4, 9, 13
    3    8 O      8, 12
    4    1 H      15-25
########################################################################
[WARNING] Please study the warnings concerning your input carefully
-1- readin_getIntValue: could not parse ''
########################################################################

          :  Hamiltonian                  GFN2-xTB          :
 * total energy  :   -42.1921343 Eh     change        0.1065814E-12 Eh
 * total energy  :   -42.1927961 Eh     change       -0.6618534E-03 Eh
 * total energy  :   -42.1931332 Eh     change       -0.3371153E-03 Eh
   *** GEOMETRY OPTIMIZATION CONVERGED AFTER 3 ITERATIONS ***

 final structure:
================
25
 xtb: 6.6.1 (8d0f1dd)
C            3.33085357795548        0.89725782151112        0.08598398915786
N            2.38977639735083       -0.04452915310289        0.01705627381848
C            2.58744096180405       -1.37558054421705       -0.10930878165044
N            1.38454506375428       -2.03497161931024       -0.12691508077035
C            0.40061174089249       -1.13136056154492       -0.00714682507026
C            0.99826216894632        0.14565318441425        0.05427605259705
C            0.18390754218510        1.27615222081986        0.01667005596235
O            0.58317675740757        2.54001818378902       -0.07376277246179
N           -1.16249072792069        1.06267293401518        0.04694349915272
C           -2.08308249601200        2.19048773517523        0.02730878243421
C           -1.78320818722531       -0.19148420858217        0.06912721021230
O           -2.97522562469037       -0.29642983592792        0.10964209941683
N           -0.94166192832088       -1.30653539444509        0.02421120732733
C           -1.53355151395887       -2.63045661353660        0.00499592897285
H            3.10494893707960        1.87383461361857        0.46523027524103
H            4.35998928983904        0.59483502995301        0.00435769895415
H            1.53226144986208        2.60951137146531       -0.26705054984455
H            3.54128808317022       -1.84931666074675       -0.18281938051768
H           -1.51909306430456        3.11691756322739        0.03966753078039
H           -2.70227757561303        2.13925507994250       -0.86799900790862
H           -2.73826337881516        2.13620727667235        0.89599906510360
H           -1.19707768855289       -3.20870814175099        0.86580070803781
H           -1.27720615307270       -3.15021389582621       -0.91861343253590
H           -2.61439029565183       -2.50899041859018        0.05695906920208
H            1.29089817799127       -3.03598742542289       -0.19944199771144

          :  Hamiltonian                  GFN2-xTB          :
         :: total energy             -42.193133219309 Eh    ::
         :: gradient norm              0.005696648318 Eh/a0 ::
         :: HOMO-LUMO gap              1.509544511379 eV    ::
         :: SCC energy               -42.715949685203 Eh    ::
         :: -> dispersion             -0.023025634539 Eh    ::
         :: repulsion energy           0.522696703417 Eh    ::

    * Orbital Energies and Occupations

         #    Occupation            Energy/Eh            Energy/eV
      -------------------------------------------------------------
         1        2.0000           -0.9010019             -24.5175
       ...           ...                  ...                  ...
        25        2.0000           -0.6684376             -18.1891
        26        2.0000           -0.6676606             -18.1680
        27        2.0000           -0.6567282             -17.8705
        28        2.0000           -0.6467129             -17.5980
        29        2.0000           -0.6383098             -17.3693
        30        1.9999           -0.6215586             -16.9135
        31        1.9999           -0.6156632             -16.7530
        32        1.9999           -0.6119252             -16.6513
        33        1.9998           -0.6076015             -16.5337
        34        1.9992           -0.5839985             -15.8914
        35        1.9987           -0.5753048             -15.6548
        36        1.9956           -0.5565495             -15.1445
        37        1.6957           -0.4868503             -13.2479 (HOMO)
        38        0.2872           -0.4313756             -11.7383 (LUMO)
        39        0.0205           -0.3872924             -10.5388
        40        0.0036           -0.3597644              -9.7897
        41        0.0001           -0.2935476              -7.9878
        42        0.0000           -0.2053868              -5.5889
        43                         -0.1715499              -4.6681
        44                         -0.1450519              -3.9471
        45                         -0.1307254              -3.5572
        46                         -0.1110388              -3.0215
        47                         -0.0650539              -1.7702
        48                         -0.0349077              -0.9499
       ...                                ...                  ...
        67                          0.5366681              14.6035
      -------------------------------------------------------------
                  HL-Gap            0.0554747 Eh            1.5095 eV

     #   Z          covCN         q      C6AA      α(0)
     1   6 C        2.788    -0.124    31.136     9.140
     2   7 N        2.794     0.103    19.475     6.554
     3   6 C        3.036    -0.004    28.081     8.692
     4   7 N        2.769    -0.062    22.440     7.036
     5   6 C        3.019     0.104    25.679     8.312
     6   6 C        3.091    -0.037    28.804     8.797
     7   6 C        2.775     0.201    23.726     7.978
     8   8 O        1.660    -0.326    19.469     5.956
     9   7 N        2.746    -0.048    22.168     6.993
    10   6 C        3.707    -0.070    21.999     6.704
    11   6 C        2.728     0.312    21.692     7.625
    12   8 O        0.859    -0.357    20.843     6.121
    13   7 N        2.737    -0.058    22.371     7.025
    14   6 C        3.698    -0.072    22.048     6.716
    15   1 H        0.926     0.069     2.100     2.266
    16   1 H        0.926     0.082     1.955     2.186
    17   1 H        0.804     0.350     0.588     1.204
    18   1 H        0.927     0.105     1.744     2.065
    19   1 H        0.925     0.110     1.694     2.036
    20   1 H        0.925     0.104     1.753     2.070
    21   1 H        0.925     0.107     1.718     2.050
    22   1 H        0.924     0.084     1.936     2.176
    23   1 H        0.924     0.083     1.947     2.182
    24   1 H        0.925     0.125     1.574     1.962
    25   1 H        0.860     0.219     1.013     1.577

Wiberg/Mayer (AO) data.
largest (>0.10) Wiberg bond orders for each atom

     #   Z sym  total        # sym  WBO       # sym  WBO       # sym  WBO
 ---------------------------------------------------------------------------
     1   6 C    3.564 --     2 N    1.309    16 H    0.970    15 H    0.962
                             3 C    0.174
     2   7 N    3.720 --     1 C    1.309     3 C    1.248     6 C    1.068
     3   6 C    3.705 --     2 N    1.248     4 N    1.177    18 H    0.960
                             1 C    0.174
     4   7 N    3.556 --     5 C    1.260     3 C    1.177    25 H    0.924
     5   6 C    3.864 --     4 N    1.260     6 C    1.231    13 N    1.178
     6   6 C    3.904 --     7 C    1.296     5 C    1.231     2 N    1.068
     7   6 C    3.775 --     6 C    1.296     9 N    1.200     8 O    1.154
     8   8 O    2.178 --     7 C    1.154    17 H    0.838
     9   7 N    3.536 --     7 C    1.200    11 C    1.072    10 C    0.969
                            12 O    0.126
    10   6 C    3.916 --    19 H    0.971     9 N    0.969    20 H    0.964
                            21 H    0.963
    11   6 C    3.946 --    12 O    1.713     9 N    1.072    13 N    1.071
    12   8 O    2.066 --    11 C    1.713    13 N    0.135     9 N    0.126
    13   7 N    3.514 --     5 C    1.178    11 C    1.071    14 C    0.974
                            12 O    0.135
    14   6 C    3.926 --    13 N    0.974    22 H    0.971    23 H    0.970
                            24 H    0.965
    15   1 H    0.994 --     1 C    0.962
    16   1 H    0.992 --     1 C    0.970
    17   1 H    0.876 --     8 O    0.838
    18   1 H    0.988 --     3 C    0.960
    19   1 H    0.987 --    10 C    0.971
    20   1 H    0.984 --    10 C    0.964
    21   1 H    0.983 --    10 C    0.963
    22   1 H    0.989 --    14 C    0.971
    23   1 H    0.989 --    14 C    0.970
    24   1 H    0.984 --    14 C    0.965
    25   1 H    0.951 --     4 N    0.924
 ---------------------------------------------------------------------------

molecular dipole:
                 x           y           z       tot (Debye)
 q only:        1.792      -0.740      -0.206
   full:        2.284      -1.015      -0.217       6.377

           -------------------------------------------------
          | TOTAL ENERGY              -42.193133219309 Eh   |
          | GRADIENT NORM               0.005696648318 Eh/α |
          | HOMO-LUMO GAP               1.509544511379 eV   |
           -------------------------------------------------

 * finished run on 2024/06/05 at 19:58:08.158
