   * xtb version 6.6.1 (8d0f1dd) compiled by 'conda@1efc2f54142f' on 2023-08-01
          program call               : xtb struc.xyz --opt loose --input .xc1 --gfn2

   ID    Z sym.   atoms
    1    6 C      1, 3, 5-7, 10, 11, 14
    2    7 N      2, 4, 9, 13
    3    8 O      8, 12
    4    1 H      15-25
constraining bond 2 4 to    4.8400000 Å, actual value:    2.1863596 Å

          :  Hamiltonian                  GFN2-xTB          :
 * total energy  :   -29.6866771 Eh     change       -0.2401990E-09 Eh
 * total energy  :   -34.0282907 Eh     change       -0.4341614E+01 Eh
 * total energy  :   -37.0265395 Eh     change       -0.2998249E+01 Eh
 * total energy  :   -39.2065081 Eh     change       -0.2179969E+01 Eh
 * total energy  :   -40.8431615 Eh     change       -0.1636653E+01 Eh
 * total energy  :   -41.4798090 Eh     change       -0.6366475E+00 Eh
 * total energy  :   -41.5579621 Eh     change       -0.7815306E-01 Eh
 * total energy  :   -41.5805563 Eh     change       -0.2259426E-01 Eh
 * total energy  :   -41.5996671 Eh     change       -0.1911081E-01 Eh
 * total energy  :   -41.6104641 Eh     change       -0.1079702E-01 Eh
 * total energy  :   -42.1220894 Eh     change       -0.9886420E-04 Eh
 * total energy  :   -42.1222477 Eh     change       -0.1583420E-03 Eh
 * total energy  :   -42.1223947 Eh     change       -0.1469064E-03 Eh
 * total energy  :   -42.1225625 Eh     change       -0.1678842E-03 Eh
 * total energy  :   -42.1226883 Eh     change       -0.1257435E-03 Eh
 * total energy  :   -42.1227786 Eh     change       -0.9036604E-04 Eh
 * total energy  :   -42.1226620 Eh     change        0.1166518E-03 Eh
 * total energy  :   -42.1228731 Eh     change       -0.2111394E-03 Eh
 * total energy  :   -42.1229144 Eh     change       -0.4131248E-04 Eh
   *** GEOMETRY OPTIMIZATION CONVERGED AFTER 54 ITERATIONS ***

 final structure:
================
25
 xtb: 6.6.1 (8d0f1dd)
C            3.19457249953684        0.99540188374641        0.12686402738300
N            3.04414563096052        1.53986927079578       -1.13325328383928
C            2.35713389593585       -0.24339701725523        0.22500847143198
N            0.80521632256244       -2.66205533643335       -0.25402357230106
C            0.27492925946893       -1.52356852599876       -0.03914389912389
C            0.99960190378936       -0.25671070383404        0.08835976246109
C            0.22469513032193        0.99275504826034        0.07715314059396
O            0.74165376408396        2.09384866351470        0.07307852944930
N           -1.15000133005040        0.86340809793917        0.11401603577856
C           -1.96363355667135        2.06284305910760        0.14177150326413
C           -1.84588817787067       -0.33546452749992        0.12872633123380
O           -3.05029212981988       -0.35355596214471        0.19898854687386
N           -1.09513273308259       -1.49289946534503        0.04357915475705
C           -1.80429222602892       -2.75178691117130       -0.02315139302250
H            2.90394134005554        1.70963418459726        0.92250947535201
H            4.25249874516569        0.73105425620553        0.30336784614293
H            3.03745863538330        2.54028226159989       -1.27464128942664
H            2.88702161433053       -1.17790625983718        0.34142204516980
H           -1.30518511849483        2.92977213102846        0.17534656889248
H           -2.59507091573374        2.10605189573157       -0.74866860084345
H           -2.61794766299242        2.04657557922591        1.01592658884109
H           -1.49343637283871       -3.39736724947162        0.80054322692384
H           -1.56678934340708       -3.26190321357282       -0.95888303200959
H           -2.87426689710604       -2.55370036392094        0.03783599022372
H            1.79949923660210       -2.78294225366743       -0.35156055630662

          :  Hamiltonian                  GFN2-xTB          :
         :: total energy             -42.122914445345 Eh    ::
         :: gradient norm              0.002887338876 Eh/a0 ::
         :: HOMO-LUMO gap              0.609407504024 eV    ::
         :: SCC energy               -42.636945712333 Eh    ::
         :: -> dispersion             -0.022040008197 Eh    ::
         :: repulsion energy           0.513888931632 Eh    ::

    * Orbital Energies and Occupations

         #    Occupation            Energy/Eh            Energy/eV
      -------------------------------------------------------------
         1        2.0000           -0.8981469             -24.4398
       ...           ...                  ...                  ...
        25        1.9948           -0.6652462             -18.1023
        26        1.9917           -0.6542616             -17.8034
        27        1.9885           -0.6464165             -17.5899
        28        1.9859           -0.6414288             -17.4542
        29        1.9748           -0.6276010             -17.0779
        30        1.9719           -0.6249951             -17.0070
        31        1.9316           -0.6033348             -16.4176
        32        1.9187           -0.5990789             -16.3018
        33        1.8861           -0.5906651             -16.0728
        34        1.8742           -0.5881525             -16.0044
        35        1.8005           -0.5762405             -15.6803
        36        1.7313           -0.5682393             -15.4626
        37        1.5658           -0.5544550             -15.0875 (HOMO)
        38        1.1683           -0.5320596             -14.4781 (LUMO)
        39        0.2130           -0.4734658             -12.8837
        40        0.0118           -0.4022688             -10.9463
        41        0.0059           -0.3854994             -10.4900
        42        0.0001           -0.2967371              -8.0746
        43        0.0000           -0.1919870              -5.2242
        44        0.0000           -0.1572267              -4.2784
        45                         -0.1091310              -2.9696
        46                         -0.0755348              -2.0554
        47                         -0.0637482              -1.7347
        48                         -0.0354269              -0.9640
       ...                                ...                  ...
        67                          0.5251727              14.2907
      -------------------------------------------------------------
                  HL-Gap            0.0223953 Eh            0.6094 eV

     #   Z          covCN         q      C6AA      α(0)
     1   6 C        3.734     0.027    20.198     6.414
     2   7 N        1.783    -0.195    26.034     7.557
     3   6 C        2.910     0.006    27.897     8.661
     4   7 N        1.796    -0.246    27.241     7.731
     5   6 C        2.833     0.166    24.412     8.097
     6   6 C        2.952    -0.030    28.744     8.794
     7   6 C        2.770     0.275    22.356     7.744
     8   8 O        0.859    -0.333    20.392     6.054
     9   7 N        2.740    -0.057    22.337     7.019
    10   6 C        3.707    -0.061    21.824     6.678
    11   6 C        2.721     0.320    21.563     7.602
    12   8 O        0.860    -0.327    20.278     6.037
    13   7 N        2.759    -0.023    21.688     6.917
    14   6 C        3.707    -0.075    22.078     6.716
    15   1 H        0.922     0.144     1.435     1.874
    16   1 H        0.923     0.139     1.470     1.896
    17   1 H        0.860     0.217     1.021     1.583
    18   1 H        0.926     0.101     1.776     2.084
    19   1 H        0.925     0.126     1.564     1.956
    20   1 H        0.924     0.120     1.613     1.986
    21   1 H        0.924     0.122     1.601     1.979
    22   1 H        0.924     0.122     1.596     1.976
    23   1 H        0.924     0.126     1.568     1.958
    24   1 H        0.925     0.133     1.510     1.922
    25   1 H        0.860     0.203     1.093     1.637

Wiberg/Mayer (AO) data.
largest (>0.10) Wiberg bond orders for each atom

     #   Z sym  total        # sym  WBO       # sym  WBO       # sym  WBO
 ---------------------------------------------------------------------------
     1   6 C    3.880 --     2 N    1.150     3 C    0.998    16 H    0.859
                            15 H    0.848
     2   7 N    2.118 --     1 C    1.150    17 H    0.907
     3   6 C    3.704 --     6 C    1.599     1 C    0.998    18 H    0.943
     4   7 N    2.766 --     5 C    1.646    25 H    0.918
     5   6 C    3.908 --     4 N    1.646    13 N    1.142     6 C    1.040
     6   6 C    3.812 --     3 C    1.599     5 C    1.040     7 C    1.028
     7   6 C    3.887 --     8 O    1.650     9 N    1.124     6 C    1.028
     8   8 O    1.916 --     7 C    1.650     9 N    0.111
     9   7 N    3.472 --     7 C    1.124    11 C    1.090    10 C    0.981
                             8 O    0.111    12 O    0.100
    10   6 C    3.845 --     9 N    0.981    19 H    0.950    21 H    0.937
                            20 H    0.936
    11   6 C    3.936 --    12 O    1.660    13 N    1.104     9 N    1.090
    12   8 O    1.945 --    11 C    1.660    13 N    0.104     9 N    0.100
    13   7 N    3.482 --     5 C    1.142    11 C    1.104    14 C    0.983
                            12 O    0.104
    14   6 C    3.843 --    13 N    0.983    24 H    0.947    22 H    0.937
                            23 H    0.933
    15   1 H    0.886 --     1 C    0.848
    16   1 H    0.879 --     1 C    0.859
    17   1 H    0.920 --     2 N    0.907
    18   1 H    0.972 --     3 C    0.943
    19   1 H    0.968 --    10 C    0.950
    20   1 H    0.952 --    10 C    0.936
    21   1 H    0.953 --    10 C    0.937
    22   1 H    0.953 --    14 C    0.937
    23   1 H    0.950 --    14 C    0.933
    24   1 H    0.966 --    14 C    0.947
    25   1 H    0.946 --     4 N    0.918
 ---------------------------------------------------------------------------

molecular dipole:
                 x           y           z       tot (Debye)
 q only:        1.245      -0.560       0.258
   full:        1.613      -0.313       0.447       4.328

           -------------------------------------------------
          | TOTAL ENERGY              -42.122914445345 Eh   |
          | GRADIENT NORM               0.002887338876 Eh/α |
          | HOMO-LUMO GAP               0.609407504024 eV   |
           -------------------------------------------------

 * finished run on 2024/06/05 at 19:58:42.690
