   * xtb version 6.6.1 (8d0f1dd) compiled by 'conda@1efc2f54142f' on 2023-08-01
          program call               : xtb struc.xyz --opt loose --input .xc1 --gfn2

   ID    Z sym.   atoms
    1    6 C      1, 3, 5-7, 10, 11, 14
    2    7 N      2, 4, 9, 13
    3    8 O      8, 12
    4    1 H      15-25
constraining bond 11 20 to    3.7133300 Å, actual value:    2.6644824 Å

          :  Hamiltonian                  GFN2-xTB          :
 * total energy  :   -44.2120888 Eh     change       -0.6650680E-10 Eh
 * total energy  :   -47.8352666 Eh     change       -0.3623178E+01 Eh
 * total energy  :   -53.2870426 Eh     change       -0.5451776E+01 Eh
 * total energy  :   -59.4022895 Eh     change       -0.6115247E+01 Eh
 * total energy  :   -56.6481474 Eh     change        0.2754142E+01 Eh
 * total energy  :   -59.5167014 Eh     change       -0.2868554E+01 Eh
 * total energy  :   -59.5374115 Eh     change       -0.2071001E-01 Eh
 * total energy  :   -59.5815696 Eh     change       -0.4415817E-01 Eh
 * total energy  :   -59.6032611 Eh     change       -0.2169148E-01 Eh
 * total energy  :   -59.6320479 Eh     change       -0.2878683E-01 Eh
 * total energy  :   -59.7351953 Eh     change       -0.1828184E-03 Eh
 * total energy  :   -59.7352676 Eh     change       -0.7230230E-04 Eh
 * total energy  :   -59.7353511 Eh     change       -0.8354584E-04 Eh
 * total energy  :   -59.7333515 Eh     change        0.1999631E-02 Eh
 * total energy  :   -59.7354111 Eh     change       -0.2059548E-02 Eh
 * total energy  :   -59.7354330 Eh     change       -0.2195479E-04 Eh
 * total energy  :   -59.7354879 Eh     change       -0.5487392E-04 Eh
 * total energy  :   -59.7355044 Eh     change       -0.1650118E-04 Eh
 * total energy  :   -59.7355238 Eh     change       -0.1940216E-04 Eh
   *** GEOMETRY OPTIMIZATION CONVERGED AFTER 49 ITERATIONS ***

 final structure:
================
25
 xtb: 6.6.1 (8d0f1dd)
C            3.22946722774401        1.13256366929633       -0.03066419603760
N            2.21567126391361        0.11108021649340       -0.07968887256674
C            2.44181456344754       -1.18925792118224       -0.05467251212806
N            1.27104464729682       -1.85578230464666       -0.08420753733569
C            0.24172612914968       -0.94662608736893       -0.13491548199674
C            0.85202569654471        0.32376097171202       -0.12138415356094
C            0.18461924644349        1.59824454767180        0.03089256379578
O            0.71190094348730        2.68239430499235        0.13215692274071
N           -1.21700699788679        1.40850545232187        0.09412861360671
C           -2.02361395444952        2.27541386327300        0.55157058780208
C           -2.05129366020622       -0.13280496661539       -0.77688015097187
O           -3.16288648564474       -0.23880896253761       -0.28492211891174
N           -1.04572237233135       -1.23020477954078       -0.18192924044188
C           -1.59428535978821       -2.52437306799243        0.12363841915047
H            3.68115934281400        1.16442569278687        0.96210501432881
H            4.00725953726692        0.92465477930434       -0.76401830340079
H            2.77685055561163        2.10089118202967       -0.23598570352982
H            3.40997063279371       -1.64943639873779       -0.01151426007424
H           -1.69314865709472        3.23122052041253        0.94183849064853
H           -1.89418493124918        0.01019736936486       -1.14397490538477
H           -3.07492659050182        2.01702597674874        0.55791327892080
H           -1.13317491175120       -2.94441223818769        1.01685874531073
H           -1.48409524870209       -3.21680698692130       -0.71496406701967
H           -2.65812497405130       -2.37330646328368        0.31364493227276
H            1.16938587124071       -2.86031982779661       -0.07385444731657

          :  Hamiltonian                  GFN2-xTB          :
         :: total energy             -59.735523795686 Eh    ::
         :: gradient norm              0.003235381738 Eh/a0 ::
         :: HOMO-LUMO gap              2.039379495982 eV    ::
         :: SCC energy               -42.694224422217 Eh    ::
         :: -> dispersion             -0.022966012943 Eh    ::
         :: repulsion energy           2.275856691437 Eh    ::

    * Orbital Energies and Occupations

         #    Occupation            Energy/Eh            Energy/eV
      -------------------------------------------------------------
         1        2.0000           -0.9061023             -24.6563
       ...           ...                  ...                  ...
        25        2.0000           -0.6703928             -18.2423
        26        2.0000           -0.6626962             -18.0329
        27        1.9999           -0.6565041             -17.8644
        28        1.9997           -0.6355355             -17.2938
        29        1.9997           -0.6335435             -17.2396
        30        1.9996           -0.6304014             -17.1541
        31        1.9992           -0.6175237             -16.8037
        32        1.9991           -0.6154879             -16.7483
        33        1.9987           -0.6102419             -16.6055
        34        1.9902           -0.5779339             -15.7264
        35        1.9773           -0.5645140             -15.3612
        36        1.9492           -0.5515163             -15.0075
        37        1.8590           -0.5345999             -14.5472 (HOMO)
        38        0.2079           -0.4596541             -12.5078 (LUMO)
        39        0.0149           -0.4163271             -11.3288
        40        0.0051           -0.3993345             -10.8664
        41        0.0003           -0.3566367              -9.7046
        42        0.0000           -0.3052110              -8.3052
        43        0.0000           -0.2447796              -6.6608
        44                         -0.1893707              -5.1530
        45                         -0.1480795              -4.0294
        46                         -0.1009998              -2.7483
        47                         -0.0849864              -2.3126
        48                         -0.0384623              -1.0466
       ...                                ...                  ...
        67                         10.6187243             288.9502
      -------------------------------------------------------------
                  HL-Gap            0.0749458 Eh            2.0394 eV

     #   Z          covCN         q      C6AA      α(0)
     1   6 C        3.693    -0.095    22.513     6.789
     2   7 N        2.830     0.084    19.782     6.606
     3   6 C        3.026     0.057    26.690     8.474
     4   7 N        2.796    -0.067    22.541     7.051
     5   6 C        2.990     0.126    25.226     8.239
     6   6 C        3.098    -0.028    28.580     8.761
     7   6 C        2.771     0.279    22.274     7.729
     8   8 O        0.857    -0.346    20.640     6.091
     9   7 N        2.268    -0.141    24.361     7.327
    10   6 C        2.786     0.052    26.809     8.481
    11   6 C        3.107     0.204    23.563     7.953
    12   8 O        0.863    -0.342    20.552     6.078
    13   7 N        2.707    -0.108    23.372     7.180
    14   6 C        3.692    -0.065    21.930     6.701
    15   1 H        0.924     0.108     1.712     2.046
    16   1 H        0.925     0.104     1.751     2.069
    17   1 H        0.925     0.136     1.488     1.908
    18   1 H        0.926     0.122     1.593     1.974
    19   1 H        0.925     0.122     1.601     1.979
    20   1 H        0.938     0.163     1.306     1.787
    21   1 H        0.925     0.136     1.492     1.910
    22   1 H        0.925     0.075     2.034     2.230
    23   1 H        0.924     0.078     2.004     2.214
    24   1 H        0.924     0.119     1.618     1.989
    25   1 H        0.860     0.227     0.977     1.549

Wiberg/Mayer (AO) data.
largest (>0.10) Wiberg bond orders for each atom

     #   Z sym  total        # sym  WBO       # sym  WBO       # sym  WBO
 ---------------------------------------------------------------------------
     1   6 C    3.914 --     2 N    0.985    16 H    0.964    17 H    0.959
                            15 H    0.956
     2   7 N    3.698 --     3 C    1.415     6 C    1.153     1 C    0.985
     3   6 C    3.875 --     2 N    1.415     4 N    1.279    18 H    0.952
     4   7 N    3.586 --     3 C    1.279     5 C    1.160    25 H    0.919
     5   6 C    3.940 --    13 N    1.331     6 C    1.275     4 N    1.160
     6   6 C    3.869 --     5 C    1.275     2 N    1.153     7 C    1.099
     7   6 C    3.897 --     8 O    1.706     6 C    1.099     9 N    1.007
     8   8 O    2.000 --     7 C    1.706
     9   7 N    3.385 --    10 C    1.790     7 C    1.007    11 C    0.336
                            12 O    0.132
    10   6 C    3.758 --     9 N    1.790    21 H    0.944    19 H    0.940
    11   6 C    3.917 --    12 O    1.777    20 H    0.956    13 N    0.766
                             9 N    0.336
    12   8 O    2.113 --    11 C    1.777     9 N    0.132    13 N    0.124
    13   7 N    3.428 --     5 C    1.331    14 C    0.998    11 C    0.766
                            12 O    0.124
    14   6 C    3.932 --    13 N    0.998    22 H    0.968    23 H    0.960
                            24 H    0.959
    15   1 H    0.985 --     1 C    0.956
    16   1 H    0.987 --     1 C    0.964
    17   1 H    0.981 --     1 C    0.959
    18   1 H    0.984 --     3 C    0.952
    19   1 H    0.976 --    10 C    0.940
    20   1 H    0.967 --    11 C    0.956
    21   1 H    0.976 --    10 C    0.944
    22   1 H    0.986 --    14 C    0.968
    23   1 H    0.980 --    14 C    0.960
    24   1 H    0.982 --    14 C    0.959
    25   1 H    0.948 --     4 N    0.919
 ---------------------------------------------------------------------------

molecular dipole:
                 x           y           z       tot (Debye)
 q only:        2.108      -1.532      -0.094
   full:        2.384      -1.807      -0.072       7.607

           -------------------------------------------------
          | TOTAL ENERGY              -59.735523795686 Eh   |
          | GRADIENT NORM               0.003235381738 Eh/α |
          | HOMO-LUMO GAP               2.039379495982 eV   |
           -------------------------------------------------

 * finished run on 2024/06/05 at 20:00:28.497
