   * xtb version 6.6.1 (8d0f1dd) compiled by 'conda@1efc2f54142f' on 2023-08-01
          program call               : xtb xtbopt.xyz --opt crude --input .xc2 --gfn2

   ID    Z sym.   atoms
    1    6 C      1, 3, 5-7, 10, 11, 14
    2    7 N      2, 4, 9, 13
    3    8 O      8, 12
    4    1 H      15-25
########################################################################
[WARNING] Please study the warnings concerning your input carefully
-1- readin_getIntValue: could not parse ''
########################################################################

          :  Hamiltonian                  GFN2-xTB          :
 * total energy  :   -40.4182153 Eh     change       -0.2842171E-13 Eh
 * total energy  :   -42.0955092 Eh     change       -0.1677294E+01 Eh
 * total energy  :   -42.1360469 Eh     change       -0.4053767E-01 Eh
 * total energy  :   -42.1461463 Eh     change       -0.1009935E-01 Eh
 * total energy  :   -42.1487067 Eh     change       -0.2560463E-02 Eh
 * total energy  :   -42.1492216 Eh     change       -0.5148459E-03 Eh
 * total energy  :   -42.1499652 Eh     change       -0.7436211E-03 Eh
 * total energy  :   -42.1509475 Eh     change       -0.9823254E-03 Eh
 * total energy  :   -42.1515180 Eh     change       -0.5704677E-03 Eh
 * total energy  :   -42.1516957 Eh     change       -0.1777069E-03 Eh
   *** GEOMETRY OPTIMIZATION CONVERGED AFTER 10 ITERATIONS ***

 final structure:
================
25
 xtb: 6.6.1 (8d0f1dd)
C            3.23123986806325        1.12962347663019       -0.07673306066102
N            2.22248675221714        0.10264459495863       -0.08911508724246
C            2.44356948550510       -1.20016176611407       -0.07584065696224
N            1.26801745358047       -1.86292197121547       -0.08334028804669
C            0.24997668883120       -0.94794444026082       -0.10673470538923
C            0.86022580851027        0.31753659302130       -0.09671631147095
C            0.16499882268893        1.57373119993267        0.10716662654760
O            0.66876140358403        2.66279079307883        0.25540088802417
N           -1.22982981742572        1.33897143406777        0.17014202357204
C           -2.08368823956447        2.17571053452719        0.60282125057259
C           -1.94810983896191       -0.14544507760557       -0.67304035426856
O           -3.12652791459033       -0.19403085730907       -0.41277859416498
N           -1.05404470261422       -1.19368047898314       -0.14378762167457
C           -1.63708220545622       -2.46879114670885        0.20061694863137
H            3.71996893508156        1.16732683244622        0.89791763736428
H            3.98340255365177        0.92706152669387       -0.83811833242414
H            2.76324464024622        2.09388857319211       -0.26538128934589
H            3.40832541224689       -1.66858119802321       -0.06193694691165
H           -1.80760613766472        3.15472425061250        0.97408539895462
H           -1.55504714308750        0.20518563016679       -1.64430583146776
H           -3.12166673817035        1.86273093869373        0.58398837335604
H           -1.18893950112073       -2.85780258970581        1.11435870160348
H           -1.52958914939126       -3.19478438755355       -0.60850249505490
H           -2.70051556142328       -2.29261283923463        0.36810525342208
H            1.15886063936099       -2.86693108371075       -0.06709990906297

          :  Hamiltonian                  GFN2-xTB          :
         :: total energy             -42.151695699769 Eh    ::
         :: gradient norm              0.005320616412 Eh/a0 ::
         :: HOMO-LUMO gap              1.919587345625 eV    ::
         :: SCC energy               -42.679541173768 Eh    ::
         :: -> dispersion             -0.023098696826 Eh    ::
         :: repulsion energy           0.527686493050 Eh    ::

    * Orbital Energies and Occupations

         #    Occupation            Energy/Eh            Energy/eV
      -------------------------------------------------------------
         1        2.0000           -0.9107495             -24.7828
       ...           ...                  ...                  ...
        25        2.0000           -0.6708318             -18.2543
        26        2.0000           -0.6616910             -18.0055
        27        1.9999           -0.6504392             -17.6994
        28        1.9998           -0.6366552             -17.3243
        29        1.9997           -0.6356772             -17.2977
        30        1.9994           -0.6217562             -16.9188
        31        1.9993           -0.6188734             -16.8404
        32        1.9992           -0.6174911             -16.8028
        33        1.9989           -0.6119748             -16.6527
        34        1.9897           -0.5769419             -15.6994
        35        1.9640           -0.5568321             -15.1522
        36        1.9419           -0.5490982             -14.9417
        37        1.8435           -0.5325785             -14.4922 (HOMO)
        38        0.2407           -0.4620349             -12.5726 (LUMO)
        39        0.0190           -0.4199297             -11.4269
        40        0.0052           -0.3992473             -10.8641
        41        0.0000           -0.3204794              -8.7207
        42        0.0000           -0.3088352              -8.4038
        43                         -0.1955394              -5.3209
        44                         -0.1844234              -5.0184
        45                         -0.1391970              -3.7877
        46                         -0.0885876              -2.4106
        47                         -0.0814441              -2.2162
        48                         -0.0413557              -1.1253
       ...                                ...                  ...
        67                          0.5372149              14.6184
      -------------------------------------------------------------
                  HL-Gap            0.0705435 Eh            1.9196 eV

     #   Z          covCN         q      C6AA      α(0)
     1   6 C        3.692    -0.095    22.509     6.789
     2   7 N        2.831     0.086    19.754     6.601
     3   6 C        3.036     0.055    26.734     8.481
     4   7 N        2.795    -0.062    22.438     7.035
     5   6 C        3.012     0.119    25.366     8.262
     6   6 C        3.104    -0.028    28.565     8.758
     7   6 C        2.768     0.277    22.323     7.738
     8   8 O        0.857    -0.343    20.569     6.081
     9   7 N        2.469    -0.115    23.578     7.211
    10   6 C        2.783     0.047    26.918     8.498
    11   6 C        3.337     0.251    20.759     7.212
    12   8 O        0.856    -0.371    21.109     6.160
    13   7 N        2.729    -0.064    22.473     7.041
    14   6 C        3.694    -0.068    21.996     6.710
    15   1 H        0.924     0.110     1.695     2.036
    16   1 H        0.925     0.105     1.738     2.062
    17   1 H        0.925     0.135     1.497     1.914
    18   1 H        0.926     0.125     1.574     1.962
    19   1 H        0.925     0.127     1.559     1.953
    20   1 H        0.922     0.052     2.299     2.371
    21   1 H        0.925     0.144     1.432     1.871
    22   1 H        0.925     0.078     2.002     2.213
    23   1 H        0.924     0.081     1.972     2.196
    24   1 H        0.924     0.125     1.573     1.961
    25   1 H        0.860     0.229     0.967     1.541

Wiberg/Mayer (AO) data.
largest (>0.10) Wiberg bond orders for each atom

     #   Z sym  total        # sym  WBO       # sym  WBO       # sym  WBO
 ---------------------------------------------------------------------------
     1   6 C    3.915 --     2 N    0.985    16 H    0.964    17 H    0.961
                            15 H    0.955
     2   7 N    3.695 --     3 C    1.412     6 C    1.155     1 C    0.985
     3   6 C    3.872 --     2 N    1.412     4 N    1.275    18 H    0.952
     4   7 N    3.592 --     3 C    1.275     5 C    1.176    25 H    0.919
     5   6 C    3.938 --     6 C    1.292    13 N    1.289     4 N    1.176
     6   6 C    3.884 --     5 C    1.292     2 N    1.155     7 C    1.091
     7   6 C    3.890 --     8 O    1.709     6 C    1.091     9 N    1.007
     8   8 O    1.997 --     7 C    1.709
     9   7 N    3.443 --    10 C    1.760     7 C    1.007    11 C    0.414
                            12 O    0.129
    10   6 C    3.734 --     9 N    1.760    19 H    0.942    21 H    0.940
    11   6 C    3.936 --    12 O    1.652    13 N    0.897    20 H    0.895
                             9 N    0.414
    12   8 O    1.967 --    11 C    1.652     9 N    0.129
    13   7 N    3.463 --     5 C    1.289    14 C    0.983    11 C    0.897
    14   6 C    3.925 --    13 N    0.983    22 H    0.971    23 H    0.963
                            24 H    0.961
    15   1 H    0.985 --     1 C    0.955
    16   1 H    0.987 --     1 C    0.964
    17   1 H    0.981 --     1 C    0.961
    18   1 H    0.983 --     3 C    0.952
    19   1 H    0.975 --    10 C    0.942
    20   1 H    0.957 --    11 C    0.895
    21   1 H    0.974 --    10 C    0.940
    22   1 H    0.987 --    14 C    0.971
    23   1 H    0.982 --    14 C    0.963
    24   1 H    0.982 --    14 C    0.961
    25   1 H    0.947 --     4 N    0.919
 ---------------------------------------------------------------------------

molecular dipole:
                 x           y           z       tot (Debye)
 q only:        2.331      -1.633       0.150
   full:        2.624      -1.903       0.103       8.244

           -------------------------------------------------
          | TOTAL ENERGY              -42.151695699769 Eh   |
          | GRADIENT NORM               0.005320616412 Eh/α |
          | HOMO-LUMO GAP               1.919587345625 eV   |
           -------------------------------------------------

 * finished run on 2024/06/05 at 20:00:28.912
