   * xtb version 6.6.1 (8d0f1dd) compiled by 'conda@1efc2f54142f' on 2023-08-01
          program call               : xtb xtbopt.xyz --opt crude --input .xc2 --gfn2

   ID    Z sym.   atoms
    1    6 C      1, 3, 5-7, 10, 11, 14
    2    7 N      2, 4, 9, 13
    3    8 O      8, 12
    4    1 H      15-25

          :  Hamiltonian                  GFN2-xTB          :
 * total energy  :   -42.1323670 Eh     change       -0.4071410E-11 Eh
   *** GEOMETRY OPTIMIZATION CONVERGED AFTER 1 ITERATIONS ***

 final structure:
================
25
 xtb: 6.6.1 (8d0f1dd)
C            3.22151623465577        1.20144356953845        0.02583232255516
N            2.23502719410589        0.15903197869662        0.01143409509626
C            2.45792495859170       -1.17660914010214        0.00583781430549
N            1.35119960567204       -1.88409094571184        0.00824715350396
C            0.34639385710242       -0.98249044882665        0.01789740683746
C            0.88233696012979        0.31686216496786        0.02035973678413
C            0.04207277450229        1.48980994528885        0.00237707258545
O            0.42513017834030        2.63793463076562       -0.02067502556373
N           -1.31089719502878        1.14888879468083        0.00710880522082
C           -2.28004950673301        2.23001412331698       -0.01121194631406
C           -1.86147524820737       -0.12755023138358        0.01548283904904
O           -3.05298278565827       -0.29568191138935        0.01657505591741
N           -0.97888152195914       -1.21257367138881        0.02017378377909
C           -1.50093194165340       -2.55736639583689        0.01213859379989
H            3.71868904281099        1.23829187664860        0.99775488664502
H            3.97408839440768        1.01737689202833       -0.74163372415574
H            2.73308549263785        2.15846048046279       -0.15748423076308
H            3.43984584702845       -1.60769719661067        0.00021627543895
H           -1.74216290945388        3.17566647298608       -0.01144214170077
H           -2.90841012747095        2.15061154922692       -0.90010967754923
H           -2.92949521572622        2.16139541428809        0.86328145650560
H           -1.13687578172421       -3.09902460440296        0.88612099934326
H           -1.16212026843318       -3.07870739189559       -0.88437159991372
H           -2.58845733389302       -2.50680210059086        0.02701308516654
H            1.78586081005628       -4.73895531315666       -0.17975141867319

          :  Hamiltonian                  GFN2-xTB          :
         :: total energy             -42.132367008197 Eh    ::
         :: gradient norm              0.002111427191 Eh/a0 ::
         :: HOMO-LUMO gap              0.709425901324 eV    ::
         :: SCC energy               -42.643606594623 Eh    ::
         :: -> dispersion             -0.022473232904 Eh    ::
         :: repulsion energy           0.511146019759 Eh    ::

    * Orbital Energies and Occupations

         #    Occupation            Energy/Eh            Energy/eV
      -------------------------------------------------------------
         1        2.0000           -0.8927773             -24.2937
       ...           ...                  ...                  ...
        25        1.9995           -0.6670004             -18.1500
        26        1.9991           -0.6572076             -17.8835
        27        1.9982           -0.6457454             -17.5716
        28        1.9976           -0.6406493             -17.4330
        29        1.9947           -0.6280686             -17.0906
        30        1.9890           -0.6166613             -16.7802
        31        1.9873           -0.6142685             -16.7151
        32        1.9779           -0.6054397             -16.4749
        33        1.9648           -0.5979744             -16.2717
        34        1.9180           -0.5842214             -15.8975
        35        1.8831           -0.5783128             -15.7367
        36        1.8802           -0.5778991             -15.7254
        37        1.5750           -0.5550422             -15.1035 (HOMO)
        38        0.8332           -0.5289713             -14.3940 (LUMO)
        39        0.0030           -0.4312055             -11.7337
        40        0.0002           -0.3896617             -10.6032
        41        0.0001           -0.3738075             -10.1718
        42        0.0000           -0.2952305              -8.0336
        43                         -0.2060543              -5.6070
        44                         -0.1582612              -4.3065
        45                         -0.1377126              -3.7473
        46                         -0.0789119              -2.1473
        47                         -0.0586200              -1.5951
        48                         -0.0386383              -1.0514
       ...                                ...                  ...
        67                          0.5345759              14.5466
      -------------------------------------------------------------
                  HL-Gap            0.0260709 Eh            0.7094 eV

     #   Z          covCN         q      C6AA      α(0)
     1   6 C        3.689    -0.082    22.266     6.753
     2   7 N        2.830     0.052    20.334     6.697
     3   6 C        3.186     0.097    25.410     8.225
     4   7 N        1.897    -0.209    26.372     7.613
     5   6 C        3.169     0.133    24.754     8.129
     6   6 C        3.116    -0.007    28.028     8.672
     7   6 C        2.763     0.274    22.372     7.746
     8   8 O        0.858    -0.330    20.335     6.046
     9   7 N        2.746    -0.069    22.573     7.056
    10   6 C        3.709    -0.062    21.841     6.680
    11   6 C        2.729     0.317    21.615     7.611
    12   8 O        0.860    -0.331    20.342     6.047
    13   7 N        2.739    -0.018    21.607     6.904
    14   6 C        3.700    -0.073    22.061     6.717
    15   1 H        0.924     0.110     1.696     2.036
    16   1 H        0.924     0.107     1.722     2.052
    17   1 H        0.925     0.126     1.569     1.959
    18   1 H        0.926     0.110     1.700     2.039
    19   1 H        0.925     0.123     1.592     1.973
    20   1 H        0.924     0.115     1.652     2.010
    21   1 H        0.924     0.116     1.648     2.007
    22   1 H        0.924     0.112     1.682     2.028
    23   1 H        0.924     0.111     1.688     2.032
    24   1 H        0.925     0.128     1.553     1.949
    25   1 H        0.000     0.151     3.451     3.397

Wiberg/Mayer (AO) data.
largest (>0.10) Wiberg bond orders for each atom

     #   Z sym  total        # sym  WBO       # sym  WBO       # sym  WBO
 ---------------------------------------------------------------------------
     1   6 C    3.904 --     2 N    0.995    17 H    0.960    16 H    0.957
                            15 H    0.947
     2   7 N    3.637 --     3 C    1.269     6 C    1.217     1 C    0.995
     3   6 C    3.868 --     4 N    1.487     2 N    1.269    18 H    0.954
     4   7 N    2.972 --     3 C    1.487     5 C    1.267
     5   6 C    3.899 --     4 N    1.267     6 C    1.254    13 N    1.208
     6   6 C    3.797 --     5 C    1.254     2 N    1.217     7 C    1.076
     7   6 C    3.946 --     8 O    1.674     9 N    1.100     6 C    1.076
     8   8 O    1.961 --     7 C    1.674     9 N    0.127
     9   7 N    3.500 --    11 C    1.106     7 C    1.100    10 C    0.979
                             8 O    0.127    12 O    0.117
    10   6 C    3.868 --     9 N    0.979    19 H    0.960    21 H    0.943
                            20 H    0.943
    11   6 C    3.951 --    12 O    1.684     9 N    1.106    13 N    1.070
    12   8 O    1.973 --    11 C    1.684     9 N    0.117    13 N    0.101
    13   7 N    3.484 --     5 C    1.208    11 C    1.070    14 C    0.983
                            12 O    0.101
    14   6 C    3.887 --    13 N    0.983    24 H    0.962    22 H    0.949
                            23 H    0.948
    15   1 H    0.974 --     1 C    0.947
    16   1 H    0.978 --     1 C    0.957
    17   1 H    0.978 --     1 C    0.960
    18   1 H    0.986 --     3 C    0.954
    19   1 H    0.978 --    10 C    0.960
    20   1 H    0.960 --    10 C    0.943
    21   1 H    0.961 --    10 C    0.943
    22   1 H    0.965 --    14 C    0.949
    23   1 H    0.964 --    14 C    0.948
    24   1 H    0.980 --    14 C    0.962
    25   1 H    0.016
 ---------------------------------------------------------------------------

molecular dipole:
                 x           y           z       tot (Debye)
 q only:        1.606      -1.617      -0.023
   full:        1.878      -1.495      -0.014       6.101

           -------------------------------------------------
          | TOTAL ENERGY              -42.132367008197 Eh   |
          | GRADIENT NORM               0.002111427191 Eh/α |
          | HOMO-LUMO GAP               0.709425901324 eV   |
           -------------------------------------------------

 * finished run on 2024/06/05 at 20:00:13.292
