   * xtb version 6.6.1 (8d0f1dd) compiled by 'conda@1efc2f54142f' on 2023-08-01
          program call               : xtb struc.xyz --opt loose --input .xc1 --gfn2

   ID    Z sym.   atoms
    1    6 C      1, 3, 5-7, 10, 11, 14
    2    7 N      2, 4, 9, 13
    3    8 O      8, 12
    4    1 H      15-25
constraining bond 7 11 to    5.0000000 Å, actual value:    2.4967489 Å

          :  Hamiltonian                  GFN2-xTB          :
 * total energy  :   -31.0566641 Eh     change       -0.6633627E-10 Eh
 * total energy  :   -35.0770739 Eh     change       -0.4020410E+01 Eh
 * total energy  :   -38.0497801 Eh     change       -0.2972706E+01 Eh
 * total energy  :   -40.2499709 Eh     change       -0.2200191E+01 Eh
 * total energy  :   -41.3836589 Eh     change       -0.1133688E+01 Eh
 * total energy  :   -41.6557231 Eh     change       -0.2720642E+00 Eh
 * total energy  :   -41.6774524 Eh     change       -0.2172930E-01 Eh
 * total energy  :   -41.7054642 Eh     change       -0.2801181E-01 Eh
 * total energy  :   -41.7112452 Eh     change       -0.5780970E-02 Eh
 * total energy  :   -41.6967734 Eh     change        0.1447181E-01 Eh
 * total energy  :   -42.0120297 Eh     change       -0.3349446E-04 Eh
 * total energy  :   -42.0121118 Eh     change       -0.8211601E-04 Eh
 * total energy  :   -42.0121923 Eh     change       -0.8051924E-04 Eh
 * total energy  :   -42.0122947 Eh     change       -0.1024393E-03 Eh
 * total energy  :   -42.0124101 Eh     change       -0.1153558E-03 Eh
 * total energy  :   -42.0124634 Eh     change       -0.5333005E-04 Eh
 * total energy  :   -42.0125162 Eh     change       -0.5280505E-04 Eh
 * total energy  :   -42.0125549 Eh     change       -0.3863082E-04 Eh
 * total energy  :   -42.0125856 Eh     change       -0.3073621E-04 Eh
   *** GEOMETRY OPTIMIZATION CONVERGED AFTER 67 ITERATIONS ***

 final structure:
================
25
 xtb: 6.6.1 (8d0f1dd)
C            3.26537987733370        1.17018482068855       -0.15824205980080
N            2.31076775963842        0.10001151321211       -0.01686445723162
C            2.62138579276425       -1.19216475894747        0.02044834404117
N            1.52045402894896       -1.92854763197118        0.15996406862369
C            0.40262021164514       -1.06924352208686        0.22664593901236
C            0.96188615709533        0.23698502108804        0.10604430196671
C            0.21637332074480        1.50421709897965        0.09473365643262
O            0.75216620785044        2.60147345033856       -0.05385407024273
N           -1.08800425918908        1.30914140200479        0.25174355174721
C           -2.06732312899280        2.29311014128630        0.32635355489259
C           -3.29902949202116       -1.47194899310286       -1.85045616381468
O           -3.76534521762362       -0.44916304989440       -1.78936540933516
N           -0.83627065528839       -1.34722279601938        0.36026993691426
C           -1.43884533641394       -2.61049807370576        0.42490321700239
H            3.91185139343409        1.21546731626090        0.71866637498196
H            3.87936571970842        1.00960279310977       -1.04376876228631
H            2.72281604693668        2.11271900473462       -0.25145704948231
H            3.62155900061607       -1.57898782752255       -0.05256392019585
H           -1.65334531590706        3.31051135924464        0.31827691095793
H           -2.76352604196325        2.17928978700750       -0.51307712778299
H           -2.64662175155438        2.14552539473776        1.24505153280037
H           -0.75950074642741       -3.46565865574214        0.49792583336293
H           -2.06958944793486       -2.71071106460391       -0.47471354672272
H           -2.13728615010728       -2.60996180847717        1.26726256742396
H            1.49849354078887       -2.93589237911601        0.21724439463820

          :  Hamiltonian                  GFN2-xTB          :
         :: total energy             -42.012585606282 Eh    ::
         :: gradient norm              0.001882188428 Eh/a0 ::
         :: HOMO-LUMO gap              0.228112916663 eV    ::
         :: SCC energy               -42.550756814895 Eh    ::
         :: -> dispersion             -0.020179604989 Eh    ::
         :: repulsion energy           0.537997134922 Eh    ::

    * Orbital Energies and Occupations

         #    Occupation            Energy/Eh            Energy/eV
      -------------------------------------------------------------
         1        2.0000           -0.9001056             -24.4931
       ...           ...                  ...                  ...
        25        2.0000           -0.6570664             -17.8797
        26        2.0000           -0.6542062             -17.8019
        27        2.0000           -0.6353698             -17.2893
        28        2.0000           -0.6278207             -17.0839
        29        2.0000           -0.6238728             -16.9764
        30        2.0000           -0.6168181             -16.7845
        31        2.0000           -0.6106345             -16.6162
        32        2.0000           -0.6032123             -16.4142
        33        1.9989           -0.5718769             -15.5616
        34        1.9833           -0.5499693             -14.9654
        35        1.9311           -0.5385155             -14.6538
        36        1.7557           -0.5277411             -14.3606
        37        1.4166           -0.5191521             -14.1268 (HOMO)
        38        0.9144           -0.5107691             -13.8987 (LUMO)
        39        0.0000           -0.4183957             -11.3851
        40        0.0000           -0.3809344             -10.3658
        41        0.0000           -0.3802578             -10.3473
        42                         -0.3653122              -9.9407
        43                         -0.2863840              -7.7929
        44                         -0.1873181              -5.0972
        45                         -0.1524731              -4.1490
        46                         -0.0771618              -2.0997
        47                         -0.0683054              -1.8587
        48                         -0.0274806              -0.7478
       ...                                ...                  ...
        67                          0.7217469              19.6397
      -------------------------------------------------------------
                  HL-Gap            0.0083830 Eh            0.2281 eV

     #   Z          covCN         q      C6AA      α(0)
     1   6 C        3.693    -0.097    22.549     6.794
     2   7 N        2.823     0.089    19.702     6.592
     3   6 C        3.013     0.073    26.343     8.419
     4   7 N        2.783    -0.078    22.756     7.085
     5   6 C        2.966     0.140    24.941     8.192
     6   6 C        3.101     0.012    27.617     8.612
     7   6 C        2.757     0.282    22.218     7.719
     8   8 O        0.858    -0.396    21.605     6.232
     9   7 N        1.841    -0.155    25.152     7.432
    10   6 C        3.692    -0.037    21.413     6.621
    11   6 C        0.856     0.048    33.669     9.682
    12   8 O        0.856    -0.033    15.559     5.288
    13   7 N        1.826    -0.161    25.278     7.450
    14   6 C        3.694    -0.051    21.678     6.661
    15   1 H        0.924     0.106     1.732     2.058
    16   1 H        0.925     0.103     1.756     2.072
    17   1 H        0.924     0.147     1.412     1.858
    18   1 H        0.926     0.122     1.597     1.976
    19   1 H        0.923     0.119     1.624     1.993
    20   1 H        0.924     0.120     1.615     1.987
    21   1 H        0.924     0.120     1.613     1.986
    22   1 H        0.924     0.057     2.233     2.337
    23   1 H        0.923     0.133     1.510     1.922
    24   1 H        0.924     0.114     1.664     2.017
    25   1 H        0.860     0.223     0.997     1.564

Wiberg/Mayer (AO) data.
largest (>0.10) Wiberg bond orders for each atom

     #   Z sym  total        # sym  WBO       # sym  WBO       # sym  WBO
 ---------------------------------------------------------------------------
     1   6 C    3.902 --     2 N    0.980    16 H    0.962    15 H    0.958
                            17 H    0.947
     2   7 N    3.718 --     3 C    1.357     6 C    1.227     1 C    0.980
     3   6 C    3.830 --     2 N    1.357     4 N    1.355    18 H    0.950
     4   7 N    3.537 --     3 C    1.355     5 C    1.053    25 H    0.921
     5   6 C    3.954 --    13 N    1.550     6 C    1.200     4 N    1.053
     6   6 C    3.722 --     2 N    1.227     5 C    1.200     7 C    1.035
     7   6 C    3.938 --     8 O    1.537     9 N    1.289     6 C    1.035
     8   8 O    1.815 --     7 C    1.537     9 N    0.135
     9   7 N    2.644 --     7 C    1.289    10 C    1.121     8 O    0.135
    10   6 C    3.877 --     9 N    1.121    19 H    0.906    21 H    0.904
                            20 H    0.903
    11   6 C    2.659 --    12 O    2.615
    12   8 O    2.623 --    11 C    2.615
    13   7 N    2.824 --     5 C    1.550    14 C    1.091
    14   6 C    3.919 --    13 N    1.091    22 H    0.958    24 H    0.925
                            23 H    0.876
    15   1 H    0.987 --     1 C    0.958
    16   1 H    0.987 --     1 C    0.962
    17   1 H    0.978 --     1 C    0.947
    18   1 H    0.984 --     3 C    0.950
    19   1 H    0.911 --    10 C    0.906
    20   1 H    0.930 --    10 C    0.903
    21   1 H    0.930 --    10 C    0.904
    22   1 H    0.977 --    14 C    0.958
    23   1 H    0.939 --    14 C    0.876
    24   1 H    0.956 --    14 C    0.925
    25   1 H    0.950 --     4 N    0.921
 ---------------------------------------------------------------------------

molecular dipole:
                 x           y           z       tot (Debye)
 q only:        1.498      -1.955       0.248
   full:        1.685      -2.142       0.253       6.956

           -------------------------------------------------
          | TOTAL ENERGY              -42.012585606282 Eh   |
          | GRADIENT NORM               0.001882188428 Eh/α |
          | HOMO-LUMO GAP               0.228112916663 eV   |
           -------------------------------------------------

 * finished run on 2024/06/05 at 19:58:02.688
