   * xtb version 6.6.1 (8d0f1dd) compiled by 'conda@1efc2f54142f' on 2023-08-01
          program call               : xtb xtbopt.xyz --opt crude --input .xc2 --gfn2

   ID    Z sym.   atoms
    1    6 C      1, 3, 5-7, 10, 11, 14
    2    7 N      2, 4, 9, 13
    3    8 O      8, 12
    4    1 H      15-25

          :  Hamiltonian                  GFN2-xTB          :
 * total energy  :   -42.0125856 Eh     change        0.9166001E-12 Eh
 * total energy  :   -42.0126220 Eh     change       -0.3637756E-04 Eh
   *** GEOMETRY OPTIMIZATION CONVERGED AFTER 2 ITERATIONS ***

 final structure:
================
25
 xtb: 6.6.1 (8d0f1dd)
C            3.26596886285222        1.17006130516065       -0.15724602187479
N            2.31076667311450        0.10000911527650       -0.01756607571771
C            2.62105603651717       -1.19243158720483        0.01754018918784
N            1.51974640930871       -1.92859567067491        0.15664313387388
C            0.40244099632115       -1.06860219575893        0.22579179065382
C            0.96205541467741        0.23726225979734        0.10630383181838
C            0.21599062440865        1.50381248385011        0.09680764567580
O            0.75128136768081        2.60209252463003       -0.04946830585032
N           -1.08881350638884        1.30704969636311        0.25053670213644
C           -2.06958182232267        2.28922050853167        0.32372693574624
C           -3.30147737533021       -1.47340815369157       -1.83418674766283
O           -3.74985082825942       -0.44103026905162       -1.80301719142488
N           -0.83625485585604       -1.34522172566291        0.36324778294971
C           -1.44011480921358       -2.60784628880397        0.42691223107758
H            3.91250269978184        1.21308756890340        0.71958956017886
H            3.88037409412951        1.01091634817814       -1.04264891730346
H            2.72444994780812        2.11315405523733       -0.24882338580439
H            3.62104453462498       -1.57978986632857       -0.05620701324607
H           -1.65707260905087        3.30701429900371        0.31670502287074
H           -2.76370383106429        2.17505059756667       -0.51732073781003
H           -2.65032036969036        2.14073656104530        1.24145280020760
H           -0.76155622019453       -3.46431877393352        0.49138917725347
H           -2.07713108670965       -2.70374874190335       -0.46743047852559
H           -2.12863024044213       -2.61010561862446        1.27594768901591
H            1.49726140737954       -2.93612989040198        0.21249200047681

          :  Hamiltonian                  GFN2-xTB          :
         :: total energy             -42.012621990757 Eh    ::
         :: gradient norm              0.001914915660 Eh/a0 ::
         :: HOMO-LUMO gap              0.227200447335 eV    ::
         :: SCC energy               -42.550906886824 Eh    ::
         :: -> dispersion             -0.020194756538 Eh    ::
         :: repulsion energy           0.538110604704 Eh    ::

    * Orbital Energies and Occupations

         #    Occupation            Energy/Eh            Energy/eV
      -------------------------------------------------------------
         1        2.0000           -0.8999975             -24.4902
       ...           ...                  ...                  ...
        25        2.0000           -0.6570750             -17.8799
        26        2.0000           -0.6540915             -17.7987
        27        2.0000           -0.6352608             -17.2863
        28        2.0000           -0.6278089             -17.0836
        29        2.0000           -0.6238121             -16.9748
        30        2.0000           -0.6167848             -16.7836
        31        2.0000           -0.6105816             -16.6148
        32        2.0000           -0.6033284             -16.4174
        33        1.9990           -0.5721939             -15.5702
        34        1.9834           -0.5498958             -14.9634
        35        1.9314           -0.5384421             -14.6518
        36        1.7556           -0.5276232             -14.3574
        37        1.4154           -0.5190131             -14.1231 (HOMO)
        38        0.9151           -0.5106637             -13.8959 (LUMO)
        39        0.0000           -0.4183642             -11.3843
        40        0.0000           -0.3815025             -10.3812
        41        0.0000           -0.3808978             -10.3648
        42                         -0.3652767              -9.9397
        43                         -0.2862962              -7.7905
        44                         -0.1873994              -5.0994
        45                         -0.1524521              -4.1484
        46                         -0.0771413              -2.0991
        47                         -0.0680376              -1.8514
        48                         -0.0273189              -0.7434
       ...                                ...                  ...
        67                          0.7206423              19.6097
      -------------------------------------------------------------
                  HL-Gap            0.0083495 Eh            0.2272 eV

     #   Z          covCN         q      C6AA      α(0)
     1   6 C        3.693    -0.097    22.547     6.794
     2   7 N        2.823     0.089    19.703     6.593
     3   6 C        3.013     0.073    26.344     8.419
     4   7 N        2.783    -0.078    22.758     7.085
     5   6 C        2.966     0.140    24.943     8.192
     6   6 C        3.101     0.012    27.616     8.612
     7   6 C        2.757     0.282    22.221     7.719
     8   8 O        0.858    -0.396    21.609     6.232
     9   7 N        1.841    -0.155    25.153     7.433
    10   6 C        3.692    -0.036    21.412     6.621
    11   6 C        0.856     0.049    33.654     9.680
    12   8 O        0.856    -0.033    15.554     5.288
    13   7 N        1.826    -0.161    25.278     7.450
    14   6 C        3.695    -0.052    21.688     6.662
    15   1 H        0.924     0.106     1.733     2.058
    16   1 H        0.925     0.103     1.756     2.072
    17   1 H        0.924     0.147     1.413     1.859
    18   1 H        0.926     0.122     1.597     1.976
    19   1 H        0.923     0.119     1.624     1.993
    20   1 H        0.924     0.120     1.616     1.988
    21   1 H        0.924     0.120     1.614     1.987
    22   1 H        0.924     0.057     2.234     2.338
    23   1 H        0.923     0.134     1.505     1.919
    24   1 H        0.924     0.114     1.663     2.017
    25   1 H        0.860     0.223     0.997     1.564

Wiberg/Mayer (AO) data.
largest (>0.10) Wiberg bond orders for each atom

     #   Z sym  total        # sym  WBO       # sym  WBO       # sym  WBO
 ---------------------------------------------------------------------------
     1   6 C    3.902 --     2 N    0.980    16 H    0.962    15 H    0.958
                            17 H    0.947
     2   7 N    3.718 --     3 C    1.357     6 C    1.227     1 C    0.980
     3   6 C    3.830 --     2 N    1.357     4 N    1.355    18 H    0.950
     4   7 N    3.537 --     3 C    1.355     5 C    1.053    25 H    0.921
     5   6 C    3.954 --    13 N    1.550     6 C    1.200     4 N    1.053
     6   6 C    3.722 --     2 N    1.227     5 C    1.200     7 C    1.036
     7   6 C    3.938 --     8 O    1.537     9 N    1.289     6 C    1.036
     8   8 O    1.815 --     7 C    1.537     9 N    0.135
     9   7 N    2.644 --     7 C    1.289    10 C    1.121     8 O    0.135
    10   6 C    3.877 --     9 N    1.121    19 H    0.906    21 H    0.904
                            20 H    0.903
    11   6 C    2.661 --    12 O    2.615
    12   8 O    2.623 --    11 C    2.615
    13   7 N    2.824 --     5 C    1.550    14 C    1.091
    14   6 C    3.918 --    13 N    1.091    22 H    0.958    24 H    0.925
                            23 H    0.875
    15   1 H    0.987 --     1 C    0.958
    16   1 H    0.988 --     1 C    0.962
    17   1 H    0.978 --     1 C    0.947
    18   1 H    0.984 --     3 C    0.950
    19   1 H    0.911 --    10 C    0.906
    20   1 H    0.930 --    10 C    0.903
    21   1 H    0.930 --    10 C    0.904
    22   1 H    0.977 --    14 C    0.958
    23   1 H    0.939 --    14 C    0.875
    24   1 H    0.956 --    14 C    0.925
    25   1 H    0.950 --     4 N    0.921
 ---------------------------------------------------------------------------

molecular dipole:
                 x           y           z       tot (Debye)
 q only:        1.487      -1.962       0.242
   full:        1.680      -2.146       0.238       6.953

           -------------------------------------------------
          | TOTAL ENERGY              -42.012621990757 Eh   |
          | GRADIENT NORM               0.001914915660 Eh/α |
          | HOMO-LUMO GAP               0.227200447335 eV   |
           -------------------------------------------------

 * finished run on 2024/06/05 at 19:58:02.849
