   * xtb version 6.6.1 (8d0f1dd) compiled by 'conda@1efc2f54142f' on 2023-08-01
          program call               : xtb struc.xyz --opt loose --input .xc1 --gfn2

   ID    Z sym.   atoms
    1    6 C      1, 3, 5-7, 10, 11, 14
    2    7 N      2, 4, 9, 13
    3    8 O      8, 12
    4    1 H      15-25
constraining bond 9 11 to    3.9200000 Å, actual value:    1.3842352 Å

          :  Hamiltonian                  GFN2-xTB          :
 * total energy  :   -30.7641279 Eh     change       -0.6633627E-10 Eh
 * total energy  :   -34.8903080 Eh     change       -0.4126180E+01 Eh
 * total energy  :   -38.3199690 Eh     change       -0.3429661E+01 Eh
 * total energy  :   -40.5169684 Eh     change       -0.2196999E+01 Eh
 * total energy  :   -41.5331578 Eh     change       -0.1016189E+01 Eh
 * total energy  :   -41.7239905 Eh     change       -0.1908327E+00 Eh
 * total energy  :   -41.7409472 Eh     change       -0.1695680E-01 Eh
 * total energy  :   -41.7662973 Eh     change       -0.2535007E-01 Eh
 * total energy  :   -41.8054603 Eh     change       -0.3916298E-01 Eh
 * total energy  :   -41.8243488 Eh     change       -0.1888846E-01 Eh
 * total energy  :   -42.0725400 Eh     change       -0.3240017E-03 Eh
 * total energy  :   -42.0728501 Eh     change       -0.3101556E-03 Eh
 * total energy  :   -42.0730572 Eh     change       -0.2071007E-03 Eh
 * total energy  :   -42.0732037 Eh     change       -0.1464945E-03 Eh
 * total energy  :   -42.0732333 Eh     change       -0.2957454E-04 Eh
 * total energy  :   -42.0734822 Eh     change       -0.2489188E-03 Eh
 * total energy  :   -42.0735576 Eh     change       -0.7539209E-04 Eh
 * total energy  :   -42.0736234 Eh     change       -0.6583829E-04 Eh
 * total energy  :   -42.0736690 Eh     change       -0.4558933E-04 Eh
   *** GEOMETRY OPTIMIZATION CONVERGED AFTER 87 ITERATIONS ***

 final structure:
================
25
 xtb: 6.6.1 (8d0f1dd)
C            2.52662457729208        1.29184703085130        0.00817126967773
N            1.81472571420820        0.04378979672051        0.04416828930811
C            2.33633150370674       -1.16733726342901        0.17055030069505
N            1.35757652111178       -2.08872478564238        0.13277643301165
C            0.16731382004838       -1.43816568361373       -0.02891850285814
C            0.45841393799565       -0.09040438144597       -0.07398456355313
C           -0.60251151308583        0.91195197363327       -0.30229309783967
O           -0.45227077691055        1.76698734866420       -1.36125789261262
N           -0.30632873466348        2.32640218210320       -0.03342178973594
C           -1.41220389580353        3.16878484953135        0.35960378454129
C           -2.14982998528037       -1.10606428024216       -0.15789756789873
O           -1.88455920891280        0.20013908909189       -0.17732235502537
N           -1.10016321875660       -1.94929772521354       -0.11004660585403
C           -1.32864663532713       -3.37826393814551       -0.08344077966840
H            2.24604663907033        1.90478816812945        0.86500911233985
H            3.59747904366566        1.10704087342858        0.02018855673475
H            2.25372795277948        1.84037146830732       -0.89440901909839
H            3.38041802110375       -1.38922900966094        0.27841256518848
H           -1.11191575252874        4.19946431087937        0.17552198415087
H           -2.32549065310427        2.94215760119352       -0.19509021795245
H           -1.58507909795935        3.02006965065808        1.42579897225511
H           -0.99452331211762       -3.80516168587988        0.86452112903631
H           -0.81477491518550       -3.86613639371728       -0.91354405786087
H           -2.39956264265416       -3.53805639144441       -0.18300794725674
H            1.48963412540539       -3.08871426316704        0.20108361817290

          :  Hamiltonian                  GFN2-xTB          :
         :: total energy             -42.073669029576 Eh    ::
         :: gradient norm              0.003569864565 Eh/a0 ::
         :: HOMO-LUMO gap              2.540037915085 eV    ::
         :: SCC energy               -42.535143999588 Eh    ::
         :: -> dispersion             -0.022073379310 Eh    ::
         :: repulsion energy           0.460509584023 Eh    ::

    * Orbital Energies and Occupations

         #    Occupation            Energy/Eh            Energy/eV
      -------------------------------------------------------------
         1        2.0000           -0.9208020             -25.0563
       ...           ...                  ...                  ...
        25        2.0000           -0.6651787             -18.1004
        26        2.0000           -0.6622152             -18.0198
        27        2.0000           -0.6459047             -17.5760
        28        2.0000           -0.6432617             -17.5040
        29        2.0000           -0.6301611             -17.1476
        30        2.0000           -0.6248273             -17.0024
        31        2.0000           -0.6232928             -16.9607
        32        2.0000           -0.6207199             -16.8906
        33        2.0000           -0.5935357             -16.1509
        34        2.0000           -0.5844051             -15.9025
        35        1.9999           -0.5594461             -15.2233
        36        1.9988           -0.5369272             -14.6105
        37        1.9948           -0.5250787             -14.2881 (HOMO)
        38        0.0058           -0.4317340             -11.7481 (LUMO)
        39        0.0006           -0.4132705             -11.2457
        40        0.0000           -0.3569703              -9.7137
        41                         -0.2890426              -7.8653
        42                         -0.2349460              -6.3932
        43                         -0.2004742              -5.4552
        44                         -0.1787755              -4.8647
        45                         -0.1581814              -4.3043
        46                         -0.1362684              -3.7081
        47                         -0.0805586              -2.1921
        48                         -0.0514159              -1.3991
       ...                                ...                  ...
        67                          0.4098706              11.1531
      -------------------------------------------------------------
                  HL-Gap            0.0933447 Eh            2.5400 eV

     #   Z          covCN         q      C6AA      α(0)
     1   6 C        3.693    -0.094    22.486     6.785
     2   7 N        2.844     0.083    19.799     6.609
     3   6 C        3.069     0.057    26.658     8.466
     4   7 N        2.807    -0.057    22.343     7.020
     5   6 C        3.058     0.111    25.496     8.281
     6   6 C        3.123    -0.008    28.026     8.669
     7   6 C        3.590     0.321    16.338     5.857
     8   8 O        1.756    -0.259    18.286     5.774
     9   7 N        2.717    -0.089    22.980     7.120
    10   6 C        3.686    -0.047    21.614     6.655
    11   6 C        1.812     0.018    30.710     8.954
    12   8 O        1.698    -0.211    17.509     5.649
    13   7 N        2.733     0.007    21.138     6.828
    14   6 C        3.702    -0.078    22.161     6.731
    15   1 H        0.924     0.123     1.591     1.972
    16   1 H        0.925     0.107     1.726     2.054
    17   1 H        0.924     0.130     1.537     1.939
    18   1 H        0.926     0.129     1.545     1.944
    19   1 H        0.925     0.089     1.885     2.147
    20   1 H        0.924     0.077     2.007     2.215
    21   1 H        0.924     0.075     2.031     2.229
    22   1 H        0.924     0.079     1.988     2.205
    23   1 H        0.924     0.080     1.975     2.198
    24   1 H        0.925     0.122     1.600     1.978
    25   1 H        0.860     0.235     0.944     1.522

Wiberg/Mayer (AO) data.
largest (>0.10) Wiberg bond orders for each atom

     #   Z sym  total        # sym  WBO       # sym  WBO       # sym  WBO
 ---------------------------------------------------------------------------
     1   6 C    3.917 --     2 N    0.986    16 H    0.974    17 H    0.954
                            15 H    0.953
     2   7 N    3.728 --     3 C    1.400     6 C    1.189     1 C    0.986
     3   6 C    3.932 --     2 N    1.400     4 N    1.304    18 H    0.951
     4   7 N    3.617 --     3 C    1.304     5 C    1.186    25 H    0.916
     5   6 C    3.958 --     6 C    1.428     4 N    1.186    13 N    1.139
     6   6 C    3.944 --     5 C    1.428     2 N    1.189     7 C    1.007
     7   6 C    3.911 --     6 C    1.007     8 O    0.953     9 N    0.929
                            12 O    0.891
     8   8 O    2.011 --     7 C    0.953     9 N    0.897
     9   7 N    2.954 --    10 C    1.013     7 C    0.929     8 O    0.897
    10   6 C    3.955 --     9 N    1.013    20 H    0.974    19 H    0.969
                            21 H    0.966
    11   6 C    2.856 --    13 N    1.311    12 O    1.303
    12   8 O    2.406 --    11 C    1.303     7 C    0.891
    13   7 N    3.627 --    11 C    1.311     5 C    1.139    14 C    0.980
    14   6 C    3.937 --    13 N    0.980    23 H    0.973    22 H    0.972
                            24 H    0.970
    15   1 H    0.985 --     1 C    0.953
    16   1 H    0.988 --     1 C    0.974
    17   1 H    0.983 --     1 C    0.954
    18   1 H    0.982 --     3 C    0.951
    19   1 H    0.990 --    10 C    0.969
    20   1 H    0.994 --    10 C    0.974
    21   1 H    0.994 --    10 C    0.966
    22   1 H    0.993 --    14 C    0.972
    23   1 H    0.993 --    14 C    0.973
    24   1 H    0.985 --    14 C    0.970
    25   1 H    0.944 --     4 N    0.916
 ---------------------------------------------------------------------------

molecular dipole:
                 x           y           z       tot (Debye)
 q only:        2.565      -2.045       0.832
   full:        3.027      -2.233       0.818       9.784

           -------------------------------------------------
          | TOTAL ENERGY              -42.073669029576 Eh   |
          | GRADIENT NORM               0.003569864565 Eh/α |
          | HOMO-LUMO GAP               2.540037915085 eV   |
           -------------------------------------------------

 * finished run on 2024/06/05 at 19:58:05.374
