   * xtb version 6.6.1 (8d0f1dd) compiled by 'conda@1efc2f54142f' on 2023-08-01
          program call               : xtb xtbopt.xyz --opt crude --input .xc2 --gfn2

   ID    Z sym.   atoms
    1    6 C      1, 3, 5-7, 10, 11, 14
    2    7 N      2, 4, 9, 13
    3    8 O      8, 12
    4    1 H      15-25
########################################################################
[WARNING] Please study the warnings concerning your input carefully
-1- readin_getIntValue: could not parse ''
########################################################################

          :  Hamiltonian                  GFN2-xTB          :
 * total energy  :   -42.0745190 Eh     change        0.7105427E-13 Eh
 * total energy  :   -42.0817183 Eh     change       -0.7199287E-02 Eh
 * total energy  :   -42.0839685 Eh     change       -0.2250182E-02 Eh
 * total energy  :   -42.0843315 Eh     change       -0.3630146E-03 Eh
   *** GEOMETRY OPTIMIZATION CONVERGED AFTER 4 ITERATIONS ***

 final structure:
================
25
 xtb: 6.6.1 (8d0f1dd)
C            2.55581855604852        1.29011724143863        0.00178691377543
N            1.85249427363789        0.03749022628668        0.02974159096705
C            2.36656385209859       -1.17528802119685        0.17249512670277
N            1.38202251038985       -2.09558874436186        0.13641908848197
C            0.19888448519281       -1.43648771936734       -0.04227122555228
C            0.50050306401978       -0.09738687568966       -0.10001594413467
C           -0.57199663815124        0.88315425462420       -0.34372179671097
O           -0.41737995886220        1.76212743252201       -1.38387381727124
N           -0.36936023420881        2.23461608238493       -0.01326966539409
C           -1.47747817701883        3.07665201421319        0.36899624990005
C           -2.09972419272081       -0.98818886202515       -0.13267961059677
O           -1.84207467127041        0.27618693584779       -0.19838637855488
N           -1.08921078754011       -1.88939917365784       -0.10569635377159
C           -1.36745440416970       -3.31100048730862       -0.07404176089821
H            2.26090286370187        1.89879573376944        0.85745173630840
H            3.62812439289311        1.11352084955828        0.02245548524381
H            2.28396639920445        1.83845528649874       -0.90103909129845
H            3.40809171519393       -1.39831370745864        0.29369070181339
H           -1.17175971501736        4.10173705508336        0.16753865501429
H           -2.39446302566522        2.84670553747812       -0.17366021206613
H           -1.63273533575341        2.94617794229906        1.43808153336081
H           -1.03204910361760       -3.74863735589970        0.86755391678547
H           -0.87469360632619       -3.80932965234130       -0.91030513197413
H           -2.44258302453818       -3.44247816103936       -0.16377772613862
H            1.50602227657670       -3.09539929006791        0.21769933390623

          :  Hamiltonian                  GFN2-xTB          :
         :: total energy             -42.084331500904 Eh    ::
         :: gradient norm              0.005351313970 Eh/a0 ::
         :: HOMO-LUMO gap              2.341736750509 eV    ::
         :: SCC energy               -42.560549993716 Eh    ::
         :: -> dispersion             -0.022237172194 Eh    ::
         :: repulsion energy           0.476096584467 Eh    ::

    * Orbital Energies and Occupations

         #    Occupation            Energy/Eh            Energy/eV
      -------------------------------------------------------------
         1        2.0000           -0.9203768             -25.0447
       ...           ...                  ...                  ...
        25        2.0000           -0.6666620             -18.1408
        26        2.0000           -0.6625529             -18.0290
        27        2.0000           -0.6491109             -17.6632
        28        2.0000           -0.6441358             -17.5278
        29        2.0000           -0.6320240             -17.1982
        30        2.0000           -0.6241354             -16.9836
        31        2.0000           -0.6232286             -16.9589
        32        2.0000           -0.6210555             -16.8998
        33        2.0000           -0.5940819             -16.1658
        34        2.0000           -0.5865920             -15.9620
        35        2.0000           -0.5590096             -15.2114
        36        1.9990           -0.5343272             -14.5398
        37        1.9916           -0.5171923             -14.0735 (HOMO)
        38        0.0089           -0.4311350             -11.7318 (LUMO)
        39        0.0005           -0.4088540             -11.1255
        40        0.0000           -0.3531758              -9.6104
        41                         -0.2801587              -7.6235
        42                         -0.2065230              -5.6198
        43                         -0.1800413              -4.8992
        44                         -0.1591715              -4.3313
        45                         -0.1426586              -3.8819
        46                         -0.1289330              -3.5084
        47                         -0.0730859              -1.9888
        48                         -0.0513077              -1.3962
       ...                                ...                  ...
        67                          0.4238958              11.5348
      -------------------------------------------------------------
                  HL-Gap            0.0860572 Eh            2.3417 eV

     #   Z          covCN         q      C6AA      α(0)
     1   6 C        3.692    -0.093    22.470     6.783
     2   7 N        2.842     0.084    19.787     6.607
     3   6 C        3.078     0.056    26.661     8.465
     4   7 N        2.808    -0.059    22.372     7.025
     5   6 C        3.063     0.110    25.507     8.282
     6   6 C        3.139    -0.015    28.155     8.684
     7   6 C        3.614     0.341    15.967     5.767
     8   8 O        1.755    -0.273    18.524     5.812
     9   7 N        2.720    -0.099    23.185     7.151
    10   6 C        3.687    -0.046    21.605     6.653
    11   6 C        1.820     0.015    30.797     8.966
    12   8 O        1.707    -0.180    17.026     5.571
    13   7 N        2.735    -0.006    21.368     6.865
    14   6 C        3.701    -0.078    22.157     6.731
    15   1 H        0.924     0.122     1.595     1.975
    16   1 H        0.925     0.107     1.724     2.053
    17   1 H        0.924     0.129     1.540     1.941
    18   1 H        0.926     0.128     1.547     1.945
    19   1 H        0.925     0.090     1.875     2.142
    20   1 H        0.925     0.076     2.016     2.221
    21   1 H        0.925     0.077     2.008     2.216
    22   1 H        0.924     0.078     1.995     2.209
    23   1 H        0.924     0.080     1.978     2.199
    24   1 H        0.925     0.120     1.610     1.984
    25   1 H        0.860     0.235     0.946     1.523

Wiberg/Mayer (AO) data.
largest (>0.10) Wiberg bond orders for each atom

     #   Z sym  total        # sym  WBO       # sym  WBO       # sym  WBO
 ---------------------------------------------------------------------------
     1   6 C    3.917 --     2 N    0.986    16 H    0.974    17 H    0.954
                            15 H    0.953
     2   7 N    3.727 --     3 C    1.400     6 C    1.191     1 C    0.986
     3   6 C    3.928 --     2 N    1.400     4 N    1.299    18 H    0.951
     4   7 N    3.613 --     3 C    1.299     5 C    1.185    25 H    0.917
     5   6 C    3.959 --     6 C    1.429     4 N    1.185    13 N    1.143
     6   6 C    3.943 --     5 C    1.429     2 N    1.191     7 C    0.998
     7   6 C    3.916 --     6 C    0.998     9 N    0.955     8 O    0.929
                            12 O    0.920
     8   8 O    1.976 --     7 C    0.929     9 N    0.885
     9   7 N    2.959 --    10 C    1.007     7 C    0.955     8 O    0.885
    10   6 C    3.952 --     9 N    1.007    20 H    0.974    19 H    0.971
                            21 H    0.965
    11   6 C    2.841 --    12 O    1.327    13 N    1.284
    12   8 O    2.454 --    11 C    1.327     7 C    0.920
    13   7 N    3.614 --    11 C    1.284     5 C    1.143    14 C    0.981
    14   6 C    3.937 --    13 N    0.981    23 H    0.973    22 H    0.973
                            24 H    0.971
    15   1 H    0.985 --     1 C    0.953
    16   1 H    0.988 --     1 C    0.974
    17   1 H    0.983 --     1 C    0.954
    18   1 H    0.983 --     3 C    0.951
    19   1 H    0.990 --    10 C    0.971
    20   1 H    0.994 --    10 C    0.974
    21   1 H    0.994 --    10 C    0.965
    22   1 H    0.993 --    14 C    0.973
    23   1 H    0.993 --    14 C    0.973
    24   1 H    0.985 --    14 C    0.971
    25   1 H    0.944 --     4 N    0.917
 ---------------------------------------------------------------------------

molecular dipole:
                 x           y           z       tot (Debye)
 q only:        2.479      -2.027       0.858
   full:        2.967      -2.231       0.818       9.663

           -------------------------------------------------
          | TOTAL ENERGY              -42.084331500904 Eh   |
          | GRADIENT NORM               0.005351313970 Eh/α |
          | HOMO-LUMO GAP               2.341736750509 eV   |
           -------------------------------------------------

 * finished run on 2024/06/05 at 19:58:05.609
