   * xtb version 6.6.1 (8d0f1dd) compiled by 'conda@1efc2f54142f' on 2023-08-01
          program call               : xtb struc.xyz --opt loose --input .xc1 --gfn2

   ID    Z sym.   atoms
    1    7 N      1, 17
    2    6 C      2-6, 8, 9, 11-16, 18-23, 25, 26, 28-33
    3    8 O      7, 10, 24, 27
    4    1 H      34-72
constraining bond 45 46 to    3.2800000 Å, actual value:    1.7695073 Å

          :  Hamiltonian                  GFN2-xTB          :
 * total energy  :   -98.9967460 Eh     change       -0.4035485E-08 Eh
 * total energy  :   -99.1594494 Eh     change       -0.1627033E+00 Eh
 * total energy  :   -99.2344252 Eh     change       -0.7497583E-01 Eh
 * total energy  :   -99.2557184 Eh     change       -0.2129317E-01 Eh
 * total energy  :   -99.2604687 Eh     change       -0.4750319E-02 Eh
 * total energy  :   -99.2623838 Eh     change       -0.1915134E-02 Eh
 * total energy  :   -99.2654693 Eh     change       -0.3085449E-02 Eh
 * total energy  :   -99.2705786 Eh     change       -0.5109320E-02 Eh
 * total energy  :   -99.2784519 Eh     change       -0.7873284E-02 Eh
 * total energy  :   -99.2936454 Eh     change       -0.1519356E-01 Eh
 * total energy  :   -99.3642022 Eh     change       -0.1368053E-03 Eh
 * total energy  :   -99.3643214 Eh     change       -0.1192046E-03 Eh
 * total energy  :   -99.3644680 Eh     change       -0.1465579E-03 Eh
 * total energy  :   -99.3645504 Eh     change       -0.8246213E-04 Eh
 * total energy  :   -99.3646273 Eh     change       -0.7682223E-04 Eh
 * total energy  :   -99.3646883 Eh     change       -0.6108020E-04 Eh
 * total energy  :   -99.3647710 Eh     change       -0.8263754E-04 Eh
 * total energy  :   -99.3648403 Eh     change       -0.6935710E-04 Eh
 * total energy  :   -99.3648893 Eh     change       -0.4895827E-04 Eh
   *** GEOMETRY OPTIMIZATION CONVERGED AFTER 73 ITERATIONS ***

 final structure:
================
72
 xtb: 6.6.1 (8d0f1dd)
N           -2.67684891022275        2.97163494622905        2.59496760649794
C           -2.42169512717451        2.06272293659678        1.77810183020064
C           -3.25259124566936        1.77308993430897        0.55374082588018
C           -3.92671651786124        0.41747393782966        0.70397921308847
C           -4.62779393692072       -0.12885513535294       -0.37168746189293
C           -5.25807031544170       -1.35908255669674       -0.27695734155200
O           -5.97355024763923       -1.94490070527439       -1.25699433812551
C           -6.20712498304258       -1.24696171094314       -2.45721153200072
C           -5.16752149792209       -2.10101864327361        0.93396407930535
O           -5.77991834325118       -3.29814252073502        0.92741692038830
C           -5.75609900664464       -4.08933909534051        2.09378556785653
C           -4.47942461025022       -1.54535036484346        2.00278981231457
C           -3.87754822900813       -0.30111538505688        1.89095751491974
C           -2.21844890157605        1.68746975987750       -0.61121560194699
C           -1.24849202845423        0.59370205231677       -0.42698118824119
C            0.20205387965578        0.79811877541644       -0.73263026020116
N            0.88804609945657       -0.46750800727501       -0.82876221160303
C            2.28966296084010       -0.48561262877712       -0.50140241841735
C            3.23476590840224        0.00309744358614       -1.62545508372254
C            4.64044388456537        0.15548344855519       -1.12645084729281
C            5.26398527264479        1.39568417063499       -1.11694245129601
C            6.56774496640959        1.53708543626133       -0.66915075330136
C            7.27600203408426        0.43995927669399       -0.19741671668108
O            8.53935015295789        0.45719374754258        0.26052716163558
C            9.26227121557876        1.66706704573754        0.24891402186207
C            6.63971425365043       -0.83514586319206       -0.18227866372975
O            7.38800375342397       -1.84089074709509        0.30771141495959
C            6.83630577367122       -3.13318198931890        0.39904729757530
C            5.34263332363014       -0.95349704185652       -0.65664634881450
C            0.49824258948405       -1.27188028612145       -1.96022423652531
C           -4.33726968403199        2.84726403114731        0.26597826068751
C           -5.40420891236313        2.85590460253396        1.35938245557027
C           -3.77050495887545        4.25355086048372        0.09016694805259
H           -4.69404334865358        0.41955842296642       -1.29719225257148
H           -6.72251671040227       -0.29866361699128       -2.27524054778269
H           -6.84727537891563       -1.89538723030878       -3.05236942789389
H           -5.27676789921369       -1.06061988603954       -3.00349289989568
H           -6.23921446818922       -3.58000027573897        2.93310473190764
H           -6.31514522768607       -4.98995368526997        1.84776840233253
H           -4.73289640871559       -4.36205650475316        2.37099368298128
H           -4.41079678056429       -2.07388603399694        2.93947818382681
H           -3.37507939811004        0.10708654437780        2.75359165477100
H           -2.78305905443349        1.54262135798198       -1.54031671600880
H           -1.69016526306795        2.63819212968088       -0.71044205353197
H           -1.61927642359942       -0.32053352619949        0.06243433080217
H            0.40906305113767        1.46420784906780       -1.62847433048399
H           -1.54602573045535        1.39524573180908        1.84379854826615
H            0.64857723027141        1.34576712073006        0.11458561398078
H            2.55200883906634       -1.51441380117816       -0.23858869824284
H            2.44235794681417        0.13566969196529        0.38493829236031
H            2.87801496005712        0.96283813308948       -2.00369000752046
H            3.21216530812095       -0.71951399601865       -2.44441073332546
H            4.73738098956600        2.26669365202265       -1.47627087029778
H            7.02676574374013        2.51197421367657       -0.69081172857233
H            8.79119213526892        2.42192696176820        0.88579076036142
H            9.36746500116375        2.05953411835273       -0.76705838639559
H           10.24591606064484        1.42310805576115        0.64561342668434
H            7.61206568566267       -3.75133716677280        0.84696922506641
H            5.94889174606072       -3.14429512190385        1.03990060983214
H            6.58126682261517       -3.53183506224183       -0.58770775223239
H            4.86539589961246       -1.92032045798880       -0.67385566378298
H            0.78826332794438       -0.82334381813370       -2.92128862437127
H           -0.58471774149781       -1.38903914452512       -1.95538690798695
H            0.95828877221949       -2.25534215132672       -1.87895580255866
H           -4.82247782939799        2.56197634503797       -0.67454751230046
H           -4.96458324816465        3.16296229681277        2.30336907342180
H           -5.84963856896341        1.87137204108162        1.48218779320299
H           -6.19127220361144        3.55862870480693        1.09803818183029
H           -3.24697606789033        4.56536922592605        0.98914638462959
H           -3.09545319406811        4.31859604878695       -0.75993540914687
H           -4.58934949608705        4.94747901695570       -0.08385393413634
H           -2.04723209342656        3.09985361468163        3.38042272993962

          :  Hamiltonian                  GFN2-xTB          :
         :: total energy             -99.364889287879 Eh    ::
         :: gradient norm              0.002008862151 Eh/a0 ::
         :: HOMO-LUMO gap              0.936470985519 eV    ::
         :: SCC energy              -100.722053207070 Eh    ::
         :: -> dispersion             -0.071646651835 Eh    ::
         :: repulsion energy           1.354774084833 Eh    ::

    * Orbital Energies and Occupations

         #    Occupation            Energy/Eh            Energy/eV
      -------------------------------------------------------------
         1        2.0000           -0.8117431             -22.0887
       ...           ...                  ...                  ...
        78        1.9974           -0.5302106             -14.4278
        79        1.9971           -0.5284266             -14.3792
        80        1.9961           -0.5238896             -14.2558
        81        1.9948           -0.5194049             -14.1337
        82        1.9940           -0.5171675             -14.0728
        83        1.9932           -0.5151034             -14.0167
        84        1.9916           -0.5117917             -13.9266
        85        1.9702           -0.4915193             -13.3749
        86        1.9651           -0.4889871             -13.3060
        87        1.9048           -0.4725996             -12.8601
        88        1.8569           -0.4657487             -12.6737
        89        1.8021           -0.4601414             -12.5211
        90        1.7183           -0.4537978             -12.3485 (HOMO)
        91        0.8195           -0.4193831             -11.4120 (LUMO)
        92        0.0086           -0.3388843              -9.2215
        93        0.0021           -0.3168941              -8.6231
        94        0.0018           -0.3139007              -8.5417
        95        0.0017           -0.3129330              -8.5153
        96        0.0014           -0.3099802              -8.4350
        97        0.0000           -0.1914987              -5.2109
        98        0.0000           -0.1876668              -5.1067
        99                         -0.1017403              -2.7685
       100                         -0.0658263              -1.7912
       101                         -0.0621279              -1.6906
       ...                                ...                  ...
       171                          0.5745746              15.6350
      -------------------------------------------------------------
                  HL-Gap            0.0344147 Eh            0.9365 eV

     #   Z          covCN         q      C6AA      α(0)
     1   7 N        1.774    -0.261    27.596     7.779
     2   6 C        2.828     0.103    25.704     8.308
     3   6 C        3.909     0.009    20.367     6.415
     4   6 C        2.974     0.008    27.840     8.655
     5   6 C        2.920    -0.075    29.882     8.964
     6   6 C        2.862     0.133    25.082     8.209
     7   8 O        1.706    -0.223    17.695     5.679
     8   6 C        3.644     0.026    20.469     6.503
     9   6 C        2.864     0.134    25.067     8.207
    10   8 O        1.706    -0.219    17.632     5.669
    11   6 C        3.645     0.024    20.502     6.507
    12   6 C        2.913    -0.067    29.677     8.933
    13   6 C        2.921    -0.044    29.101     8.846
    14   6 C        3.815    -0.063    21.695     6.629
    15   6 C        2.886    -0.050    29.227     8.863
    16   6 C        3.744     0.007    20.530     6.464
    17   7 N        2.729    -0.115    23.512     7.202
    18   6 C        3.749    -0.005    20.723     6.493
    19   6 C        3.806    -0.071    21.854     6.655
    20   6 C        2.966     0.009    27.823     8.652
    21   6 C        2.922    -0.044    29.089     8.845
    22   6 C        2.913    -0.065    29.627     8.925
    23   6 C        2.864     0.135    25.039     8.202
    24   8 O        1.706    -0.215    17.573     5.660
    25   6 C        3.645     0.023    20.515     6.510
    26   6 C        2.862     0.136    25.035     8.201
    27   8 O        1.706    -0.219    17.628     5.669
    28   6 C        3.645     0.025    20.484     6.505
    29   6 C        2.919    -0.077    29.916     8.969
    30   6 C        3.702    -0.049    21.622     6.649
    31   6 C        3.852    -0.008    20.688     6.469
    32   6 C        3.756    -0.119    22.829     6.813
    33   6 C        3.755    -0.118    22.824     6.812
    34   1 H        0.926     0.052     2.296     2.369
    35   1 H        0.924     0.056     2.252     2.347
    36   1 H        0.925     0.083     1.945     2.181
    37   1 H        0.924     0.050     2.322     2.383
    38   1 H        0.924     0.058     2.218     2.329
    39   1 H        0.925     0.084     1.941     2.179
    40   1 H        0.924     0.055     2.258     2.350
    41   1 H        0.926     0.060     2.201     2.320
    42   1 H        0.926     0.048     2.348     2.396
    43   1 H        0.924     0.083     1.951     2.185
    44   1 H        0.924     0.063     2.159     2.298
    45   1 H        0.923     0.061     2.190     2.314
    46   1 H        0.916     0.048     2.347     2.396
    47   1 H        0.923     0.017     2.778     2.606
    48   1 H        0.923     0.074     2.046     2.237
    49   1 H        0.924     0.056     2.250     2.346
    50   1 H        0.924     0.048     2.349     2.397
    51   1 H        0.924     0.046     2.365     2.405
    52   1 H        0.924     0.057     2.234     2.337
    53   1 H        0.926     0.051     2.307     2.375
    54   1 H        0.926     0.061     2.189     2.313
    55   1 H        0.924     0.058     2.227     2.334
    56   1 H        0.924     0.059     2.211     2.326
    57   1 H        0.925     0.084     1.933     2.174
    58   1 H        0.925     0.084     1.941     2.179
    59   1 H        0.924     0.053     2.286     2.365
    60   1 H        0.924     0.056     2.247     2.344
    61   1 H        0.926     0.052     2.291     2.367
    62   1 H        0.923     0.043     2.413     2.429
    63   1 H        0.925     0.058     2.221     2.331
    64   1 H        0.925     0.061     2.190     2.314
    65   1 H        0.924     0.039     2.468     2.457
    66   1 H        0.925     0.071     2.073     2.251
    67   1 H        0.925     0.037     2.492     2.469
    68   1 H        0.925     0.053     2.286     2.365
    69   1 H        0.925     0.063     2.164     2.300
    70   1 H        0.925     0.034     2.527     2.486
    71   1 H        0.925     0.056     2.248     2.345
    72   1 H        0.860     0.164     1.312     1.794

Wiberg/Mayer (AO) data.
largest (>0.10) Wiberg bond orders for each atom

     #   Z sym  total        # sym  WBO       # sym  WBO       # sym  WBO
 ---------------------------------------------------------------------------
     1   7 N    3.023 --     2 C    1.961    72 H    0.938
     2   6 C    3.933 --     1 N    1.961     3 C    0.988    47 H    0.920
     3   6 C    3.948 --     2 C    0.988     4 C    0.970    31 C    0.951
                            14 C    0.927
     4   6 C    3.932 --    13 C    1.400     5 C    1.374     3 C    0.970
     5   6 C    3.953 --     6 C    1.396     4 C    1.374    34 H    0.955
     6   6 C    3.890 --     5 C    1.396     9 C    1.213     7 O    1.106
     7   8 O    2.250 --     6 C    1.106     8 C    0.977
     8   6 C    3.929 --     7 O    0.977    36 H    0.976    35 H    0.973
                            37 H    0.972
     9   6 C    3.885 --    12 C    1.380     6 C    1.213    10 O    1.113
    10   8 O    2.251 --     9 C    1.113    11 C    0.975
    11   6 C    3.926 --    39 H    0.977    10 O    0.975    40 H    0.972
                            38 H    0.972
    12   6 C    3.953 --    13 C    1.417     9 C    1.380    41 H    0.962
    13   6 C    3.939 --    12 C    1.417     4 C    1.400    42 H    0.961
    14   6 C    3.977 --    15 C    1.095    44 H    0.956     3 C    0.927
                            43 H    0.910
    15   6 C    3.220 --    14 C    1.095    16 C    1.062    45 H    0.962
    16   6 C    3.968 --    15 C    1.062    17 N    1.008    46 H    0.928
                            48 H    0.916
    17   7 N    3.116 --    18 C    1.016    30 C    1.015    16 C    1.008
    18   6 C    3.964 --    17 N    1.016    50 H    0.970    49 H    0.964
                            19 C    0.959
    19   6 C    3.967 --    20 C    1.018    51 H    0.974    52 H    0.961
                            18 C    0.959
    20   6 C    3.925 --    21 C    1.393    29 C    1.377    19 C    1.018
    21   6 C    3.926 --    22 C    1.421    20 C    1.393    53 H    0.967
    22   6 C    3.948 --    21 C    1.421    23 C    1.375    54 H    0.962
    23   6 C    3.871 --    22 C    1.375    26 C    1.206    24 O    1.117
    24   8 O    2.247 --    23 C    1.117    25 C    0.975
    25   6 C    3.924 --    57 H    0.976    24 O    0.975    56 H    0.971
                            55 H    0.971
    26   6 C    3.881 --    29 C    1.393    23 C    1.206    27 O    1.111
    27   8 O    2.249 --    26 C    1.111    28 C    0.977
    28   6 C    3.928 --    27 O    0.977    58 H    0.976    59 H    0.972
                            60 H    0.971
    29   6 C    3.949 --    26 C    1.393    20 C    1.377    61 H    0.961
    30   6 C    3.964 --    17 N    1.015    64 H    0.979    63 H    0.974
                            62 H    0.963
    31   6 C    3.972 --    33 C    1.008    32 C    1.006    65 H    0.957
                             3 C    0.951
    32   6 C    3.973 --    31 C    1.006    67 H    0.981    68 H    0.981
                            66 H    0.972
    33   6 C    3.979 --    31 C    1.008    70 H    0.981    71 H    0.979
                            69 H    0.975
    34   1 H    0.996 --     5 C    0.955
    35   1 H    0.992 --     8 C    0.973
    36   1 H    0.992 --     8 C    0.976
    37   1 H    0.992 --     8 C    0.972
    38   1 H    0.990 --    11 C    0.972
    39   1 H    0.992 --    11 C    0.977
    40   1 H    0.990 --    11 C    0.972
    41   1 H    0.994 --    12 C    0.962
    42   1 H    0.997 --    13 C    0.961
    43   1 H    0.944 --    14 C    0.910
    44   1 H    0.986 --    14 C    0.956
    45   1 H    0.995 --    15 C    0.962
    46   1 H    0.961 --    16 C    0.928
    47   1 H    0.978 --     2 C    0.920
    48   1 H    0.946 --    16 C    0.916
    49   1 H    0.990 --    18 C    0.964
    50   1 H    0.996 --    18 C    0.970
    51   1 H    0.997 --    19 C    0.974
    52   1 H    0.991 --    19 C    0.961
    53   1 H    0.996 --    21 C    0.967
    54   1 H    0.994 --    22 C    0.962
    55   1 H    0.989 --    25 C    0.971
    56   1 H    0.989 --    25 C    0.971
    57   1 H    0.992 --    25 C    0.976
    58   1 H    0.992 --    28 C    0.976
    59   1 H    0.991 --    28 C    0.972
    60   1 H    0.990 --    28 C    0.971
    61   1 H    0.995 --    29 C    0.961
    62   1 H    0.978 --    30 C    0.963
    63   1 H    0.992 --    30 C    0.974
    64   1 H    0.994 --    30 C    0.979
    65   1 H    0.990 --    31 C    0.957
    66   1 H    0.989 --    32 C    0.972
    67   1 H    0.996 --    32 C    0.981
    68   1 H    0.993 --    32 C    0.981
    69   1 H    0.992 --    33 C    0.975
    70   1 H    0.996 --    33 C    0.981
    71   1 H    0.993 --    33 C    0.979
    72   1 H    0.965 --     1 N    0.938
 ---------------------------------------------------------------------------

molecular dipole:
                 x           y           z       tot (Debye)
 q only:        0.486       0.024      -0.269
   full:        0.878       0.015      -0.383       2.436

           -------------------------------------------------
          | TOTAL ENERGY              -99.364889287879 Eh   |
          | GRADIENT NORM               0.002008862151 Eh/α |
          | HOMO-LUMO GAP               0.936470985519 eV   |
           -------------------------------------------------

 * finished run on 2024/04/06 at 11:15:13.858
