   * xtb version 6.6.1 (8d0f1dd) compiled by 'conda@1efc2f54142f' on 2023-08-01
          program call               : xtb xtbopt.xyz --opt crude --input .xc2 --gfn2

   ID    Z sym.   atoms
    1    7 N      1, 17
    2    6 C      2-6, 8, 9, 11-16, 18-23, 25, 26, 28-33
    3    8 O      7, 10, 24, 27
    4    1 H      34-72
########################################################################
[WARNING] Please study the warnings concerning your input carefully
-1- readin_getIntValue: could not parse ''
########################################################################

          :  Hamiltonian                  GFN2-xTB          :
 * total energy  :   -99.3664249 Eh     change       -0.5840661E-11 Eh
 * total energy  :   -99.3688386 Eh     change       -0.2413676E-02 Eh
 * total energy  :   -99.3691319 Eh     change       -0.2933529E-03 Eh
   *** GEOMETRY OPTIMIZATION CONVERGED AFTER 3 ITERATIONS ***

 final structure:
================
72
 xtb: 6.6.1 (8d0f1dd)
N           -2.67627876783749        2.97134654214103        2.59570898575315
C           -2.42154265837434        2.06337557088009        1.77801534139655
C           -3.25191152651600        1.77466811521705        0.55324458515602
C           -3.92317779246462        0.41739716983274        0.70209446213334
C           -4.62360107597949       -0.13015443273200       -0.37336211061833
C           -5.25530622557262       -1.35958789131291       -0.27738297443089
O           -5.96950013383597       -1.94705595918791       -1.25727067982671
C           -6.20239769827897       -1.25025453994159       -2.45842990596284
C           -5.16791309750762       -2.09911492699716        0.93512271248345
O           -5.78249043745540       -3.29510334461553        0.92959698237199
C           -5.75965393408678       -4.08667336769139        2.09539075339385
C           -4.48075782779461       -1.54223897698839        2.00378370045338
C           -3.87678535964338       -0.29906647544246        1.89029054120783
C           -2.21640523708917        1.69813242728621       -0.61065070052992
C           -1.23467016561011        0.61744757935808       -0.42363037525323
C            0.20502644412248        0.79161637091792       -0.71119619013205
N            0.88780616612153       -0.47447066915006       -0.81407622242205
C            2.29169215432259       -0.49158266416195       -0.49615081994021
C            3.23158784831460        0.00211701573350       -1.62208146675997
C            4.63833274033142        0.15535876848245       -1.12582895125838
C            5.26124686637485        1.39591506154456       -1.11454573662674
C            6.56519097411289        1.53746213907835       -0.66713024677505
C            7.27463042600233        0.44010560631418       -0.19787232903566
O            8.53812168768964        0.45745384750452        0.25981496200680
C            9.26029539704225        1.66756948423850        0.25036102371545
C            6.63917475162054       -0.83524296806718       -0.18489160938814
O            7.38858646809139       -1.84104472522103        0.30304351778483
C            6.83860208042805       -3.13411764036820        0.39224426169625
C            5.34199507343234       -0.95379373988562       -0.65885796673962
C            0.49620505272763       -1.27038439162546       -1.95089784354835
C           -4.33753775236162        2.84770094242548        0.26555479897560
C           -5.40449815011310        2.85550316424805        1.35871806328854
C           -3.77234839486478        4.25481401008512        0.09031960913211
H           -4.68880935595864        0.41732994233653       -1.29937893744057
H           -6.71641249469260       -0.30128425255356       -2.27735808309450
H           -6.84341486208479       -1.89882134986438       -3.05243265555404
H           -5.27180948495536       -1.06583522842989       -3.00473571220909
H           -6.24330621545105       -3.57801187391215        2.93434097821477
H           -6.31880920387238       -4.98695281950097        1.84809679652962
H           -4.73699278124434       -4.35945817520215        2.37337831824121
H           -4.41512168989686       -2.06905886104045        2.94165178599614
H           -3.37650552209909        0.11051921402823        2.75338298206925
H           -2.77890695969200        1.54210140566171       -1.53990433164013
H           -1.69908126577607        2.65496948587004       -0.71001995910227
H           -1.56239454118321       -0.32392596427790       -0.01212044571355
H            0.32558669483287        1.41551300064589       -1.61944392477987
H           -1.54590289286892        1.39523708807266        1.84220790597651
H            0.67467798296078        1.35991495794789        0.10864123692375
H            2.55729524349712       -1.52063628378801       -0.23946221032300
H            2.44918588761163        0.12596447939025        0.39156022745619
H            2.87145970447850        0.96164605431593       -1.99659971726660
H            3.20899908793533       -0.71785383344949       -2.44287756218049
H            4.73362246597393        2.26700240018532       -1.47206906298747
H            7.02357756157023        2.51267353234882       -0.68708739688138
H            8.78902557129311        2.42069242840559        0.88893119098189
H            9.36464928462396        2.06218350397835       -0.76468774368907
H           10.24428436526986        1.42347086617292        0.64611711527183
H            7.61552371051859       -3.75181758693988        0.83862457723329
H            5.95165227436547       -3.14770400594694        1.03352138865398
H            6.58362305317858       -3.53121844909113       -0.59499565125335
H            4.86612031467439       -1.92109040644345       -0.67777281848339
H            0.78747677252782       -0.81643033373679       -2.90777355755447
H           -0.58633825129484       -1.38807358556636       -1.94771565600048
H            0.95587719719481       -2.25364867688041       -1.87603414792271
H           -4.82226470865104        2.56222196643335       -0.67517398136540
H           -4.96520676167838        3.16325198011472        2.30238823528423
H           -5.84872005323744        1.87068941344798        1.48170774080954
H           -6.19205713578206        3.55745737225218        1.09733970886872
H           -3.24844375425037        4.56622378248538        0.98870336686380
H           -3.09876826937208        4.32167643223198       -0.76012740111555
H           -4.59140519263590        4.94810309510665       -0.08224285898096
H           -2.04716807422003        3.09902170584352        3.38163693107137

          :  Hamiltonian                  GFN2-xTB          :
         :: total energy             -99.369131951328 Eh    ::
         :: gradient norm              0.003751754053 Eh/a0 ::
         :: HOMO-LUMO gap              0.946456694636 eV    ::
         :: SCC energy              -100.733995000943 Eh    ::
         :: -> dispersion             -0.071645360680 Eh    ::
         :: repulsion energy           1.364010060542 Eh    ::

    * Orbital Energies and Occupations

         #    Occupation            Energy/Eh            Energy/eV
      -------------------------------------------------------------
         1        2.0000           -0.8116826             -22.0870
       ...           ...                  ...                  ...
        78        1.9974           -0.5303136             -14.4306
        79        1.9971           -0.5283001             -14.3758
        80        1.9961           -0.5237683             -14.2525
        81        1.9948           -0.5192798             -14.1303
        82        1.9941           -0.5173482             -14.0778
        83        1.9933           -0.5151682             -14.0184
        84        1.9917           -0.5118334             -13.9277
        85        1.9702           -0.4913806             -13.3711
        86        1.9652           -0.4888943             -13.3035
        87        1.9063           -0.4727294             -12.8636
        88        1.8596           -0.4659414             -12.6789
        89        1.8020           -0.4599962             -12.5171
        90        1.7205           -0.4538033             -12.3486 (HOMO)
        91        0.8126           -0.4190217             -11.4022 (LUMO)
        92        0.0086           -0.3388003              -9.2192
        93        0.0021           -0.3166615              -8.6168
        94        0.0018           -0.3136969              -8.5361
        95        0.0017           -0.3128155              -8.5121
        96        0.0014           -0.3098574              -8.4316
        97        0.0000           -0.1912857              -5.2051
        98        0.0000           -0.1875278              -5.1029
        99                         -0.1021814              -2.7805
       100                         -0.0655986              -1.7850
       101                         -0.0618900              -1.6841
       ...                                ...                  ...
       171                          0.5747673              15.6402
      -------------------------------------------------------------
                  HL-Gap            0.0347816 Eh            0.9465 eV

     #   Z          covCN         q      C6AA      α(0)
     1   7 N        1.774    -0.261    27.592     7.779
     2   6 C        2.829     0.104    25.698     8.307
     3   6 C        3.909     0.010    20.358     6.413
     4   6 C        2.974     0.008    27.843     8.655
     5   6 C        2.920    -0.075    29.884     8.965
     6   6 C        2.862     0.133    25.084     8.209
     7   8 O        1.706    -0.223    17.696     5.680
     8   6 C        3.644     0.026    20.469     6.503
     9   6 C        2.864     0.134    25.068     8.207
    10   8 O        1.706    -0.219    17.631     5.669
    11   6 C        3.645     0.024    20.502     6.508
    12   6 C        2.913    -0.067    29.675     8.933
    13   6 C        2.921    -0.044    29.099     8.846
    14   6 C        3.815    -0.062    21.673     6.626
    15   6 C        2.890    -0.051    29.268     8.870
    16   6 C        3.751     0.005    20.548     6.465
    17   7 N        2.729    -0.117    23.541     7.206
    18   6 C        3.749    -0.005    20.722     6.492
    19   6 C        3.806    -0.071    21.861     6.656
    20   6 C        2.966     0.009    27.823     8.652
    21   6 C        2.922    -0.044    29.091     8.845
    22   6 C        2.913    -0.065    29.627     8.925
    23   6 C        2.864     0.135    25.039     8.202
    24   8 O        1.706    -0.215    17.574     5.660
    25   6 C        3.645     0.023    20.514     6.510
    26   6 C        2.862     0.136    25.036     8.201
    27   8 O        1.706    -0.219    17.629     5.669
    28   6 C        3.645     0.025    20.484     6.505
    29   6 C        2.919    -0.077    29.917     8.970
    30   6 C        3.703    -0.049    21.619     6.648
    31   6 C        3.852    -0.008    20.688     6.469
    32   6 C        3.756    -0.119    22.830     6.813
    33   6 C        3.755    -0.119    22.826     6.812
    34   1 H        0.926     0.052     2.297     2.370
    35   1 H        0.924     0.056     2.252     2.347
    36   1 H        0.925     0.083     1.945     2.181
    37   1 H        0.924     0.050     2.323     2.383
    38   1 H        0.924     0.058     2.218     2.329
    39   1 H        0.925     0.084     1.942     2.179
    40   1 H        0.924     0.055     2.258     2.350
    41   1 H        0.926     0.060     2.200     2.319
    42   1 H        0.926     0.048     2.345     2.395
    43   1 H        0.924     0.082     1.956     2.187
    44   1 H        0.924     0.063     2.166     2.302
    45   1 H        0.926     0.060     2.202     2.321
    46   1 H        0.922     0.053     2.279     2.361
    47   1 H        0.923     0.018     2.771     2.603
    48   1 H        0.923     0.074     2.039     2.233
    49   1 H        0.924     0.056     2.250     2.346
    50   1 H        0.924     0.048     2.345     2.395
    51   1 H        0.924     0.046     2.365     2.405
    52   1 H        0.924     0.057     2.235     2.338
    53   1 H        0.926     0.051     2.307     2.375
    54   1 H        0.926     0.061     2.189     2.314
    55   1 H        0.924     0.058     2.228     2.334
    56   1 H        0.924     0.059     2.212     2.326
    57   1 H        0.925     0.084     1.934     2.175
    58   1 H        0.925     0.084     1.941     2.179
    59   1 H        0.924     0.053     2.287     2.365
    60   1 H        0.924     0.056     2.248     2.345
    61   1 H        0.926     0.052     2.291     2.367
    62   1 H        0.923     0.042     2.421     2.433
    63   1 H        0.925     0.057     2.230     2.335
    64   1 H        0.925     0.061     2.189     2.313
    65   1 H        0.924     0.039     2.468     2.457
    66   1 H        0.925     0.071     2.073     2.252
    67   1 H        0.925     0.037     2.492     2.469
    68   1 H        0.925     0.053     2.286     2.364
    69   1 H        0.925     0.063     2.164     2.300
    70   1 H        0.925     0.034     2.527     2.486
    71   1 H        0.925     0.056     2.248     2.344
    72   1 H        0.860     0.164     1.310     1.793

Wiberg/Mayer (AO) data.
largest (>0.10) Wiberg bond orders for each atom

     #   Z sym  total        # sym  WBO       # sym  WBO       # sym  WBO
 ---------------------------------------------------------------------------
     1   7 N    3.024 --     2 C    1.962    72 H    0.937
     2   6 C    3.933 --     1 N    1.962     3 C    0.988    47 H    0.919
     3   6 C    3.946 --     2 C    0.988     4 C    0.971    31 C    0.951
                            14 C    0.926
     4   6 C    3.932 --    13 C    1.401     5 C    1.374     3 C    0.971
     5   6 C    3.953 --     6 C    1.396     4 C    1.374    34 H    0.955
     6   6 C    3.890 --     5 C    1.396     9 C    1.213     7 O    1.106
     7   8 O    2.249 --     6 C    1.106     8 C    0.977
     8   6 C    3.929 --     7 O    0.977    36 H    0.976    35 H    0.973
                            37 H    0.972
     9   6 C    3.884 --    12 C    1.381     6 C    1.213    10 O    1.113
    10   8 O    2.251 --     9 C    1.113    11 C    0.975
    11   6 C    3.926 --    39 H    0.976    10 O    0.975    40 H    0.972
                            38 H    0.972
    12   6 C    3.953 --    13 C    1.417     9 C    1.381    41 H    0.962
    13   6 C    3.939 --    12 C    1.417     4 C    1.401    42 H    0.961
    14   6 C    3.978 --    15 C    1.094    44 H    0.958     3 C    0.926
                            43 H    0.911
    15   6 C    3.230 --    14 C    1.094    16 C    1.068    45 H    0.965
    16   6 C    3.970 --    15 C    1.068    17 N    1.007    46 H    0.926
                            48 H    0.917
    17   7 N    3.116 --    18 C    1.015    30 C    1.015    16 C    1.007
    18   6 C    3.964 --    17 N    1.015    50 H    0.970    49 H    0.964
                            19 C    0.959
    19   6 C    3.968 --    20 C    1.018    51 H    0.974    52 H    0.961
                            18 C    0.959
    20   6 C    3.925 --    21 C    1.393    29 C    1.377    19 C    1.018
    21   6 C    3.926 --    22 C    1.421    20 C    1.393    53 H    0.967
    22   6 C    3.948 --    21 C    1.421    23 C    1.375    54 H    0.962
    23   6 C    3.871 --    22 C    1.375    26 C    1.206    24 O    1.117
    24   8 O    2.247 --    23 C    1.117    25 C    0.975
    25   6 C    3.924 --    57 H    0.976    24 O    0.975    56 H    0.971
                            55 H    0.971
    26   6 C    3.881 --    29 C    1.393    23 C    1.206    27 O    1.111
    27   8 O    2.249 --    26 C    1.111    28 C    0.977
    28   6 C    3.928 --    27 O    0.977    58 H    0.976    59 H    0.972
                            60 H    0.972
    29   6 C    3.949 --    26 C    1.393    20 C    1.377    61 H    0.961
    30   6 C    3.965 --    17 N    1.015    64 H    0.979    63 H    0.975
                            62 H    0.963
    31   6 C    3.972 --    33 C    1.008    32 C    1.006    65 H    0.958
                             3 C    0.951
    32   6 C    3.973 --    31 C    1.006    67 H    0.981    68 H    0.981
                            66 H    0.972
    33   6 C    3.979 --    31 C    1.008    70 H    0.981    71 H    0.979
                            69 H    0.975
    34   1 H    0.996 --     5 C    0.955
    35   1 H    0.992 --     8 C    0.973
    36   1 H    0.992 --     8 C    0.976
    37   1 H    0.992 --     8 C    0.972
    38   1 H    0.990 --    11 C    0.972
    39   1 H    0.992 --    11 C    0.976
    40   1 H    0.990 --    11 C    0.972
    41   1 H    0.994 --    12 C    0.962
    42   1 H    0.997 --    13 C    0.961
    43   1 H    0.944 --    14 C    0.911
    44   1 H    0.988 --    14 C    0.958
    45   1 H    0.996 --    15 C    0.965
    46   1 H    0.957 --    16 C    0.926
    47   1 H    0.979 --     2 C    0.919
    48   1 H    0.947 --    16 C    0.917
    49   1 H    0.990 --    18 C    0.964
    50   1 H    0.996 --    18 C    0.970
    51   1 H    0.997 --    19 C    0.974
    52   1 H    0.991 --    19 C    0.961
    53   1 H    0.996 --    21 C    0.967
    54   1 H    0.994 --    22 C    0.962
    55   1 H    0.989 --    25 C    0.971
    56   1 H    0.989 --    25 C    0.971
    57   1 H    0.992 --    25 C    0.976
    58   1 H    0.992 --    28 C    0.976
    59   1 H    0.991 --    28 C    0.972
    60   1 H    0.990 --    28 C    0.972
    61   1 H    0.995 --    29 C    0.961
    62   1 H    0.978 --    30 C    0.963
    63   1 H    0.992 --    30 C    0.975
    64   1 H    0.994 --    30 C    0.979
    65   1 H    0.990 --    31 C    0.958
    66   1 H    0.989 --    32 C    0.972
    67   1 H    0.996 --    32 C    0.981
    68   1 H    0.993 --    32 C    0.981
    69   1 H    0.992 --    33 C    0.975
    70   1 H    0.996 --    33 C    0.981
    71   1 H    0.993 --    33 C    0.979
    72   1 H    0.965 --     1 N    0.937
 ---------------------------------------------------------------------------

molecular dipole:
                 x           y           z       tot (Debye)
 q only:        0.479       0.040      -0.274
   full:        0.868       0.023      -0.406       2.437

           -------------------------------------------------
          | TOTAL ENERGY              -99.369131951328 Eh   |
          | GRADIENT NORM               0.003751754053 Eh/α |
          | HOMO-LUMO GAP               0.946456694636 eV   |
           -------------------------------------------------

 * finished run on 2024/04/06 at 11:15:14.637
