   * xtb version 6.6.1 (8d0f1dd) compiled by 'conda@1efc2f54142f' on 2023-08-01
          program call               : xtb struc.xyz --opt loose --input .xc1 --gfn2

   ID    Z sym.   atoms
    1    6 C      1, 3, 5-7, 10, 11, 14
    2    7 N      2, 4, 9, 13
    3    8 O      8, 12
    4    1 H      15-25
constraining bond 3 15 to    3.7133300 Å, actual value:    2.8727362 Å

          :  Hamiltonian                  GFN2-xTB          :
 * total energy  :   -43.5095119 Eh     change       -0.6650680E-10 Eh
 * total energy  :   -46.5465476 Eh     change       -0.3037036E+01 Eh
 * total energy  :   -51.3618503 Eh     change       -0.4815303E+01 Eh
 * total energy  :   -57.9206134 Eh     change       -0.6558763E+01 Eh
 * total energy  :   -31.7152400 Eh     change        0.2620537E+02 Eh
 * total energy  :   -56.7234064 Eh     change       -0.2500817E+02 Eh
 * total energy  :   -56.8541159 Eh     change       -0.1307095E+00 Eh
 * total energy  :   -57.7097576 Eh     change       -0.8556418E+00 Eh
 * total energy  :   -58.0917091 Eh     change       -0.3819515E+00 Eh
 * total energy  :   -59.0527346 Eh     change       -0.9610255E+00 Eh
 * total energy  :   -59.7420430 Eh     change       -0.9798064E-04 Eh
 * total energy  :   -59.7420968 Eh     change       -0.5383178E-04 Eh
 * total energy  :   -59.7421853 Eh     change       -0.8844005E-04 Eh
 * total energy  :   -59.7422526 Eh     change       -0.6733439E-04 Eh
 * total energy  :   -59.7423181 Eh     change       -0.6554024E-04 Eh
 * total energy  :   -59.7423787 Eh     change       -0.6051190E-04 Eh
 * total energy  :   -59.7424436 Eh     change       -0.6496948E-04 Eh
 * total energy  :   -59.7424917 Eh     change       -0.4805791E-04 Eh
 * total energy  :   -59.7425181 Eh     change       -0.2636847E-04 Eh
   *** GEOMETRY OPTIMIZATION CONVERGED AFTER 55 ITERATIONS ***

 final structure:
================
25
 xtb: 6.6.1 (8d0f1dd)
C            3.25253855750233        1.19600673862457        0.06803939636269
N            2.19517795199934        0.27862375170947        0.06860587538813
C            3.50959808324085       -0.31269143530478        0.20274778502646
N            1.17521516167563       -2.20262531677732        0.14884615038054
C            0.35363221313168       -1.23485431380547        0.07749734816958
C            0.91540393698852        0.10775506563829        0.02591385832441
C            0.05582057117606        1.30590596358623       -0.06966936227875
O            0.52529802113071        2.42069597988122       -0.12369241911357
N           -1.29101663891973        1.04071811927300       -0.08465004024690
C           -2.21600979807158        2.15803681261403       -0.15852020657351
C           -1.87465601789972       -0.22247422804260       -0.02738588212345
O           -3.06973380737879       -0.34775938799006       -0.04086861221676
N           -1.02296374350574       -1.31897650798483        0.04073153401062
C           -1.64160009431360       -2.63319395143017        0.08743998631674
H            3.63965881165739       -0.49906478915388        0.56111591951459
H            3.44739241660513        1.72759431606059       -0.85675010889175
H            3.35870668189706        1.81903454499873        0.95068595615499
H            3.79508639946994       -0.73632489772063       -0.79989960273351
H           -1.64365997387622        3.06809602904251       -0.32501787223628
H           -2.92500463029052        1.99401945858661       -0.97080389829971
H           -2.78088493462739        2.23664844631943        0.77211460995111
H           -1.39472176396957       -3.13671981898299        1.02362954139097
H           -1.30875768630262       -3.23837794778105       -0.75737996411156
H           -2.72069346639290       -2.50184703619824        0.02901644448842
H            0.82660526317375       -3.14998705356305        0.18942518124674

          :  Hamiltonian                  GFN2-xTB          :
         :: total energy             -59.742518052439 Eh    ::
         :: gradient norm              0.002605911394 Eh/a0 ::
         :: HOMO-LUMO gap              1.714477417188 eV    ::
         :: SCC energy               -42.696375939041 Eh    ::
         :: -> dispersion             -0.021789994975 Eh    ::
         :: repulsion energy           2.268469171468 Eh    ::

    * Orbital Energies and Occupations

         #    Occupation            Energy/Eh            Energy/eV
      -------------------------------------------------------------
         1        2.0000           -0.8963095             -24.3898
       ...           ...                  ...                  ...
        25        1.9994           -0.6590093             -17.9326
        26        1.9993           -0.6566713             -17.8689
        27        1.9989           -0.6482594             -17.6400
        28        1.9988           -0.6472101             -17.6115
        29        1.9980           -0.6398360             -17.4108
        30        1.9966           -0.6310221             -17.1710
        31        1.9961           -0.6287176             -17.1083
        32        1.9920           -0.6175454             -16.8043
        33        1.9708           -0.5968057             -16.2399
        34        1.9496           -0.5879861             -15.9999
        35        1.9390           -0.5848909             -15.9157
        36        1.8888           -0.5749546             -15.6453
        37        1.8640           -0.5715645             -15.5531 (HOMO)
        38        0.4082           -0.5085586             -13.8386 (LUMO)
        39        0.0006           -0.4010362             -10.9128
        40        0.0003           -0.3901789             -10.6173
        41        0.0000           -0.3047914              -8.2938
        42        0.0000           -0.3017789              -8.2118
        43                         -0.2185612              -5.9474
        44                         -0.1751422              -4.7659
        45                         -0.1401865              -3.8147
        46                         -0.0987964              -2.6884
        47                         -0.0690598              -1.8792
        48                         -0.0530849              -1.4445
       ...                                ...                  ...
        67                         10.7248080             291.8369
      -------------------------------------------------------------
                  HL-Gap            0.0630059 Eh            1.7145 eV

     #   Z          covCN         q      C6AA      α(0)
     1   6 C        3.737    -0.020    21.017     6.542
     2   7 N        2.747     0.080    19.856     6.618
     3   6 C        3.731    -0.065    21.853     6.673
     4   7 N        1.791    -0.286    28.250     7.873
     5   6 C        2.827     0.164    24.449     8.102
     6   6 C        2.899     0.040    27.092     8.534
     7   6 C        2.772     0.267    22.488     7.767
     8   8 O        0.858    -0.336    20.449     6.063
     9   7 N        2.740    -0.065    22.508     7.046
    10   6 C        3.707    -0.063    21.857     6.683
    11   6 C        2.716     0.323    21.514     7.593
    12   8 O        0.860    -0.335    20.428     6.060
    13   7 N        2.741    -0.069    22.583     7.058
    14   6 C        3.703    -0.064    21.893     6.690
    15   1 H        0.936     0.194     1.128     1.661
    16   1 H        0.925     0.128     1.551     1.948
    17   1 H        0.925     0.131     1.528     1.933
    18   1 H        0.919     0.122     1.596     1.976
    19   1 H        0.925     0.118     1.627     1.995
    20   1 H        0.924     0.114     1.660     2.015
    21   1 H        0.924     0.112     1.683     2.029
    22   1 H        0.924     0.094     1.845     2.124
    23   1 H        0.924     0.093     1.851     2.128
    24   1 H        0.925     0.124     1.585     1.969
    25   1 H        0.860     0.201     1.101     1.644

Wiberg/Mayer (AO) data.
largest (>0.10) Wiberg bond orders for each atom

     #   Z sym  total        # sym  WBO       # sym  WBO       # sym  WBO
 ---------------------------------------------------------------------------
     1   6 C    3.888 --     2 N    0.985     3 C    0.962    16 H    0.944
                            17 H    0.939
     2   7 N    3.519 --     6 C    1.502     1 C    0.985     3 C    0.941
     3   6 C    3.845 --     1 C    0.962     2 N    0.941    15 H    0.940
                            18 H    0.926
     4   7 N    2.843 --     5 C    1.676    25 H    0.921    13 N    0.121
     5   6 C    3.947 --     4 N    1.676    13 N    1.122     6 C    1.058
     6   6 C    3.781 --     2 N    1.502     5 C    1.058     7 C    1.001
     7   6 C    3.930 --     8 O    1.684     9 N    1.150     6 C    1.001
     8   8 O    1.973 --     7 C    1.684     9 N    0.147
     9   7 N    3.522 --     7 C    1.150    11 C    1.079    10 C    0.974
                             8 O    0.147    12 O    0.103
    10   6 C    3.880 --     9 N    0.974    19 H    0.963    20 H    0.951
                            21 H    0.946
    11   6 C    3.949 --    12 O    1.696    13 N    1.092     9 N    1.079
    12   8 O    2.012 --    11 C    1.696    13 N    0.113     9 N    0.103
    13   7 N    3.492 --     5 C    1.122    11 C    1.092    14 C    0.978
                             4 N    0.121    12 O    0.113
    14   6 C    3.904 --    13 N    0.978    24 H    0.961    23 H    0.959
                            22 H    0.959
    15   1 H    0.959 --     3 C    0.940
    16   1 H    0.973 --     1 C    0.944
    17   1 H    0.971 --     1 C    0.939
    18   1 H    0.969 --     3 C    0.926
    19   1 H    0.980 --    10 C    0.963
    20   1 H    0.969 --    10 C    0.951
    21   1 H    0.965 --    10 C    0.946
    22   1 H    0.977 --    14 C    0.959
    23   1 H    0.978 --    14 C    0.959
    24   1 H    0.981 --    14 C    0.961
    25   1 H    0.951 --     4 N    0.921
 ---------------------------------------------------------------------------

molecular dipole:
                 x           y           z       tot (Debye)
 q only:        2.062      -0.636       0.051
   full:        1.771      -0.840       0.000       4.981

           -------------------------------------------------
          | TOTAL ENERGY              -59.742518052439 Eh   |
          | GRADIENT NORM               0.002605911394 Eh/α |
          | HOMO-LUMO GAP               1.714477417188 eV   |
           -------------------------------------------------

 * finished run on 2024/06/05 at 20:00:23.762
