   * xtb version 6.6.1 (8d0f1dd) compiled by 'conda@1efc2f54142f' on 2023-08-01
          program call               : xtb struc.xyz --opt loose --input .xc1 --gfn2

   ID    Z sym.   atoms
    1    7 N      1, 17
    2    6 C      2-6, 8, 9, 11-16, 18-23, 25, 26, 28-33
    3    8 O      7, 10, 24, 27
    4    1 H      34-72
constraining bond 17 45 to    3.6866700 Å, actual value:    2.6555746 Å

          :  Hamiltonian                  GFN2-xTB          :
 * total energy  :   -99.5939611 Eh     change       -0.4035485E-08 Eh
 * total energy  :   -99.8501543 Eh     change       -0.2561932E+00 Eh
 * total energy  :  -100.1524878 Eh     change       -0.3023335E+00 Eh
 * total energy  :  -100.4785121 Eh     change       -0.3260242E+00 Eh
 * total energy  :   -99.9455660 Eh     change        0.5329460E+00 Eh
 * total energy  :  -100.5383688 Eh     change       -0.5928028E+00 Eh
 * total energy  :  -100.5657425 Eh     change       -0.2737367E-01 Eh
 * total energy  :  -100.6046136 Eh     change       -0.3887115E-01 Eh
 * total energy  :  -100.6228415 Eh     change       -0.1822791E-01 Eh
 * total energy  :  -100.6383284 Eh     change       -0.1548688E-01 Eh
 * total energy  :  -100.7856057 Eh     change       -0.1050538E-03 Eh
 * total energy  :  -100.7857147 Eh     change       -0.1090108E-03 Eh
 * total energy  :  -100.7858193 Eh     change       -0.1046330E-03 Eh
 * total energy  :  -100.7859266 Eh     change       -0.1072823E-03 Eh
 * total energy  :  -100.7860452 Eh     change       -0.1185440E-03 Eh
 * total energy  :  -100.7861637 Eh     change       -0.1185149E-03 Eh
 * total energy  :  -100.7862621 Eh     change       -0.9847370E-04 Eh
 * total energy  :  -100.7863368 Eh     change       -0.7461028E-04 Eh
 * total energy  :  -100.7863643 Eh     change       -0.2752358E-04 Eh
   *** GEOMETRY OPTIMIZATION CONVERGED AFTER 68 ITERATIONS ***

 final structure:
================
72
 xtb: 6.6.1 (8d0f1dd)
N           -2.63314273535236        3.04548167032514        2.78528470188852
C           -2.34363111052099        2.28902725954856        1.83042387020425
C           -3.22272649693835        2.08350294095424        0.62506694749036
C           -3.57726742119028        0.60835690486770        0.51210228058551
C           -4.15693954046658        0.11699289821517       -0.66007292980986
C           -4.48437882325018       -1.22062418940759       -0.79817411572476
O           -5.03460641425823       -1.77868823639505       -1.90402840448019
C           -5.50057332672496       -0.93967153760622       -2.93356400359253
C           -4.23246662358443       -2.11670301859053        0.27144626593414
O           -4.56856206724750       -3.40832095489317        0.04629687864011
C           -4.49395307676768       -4.32192448351562        1.11585415350681
C           -3.68088985376309       -1.61910407073374        1.43976328014060
C           -3.36060531095306       -0.27224921280244        1.55759265627315
C           -2.34681963176219        2.50220912235762       -0.60894192387720
C           -1.45971069587629        1.39454216725187       -1.05700694630616
C           -0.24513188896688        1.14903773214469       -0.55219378151264
N            0.51051246726567       -0.04651281970325       -0.96502086409611
C            1.97795948567676        0.22812772067014       -0.86524872998677
C            2.84811221574453       -0.77883218431359       -1.61761767144580
C            4.28721471684725       -0.50123225053110       -1.25129627685070
C            4.94572758254522        0.60127362820301       -1.76363500165992
C            6.23884268650706        0.90100443711990       -1.35921459783233
C            6.89611965194369        0.10015502748879       -0.43811323731994
O            8.14049570921043        0.30702304506381        0.03650609122277
C            8.86270088964509        1.43322376806272       -0.40566763681700
C            6.23541370256655       -1.04847315720201        0.07226308843209
O            6.95268353662325       -1.78846809705569        0.94493869161289
C            6.41015216199732       -2.99450964323620        1.42720959856211
C            4.93977331559064       -1.32144935951838       -0.33332294781305
C            0.11448056126545       -1.19281465589097       -0.10521323592941
C           -4.53090301825147        2.91783193338002        0.65284835106270
C           -5.42542604960886        2.50020734119100        1.81816170374895
C           -4.28106868872503        4.42258546050798        0.70549020384246
H           -4.37083089724107        0.79794486784229       -1.46777164839986
H           -6.21343007278714       -0.19991520036210       -2.55789124158714
H           -6.00310436198066       -1.59676241486841       -3.64088031787021
H           -4.67729790189076       -0.42740956284480       -3.44445365185308
H           -5.11574333610903       -4.00378750950046        1.95770732256880
H           -4.87265472684100       -5.26337856548161        0.72314496839134
H           -3.46261861977470       -4.46117154971896        1.45662668926964
H           -3.50895936187513       -2.26946206843950        2.28172655064607
H           -2.96272442412876        0.08298404689582        2.49488308322014
H           -3.00931748449751        2.78574567707132       -1.42515542651622
H           -1.75551679254985        3.37318045457115       -0.32566663044081
H            0.32870216247584       -0.21567952416297       -1.68738359743770
H           -1.86057534516194        0.72295895309471       -1.80370924280600
H           -1.40267393310300        1.71862475172663        1.76621099110589
H            0.23378733409255        1.74969183188012        0.19977710847153
H            2.25583166798300        0.24074407180124        0.19015084367243
H            2.15585187527068        1.22349984886469       -1.27747519329901
H            2.70431902335062       -0.66976320293546       -2.69431327963114
H            2.60035766189470       -1.80199634708362       -1.33520976126265
H            4.46262594308321        1.23667168573063       -2.49037647347922
H            6.72761783383544        1.76680853140868       -1.77412021659939
H            8.34678436332424        2.36461495219610       -0.15228584811718
H            9.04348924791131        1.39637232418912       -1.48407780113979
H            9.81438165136936        1.39401579088666        0.12061480026735
H            7.18551820663873       -3.43545074983617        2.05039771547945
H            5.51620736846268       -2.82043051871870        2.03553647785548
H            6.16970734794833       -3.68103152266053        0.60917477877985
H            4.42620322842581       -2.18672874463280        0.05595681620559
H           -0.96486728324300       -1.33119514104965       -0.16552430328752
H            0.38147274772635       -0.99129737190482        0.92965493600063
H            0.61050598545797       -2.10286205932689       -0.43631519163598
H           -5.06501333970798        2.69154933724119       -0.27797438753647
H           -4.94405635782670        2.74179501988208        2.76013460716516
H           -5.63364965424125        1.43322827539176        1.78997628016106
H           -6.36949040570283        3.03544817392096        1.76294358877708
H           -3.74937440374716        4.67988323934470        1.61568664733990
H           -3.71114136649946        4.77083323116591       -0.15207547339319
H           -5.23518261662015        4.94300724082162        0.70708416277364
H           -1.95001127592102        3.12185408406394        3.53361970268125

          :  Hamiltonian                  GFN2-xTB          :
         :: total energy            -100.786364281440 Eh    ::
         :: gradient norm              0.001609795458 Eh/a0 ::
         :: HOMO-LUMO gap              2.567097588237 eV    ::
         :: SCC energy              -100.775491393207 Eh    ::
         :: -> dispersion             -0.074479400541 Eh    ::
         :: repulsion energy           1.513193442356 Eh    ::

    * Orbital Energies and Occupations

         #    Occupation            Energy/Eh            Energy/eV
      -------------------------------------------------------------
         1        2.0000           -0.8588171             -23.3696
       ...           ...                  ...                  ...
        78        1.9994           -0.5275065             -14.3542
        79        1.9991           -0.5219841             -14.2039
        80        1.9991           -0.5207980             -14.1716
        81        1.9989           -0.5185255             -14.1098
        82        1.9987           -0.5156980             -14.0329
        83        1.9980           -0.5082457             -13.8301
        84        1.9975           -0.5051172             -13.7449
        85        1.9973           -0.5035661             -13.7027
        86        1.9920           -0.4865663             -13.2401
        87        1.9910           -0.4846588             -13.1882
        88        1.9576           -0.4598219             -12.5124
        89        1.9412           -0.4545073             -12.3678
        90        1.9372           -0.4534431             -12.3388 (HOMO)
        91        0.1478           -0.3591040              -9.7717 (LUMO)
        92        0.0203           -0.3266270              -8.8880
        93        0.0080           -0.3117986              -8.4845
        94        0.0076           -0.3110085              -8.4630
        95        0.0066           -0.3086283              -8.3982
        96        0.0058           -0.3067231              -8.3464
        97        0.0000           -0.2079121              -5.6576
        98        0.0000           -0.1849879              -5.0338
        99        0.0000           -0.1822210              -4.9585
       100                         -0.1317863              -3.5861
       101                         -0.1255455              -3.4163
       ...                                ...                  ...
       171                          0.6932456              18.8642
      -------------------------------------------------------------
                  HL-Gap            0.0943391 Eh            2.5671 eV

     #   Z          covCN         q      C6AA      α(0)
     1   7 N        1.774    -0.282    28.134     7.854
     2   6 C        2.826     0.099    25.797     8.323
     3   6 C        3.908     0.010    20.356     6.413
     4   6 C        2.974    -0.005    28.149     8.703
     5   6 C        2.921    -0.083    30.085     8.995
     6   6 C        2.862     0.122    25.314     8.247
     7   8 O        1.705    -0.245    18.051     5.736
     8   6 C        3.644     0.032    20.372     6.488
     9   6 C        2.865     0.122    25.319     8.248
    10   8 O        1.705    -0.242    18.008     5.730
    11   6 C        3.645     0.030    20.409     6.493
    12   6 C        2.915    -0.078    29.959     8.975
    13   6 C        2.922    -0.057    29.422     8.895
    14   6 C        3.813    -0.063    21.707     6.631
    15   6 C        2.889    -0.035    28.873     8.810
    16   6 C        2.843    -0.059    29.470     8.897
    17   7 N        3.581     0.039    20.555     6.734
    18   6 C        3.754    -0.033    21.226     6.569
    19   6 C        3.807    -0.075    21.924     6.666
    20   6 C        2.973    -0.011    28.281     8.723
    21   6 C        2.921    -0.055    29.374     8.888
    22   6 C        2.915    -0.070    29.752     8.944
    23   6 C        2.865     0.131    25.130     8.217
    24   8 O        1.706    -0.230    17.813     5.698
    25   6 C        3.645     0.027    20.459     6.501
    26   6 C        2.864     0.130    25.153     8.221
    27   8 O        1.706    -0.233    17.859     5.706
    28   6 C        3.645     0.029    20.419     6.495
    29   6 C        2.920    -0.084    30.104     8.997
    30   6 C        3.701    -0.087    22.338     6.759
    31   6 C        3.853    -0.006    20.654     6.464
    32   6 C        3.756    -0.117    22.796     6.808
    33   6 C        3.755    -0.120    22.863     6.818
    34   1 H        0.926     0.047     2.362     2.403
    35   1 H        0.924     0.051     2.305     2.374
    36   1 H        0.925     0.077     2.013     2.219
    37   1 H        0.924     0.038     2.477     2.461
    38   1 H        0.924     0.053     2.287     2.365
    39   1 H        0.925     0.077     2.010     2.217
    40   1 H        0.924     0.042     2.425     2.435
    41   1 H        0.926     0.048     2.340     2.392
    42   1 H        0.926     0.039     2.463     2.454
    43   1 H        0.925     0.068     2.104     2.269
    44   1 H        0.925     0.060     2.199     2.319
    45   1 H        0.864     0.235     0.942     1.520
    46   1 H        0.925     0.051     2.313     2.378
    47   1 H        0.923    -0.010     3.233     2.812
    48   1 H        0.926     0.072     2.060     2.244
    49   1 H        0.924     0.088     1.901     2.156
    50   1 H        0.924     0.091     1.870     2.139
    51   1 H        0.924     0.057     2.235     2.338
    52   1 H        0.925     0.054     2.266     2.354
    53   1 H        0.926     0.038     2.477     2.461
    54   1 H        0.926     0.056     2.245     2.343
    55   1 H        0.924     0.050     2.322     2.383
    56   1 H        0.924     0.053     2.287     2.365
    57   1 H        0.925     0.080     1.981     2.201
    58   1 H        0.925     0.080     1.983     2.202
    59   1 H        0.924     0.044     2.402     2.424
    60   1 H        0.924     0.049     2.336     2.390
    61   1 H        0.926     0.042     2.426     2.436
    62   1 H        0.925     0.099     1.795     2.095
    63   1 H        0.925     0.098     1.799     2.098
    64   1 H        0.925     0.096     1.826     2.113
    65   1 H        0.924     0.033     2.544     2.494
    66   1 H        0.925     0.066     2.126     2.280
    67   1 H        0.925     0.034     2.532     2.488
    68   1 H        0.925     0.049     2.331     2.387
    69   1 H        0.925     0.066     2.130     2.282
    70   1 H        0.925     0.031     2.566     2.505
    71   1 H        0.925     0.052     2.300     2.372
    72   1 H        0.860     0.151     1.394     1.850

Wiberg/Mayer (AO) data.
largest (>0.10) Wiberg bond orders for each atom

     #   Z sym  total        # sym  WBO       # sym  WBO       # sym  WBO
 ---------------------------------------------------------------------------
     1   7 N    3.012 --     2 C    1.946    72 H    0.946
     2   6 C    3.938 --     1 N    1.946     3 C    0.995    47 H    0.933
     3   6 C    3.968 --     2 C    0.995     4 C    0.972    31 C    0.952
                            14 C    0.915
     4   6 C    3.964 --    13 C    1.428     5 C    1.364     3 C    0.972
     5   6 C    3.969 --     6 C    1.410     4 C    1.364    34 H    0.959
     6   6 C    3.919 --     5 C    1.410     9 C    1.237     7 O    1.081
     7   8 O    2.246 --     6 C    1.081     8 C    0.981
     8   6 C    3.938 --     7 O    0.981    36 H    0.977    35 H    0.975
                            37 H    0.975
     9   6 C    3.918 --    12 C    1.400     6 C    1.237    10 O    1.086
    10   8 O    2.248 --     9 C    1.086    11 C    0.980
    11   6 C    3.936 --    10 O    0.980    39 H    0.978    40 H    0.975
                            38 H    0.975
    12   6 C    3.970 --     9 C    1.400    13 C    1.400    41 H    0.964
    13   6 C    3.969 --     4 C    1.428    12 C    1.400    42 H    0.963
    14   6 C    3.987 --    15 C    1.039    44 H    0.966    43 H    0.964
                             3 C    0.915
    15   6 C    3.853 --    16 C    1.782    14 C    1.039    46 H    0.961
    16   6 C    3.765 --    15 C    1.782    48 H    0.960    17 N    0.915
    17   7 N    3.755 --    30 C    0.946    18 C    0.921    45 H    0.919
                            16 C    0.915
    18   6 C    3.919 --    19 C    0.996    49 H    0.971    50 H    0.967
                            17 N    0.921
    19   6 C    3.985 --    18 C    0.996    20 C    0.994    51 H    0.971
                            52 H    0.969
    20   6 C    3.959 --    21 C    1.426    29 C    1.375    19 C    0.994
    21   6 C    3.970 --    20 C    1.426    22 C    1.408    53 H    0.969
    22   6 C    3.971 --    21 C    1.408    23 C    1.394    54 H    0.964
    23   6 C    3.920 --    22 C    1.394    26 C    1.232    24 O    1.103
    24   8 O    2.266 --    23 C    1.103    25 C    0.977
    25   6 C    3.933 --    57 H    0.977    24 O    0.977    55 H    0.975
                            56 H    0.974
    26   6 C    3.921 --    29 C    1.402    23 C    1.232    27 O    1.095
    27   8 O    2.262 --    26 C    1.095    28 C    0.980
    28   6 C    3.937 --    27 O    0.980    58 H    0.977    60 H    0.975
                            59 H    0.975
    29   6 C    3.968 --    26 C    1.402    20 C    1.375    61 H    0.963
    30   6 C    3.920 --    63 H    0.980    62 H    0.975    64 H    0.972
                            17 N    0.946
    31   6 C    3.982 --    33 C    1.009    32 C    1.006    65 H    0.963
                             3 C    0.952
    32   6 C    3.984 --    31 C    1.006    67 H    0.983    68 H    0.983
                            66 H    0.977
    33   6 C    3.986 --    31 C    1.009    70 H    0.984    71 H    0.982
                            69 H    0.976
    34   1 H    0.997 --     5 C    0.959
    35   1 H    0.996 --     8 C    0.975
    36   1 H    0.994 --     8 C    0.977
    37   1 H    0.997 --     8 C    0.975
    38   1 H    0.995 --    11 C    0.975
    39   1 H    0.994 --    11 C    0.978
    40   1 H    0.996 --    11 C    0.975
    41   1 H    0.996 --    12 C    0.964
    42   1 H    0.998 --    13 C    0.963
    43   1 H    0.994 --    14 C    0.964
    44   1 H    0.994 --    14 C    0.966
    45   1 H    0.944 --    17 N    0.919
    46   1 H    0.997 --    15 C    0.961
    47   1 H    0.991 --     2 C    0.933
    48   1 H    0.995 --    16 C    0.960
    49   1 H    0.992 --    18 C    0.971
    50   1 H    0.992 --    18 C    0.967
    51   1 H    0.996 --    19 C    0.971
    52   1 H    0.997 --    19 C    0.969
    53   1 H    0.998 --    21 C    0.969
    54   1 H    0.996 --    22 C    0.964
    55   1 H    0.995 --    25 C    0.975
    56   1 H    0.995 --    25 C    0.974
    57   1 H    0.993 --    25 C    0.977
    58   1 H    0.993 --    28 C    0.977
    59   1 H    0.996 --    28 C    0.975
    60   1 H    0.996 --    28 C    0.975
    61   1 H    0.997 --    29 C    0.963
    62   1 H    0.990 --    30 C    0.975
    63   1 H    0.990 --    30 C    0.980
    64   1 H    0.990 --    30 C    0.972
    65   1 H    0.996 --    31 C    0.963
    66   1 H    0.993 --    32 C    0.977
    67   1 H    0.998 --    32 C    0.983
    68   1 H    0.995 --    32 C    0.983
    69   1 H    0.994 --    33 C    0.976
    70   1 H    0.998 --    33 C    0.984
    71   1 H    0.995 --    33 C    0.982
    72   1 H    0.974 --     1 N    0.946
 ---------------------------------------------------------------------------

molecular dipole:
                 x           y           z       tot (Debye)
 q only:        1.201      -0.176      -1.091
   full:        1.381      -0.388      -1.291       4.905

           -------------------------------------------------
          | TOTAL ENERGY             -100.786364281440 Eh   |
          | GRADIENT NORM               0.001609795458 Eh/α |
          | HOMO-LUMO GAP               2.567097588237 eV   |
           -------------------------------------------------

 * finished run on 2024/04/06 at 11:16:47.737
