   * xtb version 6.6.1 (8d0f1dd) compiled by 'conda@1efc2f54142f' on 2023-08-01
          program call               : xtb xtbopt.xyz --opt crude --input .xc2 --gfn2

   ID    Z sym.   atoms
    1    7 N      1, 17
    2    6 C      2-6, 8, 9, 11-16, 18-23, 25, 26, 28-33
    3    8 O      7, 10, 24, 27
    4    1 H      34-72
########################################################################
[WARNING] Please study the warnings concerning your input carefully
-1- readin_getIntValue: could not parse ''
########################################################################

          :  Hamiltonian                  GFN2-xTB          :
 * total energy  :   -99.2610155 Eh     change        0.3268497E-12 Eh
 * total energy  :   -99.3561245 Eh     change       -0.9510900E-01 Eh
 * total energy  :   -99.3571007 Eh     change       -0.9761707E-03 Eh
 * total energy  :   -99.3572955 Eh     change       -0.1948300E-03 Eh
   *** GEOMETRY OPTIMIZATION CONVERGED AFTER 4 ITERATIONS ***

 final structure:
================
72
 xtb: 6.6.1 (8d0f1dd)
N           -2.63939060819048        3.05013127410299        2.78664184676865
C           -2.34900228548680        2.28950988329380        1.83531249971502
C           -3.22430402257040        2.08321851871078        0.62736284013798
C           -3.57753626516892        0.60782797272177        0.51351917920620
C           -4.15693866359317        0.11694860271757       -0.65907804534543
C           -4.48544865481705       -1.22022506979121       -0.79794578336850
O           -5.03764530464065       -1.77727377834234       -1.90354594046493
C           -5.50125921028641       -0.93692376537707       -2.93306992360466
C           -4.23283532336532       -2.11735238799105        0.27072580603406
O           -4.56820824379814       -3.40879803302872        0.04387522556810
C           -4.49368578191516       -4.32427224349116        1.11164508939446
C           -3.68122546114233       -1.62060479480875        1.43931239392840
C           -3.36158409325228       -0.27365558012881        1.55838703288384
C           -2.34527736479021        2.50340394123902       -0.60391141253178
C           -1.45428505322525        1.39686803740289       -1.04778880684425
C           -0.24290116456188        1.15475902267350       -0.53556298110862
N            0.52285769148354       -0.03359134467617       -0.91691274460301
C            1.98519091928490        0.23260075911697       -0.84437453152162
C            2.84625810948379       -0.77390574549825       -1.60725966049209
C            4.28867541590795       -0.50220962405378       -1.25030975780869
C            4.94699712622179        0.59915907763680       -1.76496567286224
C            6.24133283361693        0.89802785360855       -1.36381700148886
C            6.89962625988454        0.09723764312606       -0.44347092660888
O            8.14440520319352        0.30390888202131        0.03009033232770
C            8.86619489740253        1.43010731839490       -0.41262024743634
C            6.23929281083108       -1.05092379959290        0.06845465031342
O            6.95814498145023       -1.79054515837851        0.94022320815700
C            6.41405694628444       -2.99269773430268        1.42919047848978
C            4.94270828653843       -1.32314938849571       -0.33398594044247
C            0.11646390011631       -1.19064041461549       -0.08800791638566
C           -4.53278172411363        2.91685644700203        0.65074573301166
C           -5.42942999135447        2.50059718127112        1.81487719882740
C           -4.28344370020816        4.42177658024487        0.70092017547446
H           -4.37028388888636        0.79843737443407       -1.46651463099203
H           -6.21506383322133       -0.19771864801561       -2.55812196422011
H           -6.00196125879346       -1.59314495443675       -3.64229987348389
H           -4.67680659475053       -0.42388859170696       -3.44091029954028
H           -5.11352245791071       -4.00669521548454        1.95517656468514
H           -4.87462752012441       -5.26439417532169        0.71779887831260
H           -3.46199611928939       -4.46617847605631        1.45066392442112
H           -3.50880986325322       -2.27186514256624        2.28053441985943
H           -2.96452521402917        0.08050880461464        2.49647671886542
H           -3.00557274009383        2.78632326322485       -1.42212227361146
H           -1.75621241780373        3.37499580974914       -0.31851236250490
H            0.28403660954601       -0.25688462915867       -1.88309502854124
H           -1.85033146868628        0.72427709033578       -1.79604989724642
H           -1.40979333539585        1.71623522421781        1.77681637122214
H            0.22751079492830        1.76323457683505        0.21755653682688
H            2.27777421829576        0.24071669378340        0.20860377215204
H            2.16313284659726        1.22913880722692       -1.25400019177457
H            2.69408479027517       -0.65828077182204       -2.68224392041692
H            2.59637415294609       -1.79741270439078       -1.32812710935768
H            4.46213875957632        1.23494029031923       -2.49024794152661
H            6.72966913807966        1.76359364105486       -1.77965694786872
H            8.35074733193997        2.36151290769553       -0.15831357176091
H            9.04559598909054        1.39353601723159       -1.49124363780069
H            9.81844645673037        1.39044815955968        0.11258131383620
H            7.18997360868307       -3.43246961794893        2.05255367802087
H            5.52199807418634       -2.81382958232733        2.03891663008662
H            6.16986263283821       -3.68277935449950        0.61535771258011
H            4.42909832305197       -2.18767782473735        0.05691819194059
H           -0.96238805873480       -1.32658807181893       -0.15560731735467
H            0.37586474052283       -1.00237976314491        0.95277291230949
H            0.61460681842589       -2.09757981519918       -0.42256040987157
H           -5.06478098475423        2.68870443780555       -0.28075124841783
H           -4.94910424913113        2.74192913600066        2.75737193167170
H           -5.63866266785063        1.43389904453137        1.78639158256163
H           -6.37273009276780        3.03700950914523        1.75824707903006
H           -3.75154383708568        4.68071167780323        1.61045355673139
H           -3.71395606154736        4.76883332314488       -0.15745107273444
H           -5.23772101848699        4.94184814745429        0.70185637103048
H           -1.95902847131503        3.12690279217696        3.53738999819389

          :  Hamiltonian                  GFN2-xTB          :
         :: total energy             -99.357295500195 Eh    ::
         :: gradient norm              0.007751910342 Eh/a0 ::
         :: HOMO-LUMO gap              2.579675548884 eV    ::
         :: SCC energy              -100.749219729470 Eh    ::
         :: -> dispersion             -0.074471545577 Eh    ::
         :: repulsion energy           1.390633586680 Eh    ::

    * Orbital Energies and Occupations

         #    Occupation            Energy/Eh            Energy/eV
      -------------------------------------------------------------
         1        2.0000           -0.8479429             -23.0737
       ...           ...                  ...                  ...
        78        1.9994           -0.5272608             -14.3475
        79        1.9992           -0.5217493             -14.1975
        80        1.9991           -0.5206133             -14.1666
        81        1.9990           -0.5183066             -14.1038
        82        1.9987           -0.5154713             -14.0267
        83        1.9980           -0.5079801             -13.8228
        84        1.9976           -0.5049039             -13.7391
        85        1.9973           -0.5033789             -13.6976
        86        1.9921           -0.4863168             -13.2334
        87        1.9911           -0.4844097             -13.1815
        88        1.9579           -0.4595114             -12.5039
        89        1.9419           -0.4542804             -12.3616
        90        1.9379           -0.4531909             -12.3320 (HOMO)
        91        0.1453           -0.3583896              -9.7523 (LUMO)
        92        0.0205           -0.3263282              -8.8798
        93        0.0081           -0.3114589              -8.4752
        94        0.0077           -0.3107387              -8.4556
        95        0.0066           -0.3083306              -8.3901
        96        0.0059           -0.3064638              -8.3393
        97        0.0000           -0.2094316              -5.6989
        98        0.0000           -0.1847242              -5.0266
        99        0.0000           -0.1830446              -4.9809
       100                         -0.1189087              -3.2357
       101                         -0.1117555              -3.0410
       ...                                ...                  ...
       171                          0.5803340              15.7917
      -------------------------------------------------------------
                  HL-Gap            0.0948013 Eh            2.5797 eV

     #   Z          covCN         q      C6AA      α(0)
     1   7 N        1.774    -0.283    28.141     7.856
     2   6 C        2.826     0.099    25.796     8.322
     3   6 C        3.908     0.010    20.356     6.413
     4   6 C        2.974    -0.005    28.150     8.703
     5   6 C        2.921    -0.083    30.086     8.995
     6   6 C        2.862     0.122    25.317     8.247
     7   8 O        1.705    -0.245    18.055     5.737
     8   6 C        3.644     0.032    20.372     6.488
     9   6 C        2.865     0.122    25.319     8.248
    10   8 O        1.705    -0.242    18.010     5.730
    11   6 C        3.645     0.030    20.408     6.492
    12   6 C        2.915    -0.078    29.958     8.975
    13   6 C        2.922    -0.057    29.420     8.895
    14   6 C        3.813    -0.063    21.705     6.631
    15   6 C        2.889    -0.036    28.893     8.813
    16   6 C        2.842    -0.055    29.361     8.880
    17   7 N        3.580     0.054    20.298     6.691
    18   6 C        3.754    -0.031    21.187     6.564
    19   6 C        3.807    -0.075    21.921     6.665
    20   6 C        2.974    -0.011    28.278     8.723
    21   6 C        2.921    -0.055    29.373     8.888
    22   6 C        2.915    -0.070    29.752     8.944
    23   6 C        2.865     0.131    25.132     8.217
    24   8 O        1.706    -0.230    17.815     5.699
    25   6 C        3.645     0.027    20.458     6.500
    26   6 C        2.864     0.130    25.154     8.221
    27   8 O        1.706    -0.233    17.860     5.706
    28   6 C        3.645     0.029    20.416     6.494
    29   6 C        2.920    -0.084    30.102     8.997
    30   6 C        3.700    -0.085    22.284     6.751
    31   6 C        3.853    -0.006    20.654     6.464
    32   6 C        3.756    -0.117    22.795     6.808
    33   6 C        3.755    -0.120    22.864     6.818
    34   1 H        0.926     0.047     2.364     2.404
    35   1 H        0.924     0.051     2.305     2.374
    36   1 H        0.925     0.077     2.014     2.219
    37   1 H        0.924     0.038     2.480     2.463
    38   1 H        0.924     0.053     2.288     2.366
    39   1 H        0.925     0.077     2.010     2.217
    40   1 H        0.924     0.042     2.427     2.436
    41   1 H        0.926     0.048     2.341     2.393
    42   1 H        0.926     0.039     2.465     2.455
    43   1 H        0.925     0.068     2.106     2.270
    44   1 H        0.925     0.060     2.197     2.318
    45   1 H        0.860     0.221     1.006     1.571
    46   1 H        0.925     0.049     2.328     2.386
    47   1 H        0.923    -0.010     3.234     2.812
    48   1 H        0.926     0.073     2.052     2.240
    49   1 H        0.924     0.088     1.899     2.155
    50   1 H        0.924     0.090     1.881     2.145
    51   1 H        0.924     0.055     2.253     2.347
    52   1 H        0.925     0.054     2.270     2.356
    53   1 H        0.926     0.038     2.479     2.462
    54   1 H        0.926     0.056     2.246     2.344
    55   1 H        0.924     0.050     2.323     2.384
    56   1 H        0.924     0.053     2.288     2.366
    57   1 H        0.925     0.080     1.982     2.201
    58   1 H        0.925     0.080     1.984     2.203
    59   1 H        0.924     0.043     2.404     2.425
    60   1 H        0.924     0.049     2.337     2.391
    61   1 H        0.926     0.042     2.428     2.437
    62   1 H        0.925     0.098     1.806     2.101
    63   1 H        0.925     0.098     1.805     2.101
    64   1 H        0.925     0.094     1.837     2.120
    65   1 H        0.924     0.033     2.545     2.495
    66   1 H        0.925     0.066     2.127     2.281
    67   1 H        0.925     0.034     2.532     2.488
    68   1 H        0.925     0.049     2.331     2.388
    69   1 H        0.925     0.066     2.130     2.282
    70   1 H        0.925     0.031     2.567     2.506
    71   1 H        0.925     0.052     2.301     2.372
    72   1 H        0.860     0.151     1.395     1.850

Wiberg/Mayer (AO) data.
largest (>0.10) Wiberg bond orders for each atom

     #   Z sym  total        # sym  WBO       # sym  WBO       # sym  WBO
 ---------------------------------------------------------------------------
     1   7 N    3.012 --     2 C    1.945    72 H    0.946
     2   6 C    3.937 --     1 N    1.945     3 C    0.995    47 H    0.933
     3   6 C    3.968 --     2 C    0.995     4 C    0.972    31 C    0.952
                            14 C    0.915
     4   6 C    3.964 --    13 C    1.429     5 C    1.364     3 C    0.972
     5   6 C    3.969 --     6 C    1.410     4 C    1.364    34 H    0.959
     6   6 C    3.919 --     5 C    1.410     9 C    1.237     7 O    1.081
     7   8 O    2.246 --     6 C    1.081     8 C    0.981
     8   6 C    3.938 --     7 O    0.981    36 H    0.977    35 H    0.975
                            37 H    0.975
     9   6 C    3.918 --    12 C    1.401     6 C    1.237    10 O    1.086
    10   8 O    2.248 --     9 C    1.086    11 C    0.980
    11   6 C    3.936 --    10 O    0.980    39 H    0.978    40 H    0.975
                            38 H    0.975
    12   6 C    3.970 --     9 C    1.401    13 C    1.399    41 H    0.964
    13   6 C    3.969 --     4 C    1.429    12 C    1.399    42 H    0.963
    14   6 C    3.987 --    15 C    1.039    44 H    0.966    43 H    0.964
                             3 C    0.915
    15   6 C    3.856 --    16 C    1.784    14 C    1.039    46 H    0.960
    16   6 C    3.771 --    15 C    1.784    48 H    0.957    17 N    0.925
    17   7 N    3.771 --    30 C    0.953    18 C    0.929    16 C    0.925
                            45 H    0.913
    18   6 C    3.921 --    19 C    0.995    49 H    0.968    50 H    0.967
                            17 N    0.929
    19   6 C    3.985 --    18 C    0.995    20 C    0.994    51 H    0.971
                            52 H    0.969
    20   6 C    3.959 --    21 C    1.427    29 C    1.374    19 C    0.994
    21   6 C    3.971 --    20 C    1.427    22 C    1.408    53 H    0.969
    22   6 C    3.971 --    21 C    1.408    23 C    1.394    54 H    0.964
    23   6 C    3.920 --    22 C    1.394    26 C    1.232    24 O    1.103
    24   8 O    2.266 --    23 C    1.103    25 C    0.977
    25   6 C    3.933 --    57 H    0.977    24 O    0.977    55 H    0.975
                            56 H    0.974
    26   6 C    3.921 --    29 C    1.403    23 C    1.232    27 O    1.094
    27   8 O    2.262 --    26 C    1.094    28 C    0.980
    28   6 C    3.937 --    27 O    0.980    58 H    0.977    60 H    0.975
                            59 H    0.975
    29   6 C    3.968 --    26 C    1.403    20 C    1.374    61 H    0.963
    30   6 C    3.922 --    63 H    0.978    62 H    0.975    64 H    0.973
                            17 N    0.953
    31   6 C    3.982 --    33 C    1.009    32 C    1.006    65 H    0.963
                             3 C    0.952
    32   6 C    3.984 --    31 C    1.006    67 H    0.983    68 H    0.983
                            66 H    0.977
    33   6 C    3.986 --    31 C    1.009    70 H    0.984    71 H    0.982
                            69 H    0.976
    34   1 H    0.997 --     5 C    0.959
    35   1 H    0.996 --     8 C    0.975
    36   1 H    0.994 --     8 C    0.977
    37   1 H    0.997 --     8 C    0.975
    38   1 H    0.995 --    11 C    0.975
    39   1 H    0.994 --    11 C    0.978
    40   1 H    0.996 --    11 C    0.975
    41   1 H    0.996 --    12 C    0.964
    42   1 H    0.998 --    13 C    0.963
    43   1 H    0.994 --    14 C    0.964
    44   1 H    0.994 --    14 C    0.966
    45   1 H    0.950 --    17 N    0.913
    46   1 H    0.997 --    15 C    0.960
    47   1 H    0.991 --     2 C    0.933
    48   1 H    0.995 --    16 C    0.957
    49   1 H    0.992 --    18 C    0.968
    50   1 H    0.992 --    18 C    0.967
    51   1 H    0.996 --    19 C    0.971
    52   1 H    0.997 --    19 C    0.969
    53   1 H    0.998 --    21 C    0.969
    54   1 H    0.996 --    22 C    0.964
    55   1 H    0.995 --    25 C    0.975
    56   1 H    0.995 --    25 C    0.974
    57   1 H    0.993 --    25 C    0.977
    58   1 H    0.993 --    28 C    0.977
    59   1 H    0.996 --    28 C    0.975
    60   1 H    0.996 --    28 C    0.975
    61   1 H    0.997 --    29 C    0.963
    62   1 H    0.990 --    30 C    0.975
    63   1 H    0.990 --    30 C    0.978
    64   1 H    0.990 --    30 C    0.973
    65   1 H    0.996 --    31 C    0.963
    66   1 H    0.993 --    32 C    0.977
    67   1 H    0.998 --    32 C    0.983
    68   1 H    0.995 --    32 C    0.983
    69   1 H    0.994 --    33 C    0.976
    70   1 H    0.998 --    33 C    0.984
    71   1 H    0.995 --    33 C    0.982
    72   1 H    0.974 --     1 N    0.946
 ---------------------------------------------------------------------------

molecular dipole:
                 x           y           z       tot (Debye)
 q only:        1.197      -0.172      -1.127
   full:        1.381      -0.390      -1.320       4.955

           -------------------------------------------------
          | TOTAL ENERGY              -99.357295500195 Eh   |
          | GRADIENT NORM               0.007751910342 Eh/α |
          | HOMO-LUMO GAP               2.579675548884 eV   |
           -------------------------------------------------

 * finished run on 2024/04/06 at 11:16:48.680
