   * xtb version 6.6.1 (8d0f1dd) compiled by 'conda@1efc2f54142f' on 2023-08-01
          program call               : xtb xtbopt.xyz --opt crude --input .xc2 --gfn2

   ID    Z sym.   atoms
    1    6 C      1, 3, 5-7, 10, 11, 14
    2    7 N      2, 4, 9, 13
    3    8 O      8, 12
    4    1 H      15-25
########################################################################
[WARNING] Please study the warnings concerning your input carefully
-1- readin_getIntValue: could not parse ''
########################################################################

          :  Hamiltonian                  GFN2-xTB          :
 * total energy  :   -41.9265327 Eh     change       -0.3851142E-11 Eh
   *** GEOMETRY OPTIMIZATION CONVERGED AFTER 1 ITERATIONS ***

 final structure:
================
25
 xtb: 6.6.1 (8d0f1dd)
C            3.23767964838214        1.03372912128895       -0.60856799402065
N            2.29305434041486        0.16854734816202        0.00700313236472
C            2.45795685125642       -0.93686268249547        0.91159701452349
N            1.54101330481281       -2.00822387725745        0.50769862958942
C            0.97258162370495       -0.89111534204233        1.18078106399452
C            0.94468215986742        0.21064442268297        0.16117344991834
C            0.04370513500999        1.12305482744668       -0.39799969496010
O            0.24609245596490        2.03896568692207       -1.15709703532070
N           -1.38781382097788        0.92233041699653        0.06504065143524
C           -1.97893551653636        2.02904198754765        0.79768698608366
C           -2.07956916937563       -0.06459287044955       -0.33073677070265
O           -3.29841707899834       -0.52234585238003       -0.26193000602703
N           -2.19769811510377       -1.14607843492886       -1.11013766082423
C           -1.77473344920316       -2.46795864187902       -0.76457429653245
H            3.83970554534132        1.55025649890614        0.14505562324928
H            3.91253173132129        0.45008870302861       -1.23873889250254
H            2.70639273446285        1.76790133494328       -1.21164119689780
H            3.34704872674295       -1.09854432143515        1.49070462259556
H           -1.72856871130760        2.95342912409596        0.27574855964455
H           -3.05941780293806        1.91318186159064        0.85079879559791
H           -1.55667491189733        2.05946651678699        1.80188644826679
H           -1.75387681770713       -2.65302744549094        0.31122427276443
H           -0.77160991845785       -2.57862187424656       -1.17824142585518
H           -2.44511078317339       -3.17102794604865       -1.25662701928933
H            1.65041335251126       -2.86400002013713        1.04106436081318

          :  Hamiltonian                  GFN2-xTB          :
         :: total energy             -41.926532656884 Eh    ::
         :: gradient norm              0.004630455517 Eh/a0 ::
         :: HOMO-LUMO gap              0.906843824620 eV    ::
         :: SCC energy               -42.406919701530 Eh    ::
         :: -> dispersion             -0.020782629047 Eh    ::
         :: repulsion energy           0.480149068423 Eh    ::

    * Orbital Energies and Occupations

         #    Occupation            Energy/Eh            Energy/eV
      -------------------------------------------------------------
         1        2.0000           -0.9613095             -26.1586
       ...           ...                  ...                  ...
        25        1.9999           -0.6610663             -17.9885
        26        1.9999           -0.6528987             -17.7663
        27        1.9998           -0.6476990             -17.6248
        28        1.9997           -0.6397946             -17.4097
        29        1.9997           -0.6376286             -17.3508
        30        1.9996           -0.6334570             -17.2372
        31        1.9992           -0.6232356             -16.9591
        32        1.9988           -0.6160844             -16.7645
        33        1.9948           -0.5933744             -16.1465
        34        1.9931           -0.5888177             -16.0225
        35        1.9896           -0.5823237             -15.8458
        36        1.8865           -0.5435941             -14.7919
        37        1.5333           -0.5179203             -14.0933 (HOMO)
        38        0.5719           -0.4845944             -13.1865 (LUMO)
        39        0.0310           -0.4333673             -11.7925
        40        0.0029           -0.3957423             -10.7687
        41        0.0003           -0.3581176              -9.7449
        42        0.0000           -0.2578781              -7.0172
        43        0.0000           -0.2362847              -6.4296
        44                         -0.2138882              -5.8202
        45                         -0.1698487              -4.6218
        46                         -0.1039873              -2.8296
        47                         -0.0822477              -2.2381
        48                         -0.0723539              -1.9688
       ...                                ...                  ...
        67                          0.5981914              16.2776
      -------------------------------------------------------------
                  HL-Gap            0.0333259 Eh            0.9068 eV

     #   Z          covCN         q      C6AA      α(0)
     1   6 C        3.684    -0.076    22.178     6.743
     2   7 N        2.977     0.022    20.868     6.785
     3   6 C        4.121     0.093    18.970     6.186
     4   7 N        2.698    -0.187    25.052     7.434
     5   6 C        3.106    -0.065    29.465     8.894
     6   6 C        3.295     0.022    25.845     8.150
     7   6 C        2.753     0.250    22.796     7.818
     8   8 O        0.857    -0.321    20.165     6.021
     9   7 N        2.724    -0.026    21.742     6.925
    10   6 C        3.705    -0.068    21.966     6.700
    11   6 C        2.714     0.323    21.513     7.592
    12   8 O        1.724    -0.171    16.883     5.548
    13   7 N        2.687     0.003    21.221     6.842
    14   6 C        3.689    -0.067    21.983     6.711
    15   1 H        0.924     0.102     1.771     2.081
    16   1 H        0.924     0.106     1.730     2.057
    17   1 H        0.925     0.115     1.653     2.011
    18   1 H        0.926     0.076     2.018     2.221
    19   1 H        0.924     0.127     1.560     1.953
    20   1 H        0.925     0.108     1.710     2.045
    21   1 H        0.925     0.109     1.705     2.042
    22   1 H        0.924     0.086     1.923     2.168
    23   1 H        0.924     0.120     1.612     1.985
    24   1 H        0.925     0.124     1.580     1.966
    25   1 H        0.860     0.196     1.127     1.663

Wiberg/Mayer (AO) data.
largest (>0.10) Wiberg bond orders for each atom

     #   Z sym  total        # sym  WBO       # sym  WBO       # sym  WBO
 ---------------------------------------------------------------------------
     1   6 C    3.923 --     2 N    1.016    17 H    0.964    16 H    0.945
                            15 H    0.941
     2   7 N    3.412 --     6 C    1.259     1 C    1.016     3 C    0.998
     3   6 C    3.813 --     2 N    0.998    18 H    0.960     4 N    0.920
                             5 C    0.854
     4   7 N    2.925 --     5 C    1.003    25 H    0.929     3 C    0.920
     5   6 C    3.034 --     6 C    1.028     4 N    1.003     3 C    0.854
     6   6 C    3.729 --     2 N    1.259     7 C    1.224     5 C    1.028
     7   6 C    3.825 --     8 O    1.705     6 C    1.224     9 N    0.807
     8   8 O    1.973 --     7 C    1.705
     9   7 N    3.614 --    11 C    1.546    10 C    0.952     7 C    0.807
                            12 O    0.108
    10   6 C    3.905 --    20 H    0.972    21 H    0.961    19 H    0.956
                             9 N    0.952
    11   6 C    3.892 --     9 N    1.546    13 N    1.122    12 O    1.114
    12   8 O    2.179 --    11 C    1.114    13 N    0.845     9 N    0.108
    13   7 N    3.111 --    11 C    1.122    14 C    1.001    12 O    0.845
    14   6 C    3.926 --    13 N    1.001    22 H    0.969    24 H    0.963
                            23 H    0.936
    15   1 H    0.965 --     1 C    0.941
    16   1 H    0.970 --     1 C    0.945
    17   1 H    0.985 --     1 C    0.964
    18   1 H    0.989 --     3 C    0.960
    19   1 H    0.982 --    10 C    0.956
    20   1 H    0.987 --    10 C    0.972
    21   1 H    0.987 --    10 C    0.961
    22   1 H    0.991 --    14 C    0.969
    23   1 H    0.985 --    14 C    0.936
    24   1 H    0.983 --    14 C    0.963
    25   1 H    0.952 --     4 N    0.929
 ---------------------------------------------------------------------------

molecular dipole:
                 x           y           z       tot (Debye)
 q only:        0.450      -0.737       0.528
   full:        0.773      -0.948       0.926       3.899

           -------------------------------------------------
          | TOTAL ENERGY              -41.926532656884 Eh   |
          | GRADIENT NORM               0.004630455517 Eh/α |
          | HOMO-LUMO GAP               0.906843824620 eV   |
           -------------------------------------------------

 * finished run on 2024/06/05 at 20:00:11.819
