   * xtb version 6.6.1 (8d0f1dd) compiled by 'conda@1efc2f54142f' on 2023-08-01
          program call               : xtb struc.xyz --opt loose --input .xc1 --gfn2

   ID    Z sym.   atoms
    1    7 N      1, 17
    2    6 C      2-6, 8, 9, 11-16, 18-23, 25, 26, 28-33
    3    8 O      7, 10, 24, 27
    4    1 H      34-72
constraining bond 18 63 to    5.1400000 Å, actual value:    3.2575187 Å

          :  Hamiltonian                  GFN2-xTB          :
 * total energy  :   -98.7713855 Eh     change       -0.4035485E-08 Eh
 * total energy  :   -99.0024643 Eh     change       -0.2310788E+00 Eh
 * total energy  :   -99.1288206 Eh     change       -0.1263562E+00 Eh
 * total energy  :   -99.1868482 Eh     change       -0.5802761E-01 Eh
 * total energy  :   -99.2109658 Eh     change       -0.2411761E-01 Eh
 * total energy  :   -99.2210886 Eh     change       -0.1012280E-01 Eh
 * total energy  :   -99.2258672 Eh     change       -0.4778585E-02 Eh
 * total energy  :   -99.2296342 Eh     change       -0.3767004E-02 Eh
 * total energy  :   -99.2325061 Eh     change       -0.2871904E-02 Eh
 * total energy  :   -99.2343245 Eh     change       -0.1818386E-02 Eh
 * total energy  :   -99.2953198 Eh     change       -0.1968358E-03 Eh
 * total energy  :   -99.2958113 Eh     change       -0.4914702E-03 Eh
 * total energy  :   -99.2960329 Eh     change       -0.2216190E-03 Eh
 * total energy  :   -99.2961737 Eh     change       -0.1407854E-03 Eh
 * total energy  :   -99.2962773 Eh     change       -0.1036027E-03 Eh
 * total energy  :   -99.2963413 Eh     change       -0.6402148E-04 Eh
 * total energy  :   -99.2963946 Eh     change       -0.5329579E-04 Eh
 * total energy  :   -99.2964447 Eh     change       -0.5013438E-04 Eh
 * total energy  :   -99.2964876 Eh     change       -0.4288480E-04 Eh
   *** GEOMETRY OPTIMIZATION CONVERGED AFTER 35 ITERATIONS ***

 final structure:
================
72
 xtb: 6.6.1 (8d0f1dd)
N           -1.83360140661678        2.86548861730935        2.20175051443128
C           -1.82269202252527        2.08816259002909        1.22520482375074
C           -2.97081866572686        1.89899548851385        0.27372709259525
C           -3.49511684596158        0.47574742637919        0.38229782452419
C           -4.44681529585945        0.01869150182195       -0.52470604046413
C           -4.93314471324084       -1.28357005630759       -0.47272948817144
O           -5.85793800106941       -1.80050049880650       -1.28604302747746
C           -6.34995580550672       -1.03732750519291       -2.36367019864952
C           -4.45140488641240       -2.17142481846015        0.53780996749425
O           -4.96894866666785       -3.40446604646000        0.51135561127854
C           -4.50896226016449       -4.37024873070704        1.42895154479494
C           -3.51676375505097       -1.69635600581537        1.44808458585567
C           -3.05406666496644       -0.39315999162245        1.37411872752154
C           -2.38851685453215        2.13642445838520       -1.14620775009867
C           -1.48772683004624        1.00720077822887       -1.67380121642089
C           -0.13980559599644        0.98122148011667       -1.05447922293022
N            0.52863472470717       -0.11154220134723       -0.68472001832116
C            1.91239804444912        0.07116230324717       -0.24789929203984
C            2.89176052856582       -0.22033231583837       -1.39632612290870
C            4.30928984005146       -0.03512775164044       -0.92948930230837
C            4.96545823616762        1.17251165308349       -1.11471003064373
C            6.26568461074143        1.35085905970241       -0.67004263237879
C            6.93698153199719        0.32336193431370       -0.02050847214751
O            8.19391631937080        0.37976230088379        0.44899586382788
C            8.96023998797679        1.54433872915564        0.24232611648083
C            6.26858378560774       -0.91849453929677        0.18298913828799
O            6.99097392496815       -1.85554111130215        0.82153917147276
C            6.43272834246724       -3.12792069052254        1.05044976939368
C            4.96867635382280       -1.07289793612739       -0.27529681099494
C            0.08023146540420       -1.35623714874783       -0.69749306175472
C           -4.15323953670222        2.87786298080883        0.53871604132167
C           -4.79738387005844        2.61557486772866        1.89782127475654
C           -3.75937552526055        4.34766471963476        0.42832618544633
H           -4.80112799805114        0.67539473196564       -1.30188826412457
H           -6.87429828764106       -0.14228418519545       -2.01454664678009
H           -7.05283099874862       -1.68541364328594       -2.88412425527324
H           -5.54381916215788       -0.75229750464882       -3.04613257062044
H           -4.72503747310835       -4.07705325252537        2.46072677299300
H           -5.05316255450829       -5.28239724946994        1.19148203759445
H           -3.43532429223079       -4.54638114718220        1.31476511663676
H           -3.13859679736589       -2.34213431263896        2.22403998681681
H           -2.34187580581341       -0.05824278450524        2.11228058617881
H           -3.21833711271230        2.25745513781747       -1.84164716746051
H           -1.82394548826390        3.07056417534974       -1.14095577557207
H           -1.99850556490834        0.04516451822960       -1.57182260684136
H           -1.35748630130621        1.18428886882342       -2.74937960897136
H           -0.94398663755193        1.48847950709739        0.92746222612866
H            0.40727110438015        1.91097301249558       -1.01980665476842
H            2.11469732865257       -0.60716739651265        0.58341791788447
H            2.05686003471712        1.09529849880772        0.10010525120334
H            2.68107448441069        0.45509942963664       -2.22746071687368
H            2.74117635790068       -1.24459344320642       -1.74236029759943
H            4.46666670236402        1.98357595283024       -1.62258138440856
H            6.75237163811356        2.29765014755217       -0.83639866940945
H            8.52942195738306        2.40475326845533        0.76296952660758
H            9.06042867219685        1.77339495064360       -0.82236206266901
H            9.94136910998263        1.32535603386372        0.65899640572987
H            7.20701297211717       -3.69910493205829        1.55919292154785
H            5.54797440818457       -3.06746548565881        1.69223277320729
H            6.17272821644107       -3.62651163273133        0.11185233088603
H            4.45957435983992       -2.01429018009235       -0.14038668789990
H           -0.91184732874437       -1.59926446223132       -1.04444258195949
H           -2.70718210378677       -1.76197489167348       -1.56035331386479
H            0.72582037689156       -2.14082358464441       -0.36109239287379
H           -4.90352258158815        2.67234218321068       -0.23317737444109
H           -4.09111732234992        2.83376165828819        2.69307867022172
H           -5.12063895991240        1.58104045440641        1.98676492739500
H           -5.66532977420109        3.25816104334633        2.02122390059428
H           -2.99156949688351        4.58874660165864        1.15740335963108
H           -3.40168226619035        4.59811781586344       -0.56675037958332
H           -4.62923613122267        4.96599596909684        0.63477780009617
H           -0.99675218125839        2.94604211017379        2.76982017771960

          :  Hamiltonian                  GFN2-xTB          :
         :: total energy             -99.296487623335 Eh    ::
         :: gradient norm              0.002765848785 Eh/a0 ::
         :: HOMO-LUMO gap              0.228270431158 eV    ::
         :: SCC energy              -100.677233983291 Eh    ::
         :: -> dispersion             -0.080919156387 Eh    ::
         :: repulsion energy           1.379428790143 Eh    ::

    * Orbital Energies and Occupations

         #    Occupation            Energy/Eh            Energy/eV
      -------------------------------------------------------------
         1        2.0000           -0.8162890             -22.2124
       ...           ...                  ...                  ...
        78        1.9967           -0.5328145             -14.4986
        79        1.9964           -0.5316553             -14.4671
        80        1.9955           -0.5277421             -14.3606
        81        1.9948           -0.5256520             -14.3037
        82        1.9917           -0.5181575             -14.0998
        83        1.9913           -0.5173512             -14.0778
        84        1.9884           -0.5128846             -13.9563
        85        1.9686           -0.4969129             -13.5217
        86        1.9598           -0.4929682             -13.4143
        87        1.9032           -0.4785816             -13.0229
        88        1.7920           -0.4655088             -12.6671
        89        1.7780           -0.4643575             -12.6358
        90        1.4374           -0.4462638             -12.1435 (HOMO)
        91        1.2013           -0.4378750             -11.9152 (LUMO)
        92        0.0105           -0.3482986              -9.4777
        93        0.0072           -0.3423071              -9.3147
        94        0.0018           -0.3206553              -8.7255
        95        0.0016           -0.3182791              -8.6608
        96        0.0015           -0.3174589              -8.6385
        97        0.0013           -0.3155060              -8.5854
        98        0.0000           -0.1963381              -5.3426
        99        0.0000           -0.1932205              -5.2578
       100                         -0.1234068              -3.3581
       101                         -0.0681561              -1.8546
       ...                                ...                  ...
       171                          0.5682231              15.4621
      -------------------------------------------------------------
                  HL-Gap            0.0083888 Eh            0.2283 eV

     #   Z          covCN         q      C6AA      α(0)
     1   7 N        1.774    -0.259    27.542     7.771
     2   6 C        2.827     0.104    25.698     8.307
     3   6 C        3.908     0.008    20.382     6.417
     4   6 C        2.974     0.016    27.649     8.625
     5   6 C        2.919    -0.060    29.492     8.905
     6   6 C        2.862     0.158    24.581     8.127
     7   8 O        1.706    -0.201    17.351     5.624
     8   6 C        3.645     0.024    20.510     6.509
     9   6 C        2.864     0.150    24.750     8.155
    10   8 O        1.706    -0.203    17.384     5.629
    11   6 C        3.646     0.023    20.521     6.510
    12   6 C        2.912    -0.062    29.536     8.912
    13   6 C        2.921    -0.039    28.967     8.826
    14   6 C        3.812    -0.063    21.694     6.630
    15   6 C        3.801    -0.070    21.835     6.653
    16   6 C        2.859    -0.027    28.665     8.776
    17   7 N        2.730     0.092    19.658     6.585
    18   6 C        3.779    -0.021    20.967     6.523
    19   6 C        3.808    -0.069    21.819     6.649
    20   6 C        2.968     0.005    27.914     8.666
    21   6 C        2.921    -0.045    29.125     8.850
    22   6 C        2.913    -0.065    29.625     8.925
    23   6 C        2.864     0.136    25.024     8.200
    24   8 O        1.706    -0.213    17.547     5.656
    25   6 C        3.645     0.022    20.532     6.512
    26   6 C        2.862     0.136    25.027     8.200
    27   8 O        1.706    -0.216    17.595     5.663
    28   6 C        3.645     0.025    20.499     6.508
    29   6 C        2.919    -0.078    29.940     8.973
    30   6 C        2.811    -0.087    30.164     8.998
    31   6 C        3.853    -0.008    20.686     6.469
    32   6 C        3.756    -0.119    22.831     6.813
    33   6 C        3.755    -0.119    22.840     6.814
    34   1 H        0.926     0.061     2.187     2.312
    35   1 H        0.924     0.058     2.220     2.330
    36   1 H        0.925     0.087     1.907     2.159
    37   1 H        0.924     0.062     2.171     2.304
    38   1 H        0.924     0.060     2.198     2.318
    39   1 H        0.925     0.087     1.906     2.159
    40   1 H        0.924     0.060     2.204     2.322
    41   1 H        0.926     0.059     2.206     2.322
    42   1 H        0.926     0.045     2.388     2.417
    43   1 H        0.925     0.060     2.203     2.321
    44   1 H        0.924     0.052     2.294     2.369
    45   1 H        0.924     0.088     1.896     2.153
    46   1 H        0.924     0.075     2.028     2.227
    47   1 H        0.922     0.019     2.749     2.593
    48   1 H        0.926     0.056     2.244     2.343
    49   1 H        0.924     0.073     2.050     2.239
    50   1 H        0.924     0.068     2.104     2.269
    51   1 H        0.924     0.059     2.205     2.322
    52   1 H        0.924     0.063     2.168     2.303
    53   1 H        0.926     0.052     2.295     2.369
    54   1 H        0.926     0.063     2.164     2.301
    55   1 H        0.924     0.059     2.215     2.327
    56   1 H        0.924     0.060     2.202     2.321
    57   1 H        0.925     0.086     1.919     2.166
    58   1 H        0.925     0.085     1.925     2.170
    59   1 H        0.924     0.053     2.286     2.365
    60   1 H        0.924     0.057     2.234     2.337
    61   1 H        0.926     0.053     2.288     2.365
    62   1 H        0.926     0.101     1.780     2.086
    63   1 H        0.000    -0.328    70.185    15.319
    64   1 H        0.927     0.068     2.110     2.272
    65   1 H        0.924     0.042     2.420     2.433
    66   1 H        0.925     0.070     2.081     2.256
    67   1 H        0.925     0.036     2.496     2.471
    68   1 H        0.925     0.055     2.261     2.351
    69   1 H        0.925     0.064     2.153     2.295
    70   1 H        0.925     0.039     2.457     2.451
    71   1 H        0.925     0.057     2.232     2.336
    72   1 H        0.860     0.161     1.328     1.805

Wiberg/Mayer (AO) data.
largest (>0.10) Wiberg bond orders for each atom

     #   Z sym  total        # sym  WBO       # sym  WBO       # sym  WBO
 ---------------------------------------------------------------------------
     1   7 N    3.022 --     2 C    1.956    72 H    0.939
     2   6 C    3.927 --     1 N    1.956     3 C    0.994    47 H    0.902
     3   6 C    3.964 --     2 C    0.994     4 C    0.970    14 C    0.951
                            31 C    0.941
     4   6 C    3.922 --     5 C    1.389    13 C    1.384     3 C    0.970
     5   6 C    3.925 --     4 C    1.389     6 C    1.355    34 H    0.956
     6   6 C    3.866 --     5 C    1.355     9 C    1.181     7 O    1.140
     7   8 O    2.270 --     6 C    1.140     8 C    0.972
     8   6 C    3.921 --    36 H    0.976     7 O    0.972    35 H    0.970
                            37 H    0.970
     9   6 C    3.858 --    12 C    1.368     6 C    1.181    10 O    1.134
    10   8 O    2.260 --     9 C    1.134    11 C    0.973
    11   6 C    3.922 --    39 H    0.976    10 O    0.973    40 H    0.971
                            38 H    0.970
    12   6 C    3.943 --    13 C    1.425     9 C    1.368    41 H    0.962
    13   6 C    3.918 --    12 C    1.425     4 C    1.384    42 H    0.961
    14   6 C    3.970 --    15 C    0.986    44 H    0.970    43 H    0.968
                             3 C    0.951
    15   6 C    3.951 --    16 C    1.055    14 C    0.986    45 H    0.928
                            46 H    0.927
    16   6 C    3.630 --    17 N    1.328    15 C    1.055    48 H    0.960
                            30 C    0.172
    17   7 N    3.740 --    30 C    1.385    16 C    1.328    18 C    0.963
    18   6 C    3.950 --    19 C    0.976    50 H    0.969    49 H    0.968
                            17 N    0.963
    19   6 C    3.986 --    20 C    1.008    18 C    0.976    51 H    0.972
                            52 H    0.968
    20   6 C    3.931 --    21 C    1.401    29 C    1.384    19 C    1.008
    21   6 C    3.937 --    22 C    1.421    20 C    1.401    53 H    0.967
    22   6 C    3.950 --    21 C    1.421    23 C    1.376    54 H    0.962
    23   6 C    3.881 --    22 C    1.376    26 C    1.208    24 O    1.120
    24   8 O    2.254 --    23 C    1.120    25 C    0.974
    25   6 C    3.923 --    57 H    0.976    24 O    0.974    56 H    0.971
                            55 H    0.971
    26   6 C    3.885 --    29 C    1.388    23 C    1.208    27 O    1.114
    27   8 O    2.254 --    26 C    1.114    28 C    0.976
    28   6 C    3.927 --    58 H    0.976    27 O    0.976    59 H    0.972
                            60 H    0.972
    29   6 C    3.952 --    26 C    1.388    20 C    1.384    61 H    0.962
    30   6 C    3.529 --    17 N    1.385    64 H    0.972    62 H    0.930
                            16 C    0.172
    31   6 C    3.962 --    33 C    1.009    32 C    1.007    65 H    0.955
                             3 C    0.941
    32   6 C    3.970 --    31 C    1.007    67 H    0.980    68 H    0.979
                            66 H    0.970
    33   6 C    3.974 --    31 C    1.009    70 H    0.981    71 H    0.978
                            69 H    0.972
    34   1 H    0.994 --     5 C    0.956
    35   1 H    0.989 --     8 C    0.970
    36   1 H    0.991 --     8 C    0.976
    37   1 H    0.989 --     8 C    0.970
    38   1 H    0.988 --    11 C    0.970
    39   1 H    0.991 --    11 C    0.976
    40   1 H    0.989 --    11 C    0.971
    41   1 H    0.994 --    12 C    0.962
    42   1 H    0.997 --    13 C    0.961
    43   1 H    0.994 --    14 C    0.968
    44   1 H    0.994 --    14 C    0.970
    45   1 H    0.990 --    15 C    0.928
    46   1 H    0.967 --    15 C    0.927
    47   1 H    0.974 --     2 C    0.902
    48   1 H    0.995 --    16 C    0.960
    49   1 H    0.994 --    18 C    0.968
    50   1 H    0.995 --    18 C    0.969
    51   1 H    0.995 --    19 C    0.972
    52   1 H    0.994 --    19 C    0.968
    53   1 H    0.996 --    21 C    0.967
    54   1 H    0.994 --    22 C    0.962
    55   1 H    0.989 --    25 C    0.971
    56   1 H    0.989 --    25 C    0.971
    57   1 H    0.992 --    25 C    0.976
    58   1 H    0.992 --    28 C    0.976
    59   1 H    0.991 --    28 C    0.972
    60   1 H    0.990 --    28 C    0.972
    61   1 H    0.996 --    29 C    0.962
    62   1 H    0.989 --    30 C    0.930
    63   1 H    0.137
    64   1 H    0.993 --    30 C    0.972
    65   1 H    0.987 --    31 C    0.955
    66   1 H    0.988 --    32 C    0.970
    67   1 H    0.995 --    32 C    0.980
    68   1 H    0.992 --    32 C    0.979
    69   1 H    0.990 --    33 C    0.972
    70   1 H    0.995 --    33 C    0.981
    71   1 H    0.991 --    33 C    0.978
    72   1 H    0.965 --     1 N    0.939
 ---------------------------------------------------------------------------

molecular dipole:
                 x           y           z       tot (Debye)
 q only:        1.220       0.557       0.201
   full:        1.569       0.418       0.031       4.129

           -------------------------------------------------
          | TOTAL ENERGY              -99.296487623335 Eh   |
          | GRADIENT NORM               0.002765848785 Eh/α |
          | HOMO-LUMO GAP               0.228270431158 eV   |
           -------------------------------------------------

 * finished run on 2024/04/06 at 11:13:44.606
