   * xtb version 6.6.1 (8d0f1dd) compiled by 'conda@1efc2f54142f' on 2023-08-01
          program call               : xtb struc.xyz --opt loose --input .xc1 --gfn2

   ID    Z sym.   atoms
    1    6 C      1, 3, 5-7, 10, 11, 14
    2    7 N      2, 4, 9, 13
    3    8 O      8, 12
    4    1 H      15-25
constraining bond 2 18 to    2.6866700 Å, actual value:    2.1303834 Å

          :  Hamiltonian                  GFN2-xTB          :
 * total energy  :   -42.8003999 Eh     change       -0.6650680E-10 Eh
 * total energy  :   -44.8977359 Eh     change       -0.2097336E+01 Eh
 * total energy  :   -48.1952177 Eh     change       -0.3297482E+01 Eh
 * total energy  :   -25.2250971 Eh     change        0.2297012E+02 Eh
 * total energy  :   -49.3524644 Eh     change       -0.2412737E+02 Eh
 * total energy  :   -49.3086011 Eh     change        0.4386338E-01 Eh
 * total energy  :   -49.4461958 Eh     change       -0.1375947E+00 Eh
 * total energy  :   -49.4762382 Eh     change       -0.3004238E-01 Eh
 * total energy  :   -49.4834609 Eh     change       -0.7222726E-02 Eh
 * total energy  :   -49.4995707 Eh     change       -0.1610984E-01 Eh
 * total energy  :   -49.6808727 Eh     change       -0.3169932E-03 Eh
 * total energy  :   -49.6810895 Eh     change       -0.2167693E-03 Eh
 * total energy  :   -49.6811462 Eh     change       -0.5666145E-04 Eh
 * total energy  :   -49.6813247 Eh     change       -0.1785005E-03 Eh
 * total energy  :   -49.6813939 Eh     change       -0.6920415E-04 Eh
 * total energy  :   -49.6814516 Eh     change       -0.5772767E-04 Eh
 * total energy  :   -49.6814797 Eh     change       -0.2809887E-04 Eh
 * total energy  :   -49.6815093 Eh     change       -0.2957732E-04 Eh
 * total energy  :   -49.6815319 Eh     change       -0.2263713E-04 Eh
   *** GEOMETRY OPTIMIZATION CONVERGED AFTER 62 ITERATIONS ***

 final structure:
================
25
 xtb: 6.6.1 (8d0f1dd)
C            3.15629627053517        0.77688761681976        0.47299440670412
N            2.36655964970136        0.06868769194469       -0.59728683589516
C            2.63843332956201       -1.39971382134741       -0.43365824257985
N            1.46958657846110       -1.96213920615350       -0.19752355325964
C            0.41022144240781       -1.06221551935522       -0.15328487884654
C            0.92706042205303        0.18613544175352       -0.36234074665904
C            0.12035841914757        1.37747729775146       -0.35138926416536
O            0.52688380785016        2.50434117787836       -0.50192403417246
N           -1.22269362075000        1.06192805224418       -0.12041928028787
C           -2.17196374240366        2.16474401112282       -0.08605761468635
C           -1.77852198201073       -0.18898771417855        0.06775886558611
O           -2.95082276687998       -0.35778212029954        0.23967834793971
N           -0.88833369370917       -1.29657565326558        0.05884727509672
C           -1.42665906905287       -2.62817231625051        0.25385063695741
H            2.88327535063098        0.41969600739219        1.46395570882148
H            4.21365065777425        0.58753193207884        0.29855622375988
H            2.94668007539366        1.84415495091122        0.39464944395003
H            2.51771699705141        0.24519127187643       -1.03700473599681
H           -1.62079724934199        3.09034159552140       -0.23581160182139
H           -2.91794459884850        2.03685165464537       -0.87060494400295
H           -2.68590055981163        2.18014305722928        0.87505751931817
H           -1.00960173273324       -3.08414089349674        1.15261151545511
H           -1.22252475074378       -3.25481390312931       -0.61518041530880
H           -2.50526469768663       -2.52980023987932        0.37427049474547
H            1.38473697750467       -2.96153183021285       -0.05857267275299

          :  Hamiltonian                  GFN2-xTB          :
         :: total energy             -49.681531901940 Eh    ::
         :: gradient norm              0.003155584299 Eh/a0 ::
         :: HOMO-LUMO gap              2.621912312273 eV    ::
         :: SCC energy               -42.668926551955 Eh    ::
         :: -> dispersion             -0.023008340045 Eh    ::
         :: repulsion energy           1.545521156563 Eh    ::

    * Orbital Energies and Occupations

         #    Occupation            Energy/Eh            Energy/eV
      -------------------------------------------------------------
         1        2.0000           -0.9173063             -24.9612
       ...           ...                  ...                  ...
        25        1.9999           -0.6765792             -18.4107
        26        1.9999           -0.6681854             -18.1823
        27        1.9998           -0.6585114             -17.9190
        28        1.9998           -0.6559794             -17.8501
        29        1.9994           -0.6404789             -17.4283
        30        1.9991           -0.6342240             -17.2581
        31        1.9987           -0.6280544             -17.0902
        32        1.9955           -0.6087546             -16.5651
        33        1.9878           -0.5928334             -16.1318
        34        1.9802           -0.5851842             -15.9237
        35        1.9598           -0.5738005             -15.6139
        36        1.9568           -0.5726271             -15.5820
        37        1.9515           -0.5707591             -15.5311 (HOMO)
        38        0.1680           -0.4744056             -12.9092 (LUMO)
        39        0.0029           -0.4088116             -11.1243
        40        0.0010           -0.3912470             -10.6464
        41        0.0000           -0.3061317              -8.3303
        42                         -0.2453736              -6.6770
        43                         -0.2046182              -5.5679
        44                         -0.2003382              -5.4515
        45                         -0.1706181              -4.6428
        46                         -0.1602835              -4.3615
        47                         -0.1244576              -3.3867
        48                         -0.0479060              -1.3036
       ...                                ...                  ...
        67                          3.6671195              99.7874
      -------------------------------------------------------------
                  HL-Gap            0.0963535 Eh            2.6219 eV

     #   Z          covCN         q      C6AA      α(0)
     1   6 C        3.711    -0.087    22.304     6.749
     2   7 N        3.620     0.048    20.401     6.708
     3   6 C        1.945    -0.103    33.937     9.408
     4   7 N        2.762    -0.028    21.779     6.931
     5   6 C        2.938     0.122    25.325     8.253
     6   6 C        3.010    -0.050    29.227     8.868
     7   6 C        2.765     0.269    22.451     7.760
     8   8 O        0.858    -0.365    21.002     6.144
     9   7 N        2.748    -0.083    22.850     7.100
    10   6 C        3.709    -0.062    21.827     6.677
    11   6 C        2.728     0.318    21.594     7.608
    12   8 O        0.859    -0.344    20.593     6.084
    13   7 N        2.739    -0.055    22.296     7.013
    14   6 C        3.696    -0.071    22.033     6.715
    15   1 H        0.925     0.104     1.745     2.066
    16   1 H        0.925     0.128     1.553     1.949
    17   1 H        0.924     0.128     1.550     1.947
    18   1 H        0.893     0.267     0.818     1.416
    19   1 H        0.925     0.117     1.636     2.000
    20   1 H        0.925     0.105     1.742     2.064
    21   1 H        0.925     0.104     1.747     2.067
    22   1 H        0.924     0.088     1.894     2.152
    23   1 H        0.924     0.088     1.896     2.153
    24   1 H        0.925     0.129     1.545     1.943
    25   1 H        0.860     0.232     0.958     1.534

Wiberg/Mayer (AO) data.
largest (>0.10) Wiberg bond orders for each atom

     #   Z sym  total        # sym  WBO       # sym  WBO       # sym  WBO
 ---------------------------------------------------------------------------
     1   6 C    3.870 --    15 H    0.982    16 H    0.970    17 H    0.967
                             2 N    0.889
     2   7 N    3.733 --     6 C    0.950     3 C    0.936     1 C    0.889
                            18 H    0.886
     3   6 C    2.644 --     4 N    1.519     2 N    0.936
     4   7 N    3.632 --     3 C    1.519     5 C    1.094    25 H    0.914
     5   6 C    3.936 --     6 C    1.438    13 N    1.241     4 N    1.094
     6   6 C    3.836 --     5 C    1.438     7 C    1.099     2 N    0.950
     7   6 C    3.955 --     8 O    1.681     6 C    1.099     9 N    1.083
     8   8 O    2.013 --     7 C    1.681     9 N    0.140
     9   7 N    3.536 --    11 C    1.130     7 C    1.083    10 C    0.971
                             8 O    0.140    12 O    0.139
    10   6 C    3.898 --     9 N    0.971    19 H    0.965    21 H    0.957
                            20 H    0.956
    11   6 C    3.958 --    12 O    1.718     9 N    1.130    13 N    1.019
    12   8 O    2.065 --    11 C    1.718     9 N    0.139    13 N    0.116
    13   7 N    3.554 --     5 C    1.241    11 C    1.019    14 C    0.975
                            12 O    0.116
    14   6 C    3.917 --    13 N    0.975    23 H    0.967    22 H    0.967
                            24 H    0.963
    15   1 H    0.989 --     1 C    0.982
    16   1 H    0.982 --     1 C    0.970
    17   1 H    0.983 --     1 C    0.967
    18   1 H    0.927 --     2 N    0.886
    19   1 H    0.983 --    10 C    0.965
    20   1 H    0.977 --    10 C    0.956
    21   1 H    0.977 --    10 C    0.957
    22   1 H    0.986 --    14 C    0.967
    23   1 H    0.986 --    14 C    0.967
    24   1 H    0.982 --    14 C    0.963
    25   1 H    0.946 --     4 N    0.914
 ---------------------------------------------------------------------------

molecular dipole:
                 x           y           z       tot (Debye)
 q only:        2.107      -1.509       0.041
   full:        1.839      -1.663      -0.068       6.303

           -------------------------------------------------
          | TOTAL ENERGY              -49.681531901940 Eh   |
          | GRADIENT NORM               0.003155584299 Eh/α |
          | HOMO-LUMO GAP               2.621912312273 eV   |
           -------------------------------------------------

 * finished run on 2024/06/05 at 19:58:30.519
