   * xtb version 6.6.1 (8d0f1dd) compiled by 'conda@1efc2f54142f' on 2023-08-01
          program call               : xtb xtbopt.xyz --opt crude --input .xc2 --gfn2

   ID    Z sym.   atoms
    1    6 C      1, 3, 5-7, 10, 11, 14
    2    7 N      2, 4, 9, 13
    3    8 O      8, 12
    4    1 H      15-25
########################################################################
[WARNING] Please study the warnings concerning your input carefully
-1- readin_getIntValue: could not parse ''
########################################################################

          :  Hamiltonian                  GFN2-xTB          :
 * total energy  :   -41.1232344 Eh     change        0.7105427E-13 Eh
 * total energy  :   -42.1184813 Eh     change       -0.9952469E+00 Eh
 * total energy  :   -42.1330114 Eh     change       -0.1453008E-01 Eh
 * total energy  :   -42.1366354 Eh     change       -0.3624024E-02 Eh
 * total energy  :   -42.1370659 Eh     change       -0.4305696E-03 Eh
 * total energy  :   -42.1372397 Eh     change       -0.1737350E-03 Eh
 * total energy  :   -42.1373196 Eh     change       -0.7994816E-04 Eh
   *** GEOMETRY OPTIMIZATION CONVERGED AFTER 7 ITERATIONS ***

 final structure:
================
25
 xtb: 6.6.1 (8d0f1dd)
C            3.16353769906476        0.79176666807467        0.50720113040580
N            2.35608207374499        0.03400592005637       -0.48653131203411
C            2.63031233113847       -1.42054192834233       -0.40561480168079
N            1.45522461389792       -1.98313599555784       -0.19484309588600
C            0.40117794177579       -1.07844621116241       -0.13592563116883
C            0.92512889967145        0.17188505422808       -0.31468945050650
C            0.12217124870811        1.36447023679145       -0.31410165397771
O            0.53586464478665        2.49034392954579       -0.46012808837343
N           -1.22571435858501        1.05333965351507       -0.11420939454150
C           -2.17188371280027        2.15957601740023       -0.09509145183514
C           -1.78596826107255       -0.19550835463786        0.07485429543943
O           -2.95981109717170       -0.35825618566768        0.24542569789784
N           -0.90259264828426       -1.30632950863038        0.05921341928883
C           -1.44930192605747       -2.63461679863521        0.25926071226971
H            2.90688328270277        0.45653195901635        1.50918564596028
H            4.22034839677522        0.60783623359717        0.32521479673014
H            2.94101676266524        1.85376077273133        0.40869409719801
H            2.66696368528285        0.38719340652688       -1.41233454209062
H           -1.61642375595495        3.08143093881509       -0.25101224880494
H           -2.91357568903642        2.02552619869790       -0.88256583139796
H           -2.69114396121750        2.18657909448540        0.86282439186809
H           -1.03325714257030       -3.08923848424446        1.15884167140412
H           -1.25157178338718       -3.26600079842431       -0.60739999848617
H           -2.52699883853521       -2.52853784347667        0.38179103358400
H            1.36396310855961       -2.98539543310161       -0.08688777336354

          :  Hamiltonian                  GFN2-xTB          :
         :: total energy             -42.137319631075 Eh    ::
         :: gradient norm              0.009289293973 Eh/a0 ::
         :: HOMO-LUMO gap              2.651721873474 eV    ::
         :: SCC energy               -42.638526565172 Eh    ::
         :: -> dispersion             -0.022952060550 Eh    ::
         :: repulsion energy           0.501035399750 Eh    ::

    * Orbital Energies and Occupations

         #    Occupation            Energy/Eh            Energy/eV
      -------------------------------------------------------------
         1        2.0000           -0.9092655             -24.7424
       ...           ...                  ...                  ...
        25        1.9999           -0.6737498             -18.3337
        26        1.9999           -0.6655388             -18.1102
        27        1.9998           -0.6517799             -17.7358
        28        1.9997           -0.6496790             -17.6787
        29        1.9994           -0.6381143             -17.3640
        30        1.9992           -0.6320237             -17.1982
        31        1.9987           -0.6250083             -17.0073
        32        1.9959           -0.6068712             -16.5138
        33        1.9879           -0.5897940             -16.0491
        34        1.9795           -0.5812992             -15.8180
        35        1.9590           -0.5701816             -15.5154
        36        1.9583           -0.5699110             -15.5081
        37        1.9539           -0.5682696             -15.4634 (HOMO)
        38        0.1651           -0.4708206             -12.8117 (LUMO)
        39        0.0029           -0.4054936             -11.0340
        40        0.0010           -0.3883885             -10.5686
        41        0.0000           -0.3025888              -8.2339
        42        0.0000           -0.2470599              -6.7228
        43                         -0.2027894              -5.5182
        44                         -0.1787257              -4.8634
        45                         -0.1495652              -4.0699
        46                         -0.1475305              -4.0145
        47                         -0.1130385              -3.0759
        48                         -0.0998367              -2.7167
       ...                                ...                  ...
        67                          0.5461854              14.8625
      -------------------------------------------------------------
                  HL-Gap            0.0974490 Eh            2.6517 eV

     #   Z          covCN         q      C6AA      α(0)
     1   6 C        3.694    -0.085    22.305     6.757
     2   7 N        3.639     0.078    19.889     6.624
     3   6 C        1.934    -0.098    33.795     9.388
     4   7 N        2.771    -0.027    21.772     6.930
     5   6 C        2.947     0.122    25.310     8.251
     6   6 C        2.998    -0.046    29.130     8.854
     7   6 C        2.765     0.269    22.466     7.762
     8   8 O        0.858    -0.370    21.099     6.159
     9   7 N        2.748    -0.083    22.855     7.100
    10   6 C        3.709    -0.061    21.819     6.676
    11   6 C        2.728     0.318    21.593     7.607
    12   8 O        0.859    -0.347    20.642     6.092
    13   7 N        2.740    -0.055    22.312     7.015
    14   6 C        3.696    -0.070    22.024     6.713
    15   1 H        0.925     0.104     1.752     2.070
    16   1 H        0.925     0.122     1.600     1.978
    17   1 H        0.925     0.124     1.585     1.969
    18   1 H        0.858     0.251     0.879     1.469
    19   1 H        0.925     0.116     1.644     2.005
    20   1 H        0.925     0.103     1.756     2.072
    21   1 H        0.925     0.104     1.753     2.071
    22   1 H        0.924     0.088     1.902     2.157
    23   1 H        0.924     0.087     1.905     2.158
    24   1 H        0.925     0.128     1.548     1.946
    25   1 H        0.860     0.230     0.966     1.540

Wiberg/Mayer (AO) data.
largest (>0.10) Wiberg bond orders for each atom

     #   Z sym  total        # sym  WBO       # sym  WBO       # sym  WBO
 ---------------------------------------------------------------------------
     1   6 C    3.883 --    15 H    0.979    16 H    0.972    17 H    0.969
                             2 N    0.919
     2   7 N    3.777 --     6 C    0.966     3 C    0.950     1 C    0.919
                            18 H    0.880
     3   6 C    2.649 --     4 N    1.514     2 N    0.950
     4   7 N    3.633 --     3 C    1.514     5 C    1.096    25 H    0.915
     5   6 C    3.936 --     6 C    1.436    13 N    1.239     4 N    1.096
     6   6 C    3.841 --     5 C    1.436     7 C    1.100     2 N    0.966
     7   6 C    3.955 --     8 O    1.677     6 C    1.100     9 N    1.086
     8   8 O    2.009 --     7 C    1.677     9 N    0.140
     9   7 N    3.538 --    11 C    1.130     7 C    1.086    10 C    0.971
                             8 O    0.140    12 O    0.139
    10   6 C    3.900 --     9 N    0.971    19 H    0.966    20 H    0.958
                            21 H    0.958
    11   6 C    3.959 --    12 O    1.715     9 N    1.130    13 N    1.022
    12   8 O    2.063 --    11 C    1.715     9 N    0.139    13 N    0.117
    13   7 N    3.553 --     5 C    1.239    11 C    1.022    14 C    0.974
                            12 O    0.117
    14   6 C    3.918 --    13 N    0.974    23 H    0.968    22 H    0.967
                            24 H    0.963
    15   1 H    0.989 --     1 C    0.979
    16   1 H    0.984 --     1 C    0.972
    17   1 H    0.984 --     1 C    0.969
    18   1 H    0.928 --     2 N    0.880
    19   1 H    0.983 --    10 C    0.966
    20   1 H    0.978 --    10 C    0.958
    21   1 H    0.978 --    10 C    0.958
    22   1 H    0.986 --    14 C    0.967
    23   1 H    0.987 --    14 C    0.968
    24   1 H    0.983 --    14 C    0.963
    25   1 H    0.947 --     4 N    0.915
 ---------------------------------------------------------------------------

molecular dipole:
                 x           y           z       tot (Debye)
 q only:        2.215      -1.498      -0.153
   full:        1.963      -1.622      -0.276       6.511

           -------------------------------------------------
          | TOTAL ENERGY              -42.137319631075 Eh   |
          | GRADIENT NORM               0.009289293973 Eh/α |
          | HOMO-LUMO GAP               2.651721873474 eV   |
           -------------------------------------------------

 * finished run on 2024/06/05 at 19:58:30.811
