   * xtb version 6.6.1 (8d0f1dd) compiled by 'conda@1efc2f54142f' on 2023-08-01
          program call               : xtb struc.xyz --opt loose --input .xc1 --gfn2

   ID    Z sym.   atoms
    1    7 N      1, 17
    2    6 C      2-6, 8, 9, 11-16, 18-23, 25, 26, 28-33
    3    8 O      7, 10, 24, 27
    4    1 H      34-72
constraining bond 9 39 to    3.7133300 Å, actual value:    3.2408010 Å

          :  Hamiltonian                  GFN2-xTB          :
 * total energy  :   -99.4439989 Eh     change       -0.4035485E-08 Eh
 * total energy  :   -99.5219212 Eh     change       -0.7792229E-01 Eh
 * total energy  :   -99.5901065 Eh     change       -0.6818531E-01 Eh
 * total energy  :   -99.6269146 Eh     change       -0.3680807E-01 Eh
 * total energy  :   -99.7033422 Eh     change       -0.7642760E-01 Eh
 * total energy  :   -99.8362997 Eh     change       -0.1329575E+00 Eh
 * total energy  :  -100.0530915 Eh     change       -0.2167918E+00 Eh
 * total energy  :  -100.3279917 Eh     change       -0.2749002E+00 Eh
 * total energy  :  -100.1911537 Eh     change        0.1368380E+00 Eh
 * total energy  :  -100.4323139 Eh     change       -0.2411602E+00 Eh
 * total energy  :  -100.5936421 Eh     change       -0.3310923E-03 Eh
 * total energy  :  -100.5939215 Eh     change       -0.2794301E-03 Eh
 * total energy  :  -100.5941835 Eh     change       -0.2620092E-03 Eh
 * total energy  :  -100.5943694 Eh     change       -0.1858989E-03 Eh
 * total energy  :  -100.5944854 Eh     change       -0.1159574E-03 Eh
 * total energy  :  -100.5945580 Eh     change       -0.7260713E-04 Eh
 * total energy  :  -100.5946140 Eh     change       -0.5599538E-04 Eh
 * total energy  :  -100.5946668 Eh     change       -0.5284860E-04 Eh
 * total energy  :  -100.5947060 Eh     change       -0.3921437E-04 Eh
   *** GEOMETRY OPTIMIZATION CONVERGED AFTER 57 ITERATIONS ***

 final structure:
================
72
 xtb: 6.6.1 (8d0f1dd)
N           -1.78913177319336        3.15280688395143        2.06555091137739
C           -1.85161958196626        2.21235943560441        1.24586893030971
C           -3.03328804548691        1.94340666362083        0.35184280132526
C           -3.49725687702104        0.52526528337520        0.58335906532900
C           -4.40263760910834       -0.08243115119635       -0.30192222194171
C           -4.65661028097155       -1.42843562104098       -0.24591790914478
O           -5.55108110420838       -2.11134072028414       -0.95880378867542
C           -6.37562778931008       -1.43024677732543       -1.88634980348275
C           -3.68537232894546       -2.31957269633007        0.54690723570973
O           -2.66310230464706       -2.62278733010691       -0.24105321311246
C           -4.69105547128698       -4.01549379907158        1.13405225625431
C           -3.19606234489886       -1.55809413511575        1.76870812335054
C           -3.03102814916117       -0.22006438233557        1.69510032970088
C           -2.50832961168988        2.07467674202248       -1.10815417150579
C           -1.64262775108981        0.90117246873962       -1.59339498754468
C           -0.28012136840725        0.88800909871622       -1.02193755697891
N            0.43096736762238       -0.19763473788741       -0.82484380885785
C            1.79054205880654       -0.10957376939937       -0.34383249054554
C            2.80943361430410       -0.34805859093330       -1.47495123675256
C            4.20745709723725       -0.14052983605572       -0.96282065534917
C            4.83395382270388        1.08836446246307       -1.09759229584081
C            6.11722727737547        1.28875357293585       -0.61388771494229
C            6.79969776396666        0.26217483644712        0.02394415977130
O            8.04375296216763        0.34053565630670        0.52651176145697
C            8.76674307031108        1.54313919450124        0.39468591180632
C            6.16101749927160       -1.00156942006246        0.17575736255748
O            6.89296988436191       -1.93851136842843        0.80596865921784
C            6.36085698973057       -3.22991360992165        0.98538056030748
C            4.87765437529613       -1.17783397150721       -0.31869349681228
C           -0.04468059891799       -1.51089877821390       -1.18071551350469
C           -4.22719389875889        2.91909037491833        0.57632634680474
C           -4.79815179471659        2.76777292631924        1.98414880326324
C           -3.87557129017561        4.37984551344774        0.31273044551891
H           -4.91705487381103        0.52856527621497       -1.02703562368911
H           -6.97217474638990       -0.66187112251691       -1.38830802475225
H           -7.03321296401263       -2.18761624820093       -2.30898307522451
H           -5.77974968459697       -0.97885145188926       -2.68374755716943
H           -5.71892945918051       -3.85707255156556        0.84740386960495
H           -4.06189211734412       -2.96424621274432        0.82244655577035
H           -4.16915493640311       -4.82781922934841        0.65638184546899
H           -2.82747712472693       -2.14982174440506        2.58958620659677
H           -2.55124994951029        0.30636156728334        2.50689869206088
H           -3.36849019116884        2.15664897196802       -1.77218697088246
H           -1.93957618244220        3.00194064998316       -1.19061554316073
H           -2.14395816928051       -0.04885203631863       -1.40188391049667
H           -1.54640207363232        0.99529617577499       -2.68341507425129
H           -1.03192915221056        1.49228521447419        1.06745491073631
H            0.20376076031570        1.83557508334454       -0.83012005979423
H            1.93666580340483       -0.85552593806557        0.44171236033756
H            1.96383588363441        0.88003089278702        0.08476474606635
H            2.60585023528098        0.35364494598418       -2.28571002537710
H            2.69963005919062       -1.36208363979607       -1.86053863685685
H            4.32830448258495        1.90064839932065       -1.59720053811899
H            6.58191289471129        2.25225815372450       -0.74355862474296
H            8.27096419919227        2.36772086819111        0.91575830482293
H            8.91208792449108        1.80904815033878       -0.65653353156009
H            9.73389473651209        1.35427977480300        0.85645852859948
H            7.13568294661178       -3.79569699881857        1.49901198070107
H            5.45829084921931       -3.20949759346752        1.60424467104030
H            6.13840692489322       -3.70880026961854        0.02699031139619
H            4.39026180808742       -2.13505819761897       -0.21947699702966
H           -0.19399935528158       -1.58711833037419       -2.25857950451957
H           -0.99971945940658       -1.76123529827515       -0.69771355554967
H            0.68278485520577       -2.25630351017322       -0.87380500964537
H           -5.00529913369991        2.62378839559462       -0.13707388280185
H           -4.06496288234625        3.08200632437919        2.72040331719270
H           -5.08145297692306        1.73662572253649        2.18406445033084
H           -5.68110051344228        3.39241234456667        2.09032887715454
H           -3.08497219793873        4.70228716672965        0.98300738405933
H           -3.56565664510395        4.54495742490061       -0.71578771498036
H           -4.75300904048565        4.99402722379364        0.49861070840766
H           -0.93611874620695        3.25681875084757        2.60603818378893

          :  Hamiltonian                  GFN2-xTB          :
         :: total energy            -100.594706037258 Eh    ::
         :: gradient norm              0.003350136872 Eh/a0 ::
         :: HOMO-LUMO gap              0.597562657360 eV    ::
         :: SCC energy              -100.560610132654 Eh    ::
         :: -> dispersion             -0.075777320630 Eh    ::
         :: repulsion energy           1.484308470527 Eh    ::

    * Orbital Energies and Occupations

         #    Occupation            Energy/Eh            Energy/eV
      -------------------------------------------------------------
         1        2.0000           -0.8330152             -22.6675
       ...           ...                  ...                  ...
        78        1.9980           -0.5333737             -14.5138
        79        1.9978           -0.5321051             -14.4793
        80        1.9963           -0.5240907             -14.2612
        81        1.9951           -0.5195596             -14.1379
        82        1.9948           -0.5185515             -14.1105
        83        1.9943           -0.5171511             -14.0724
        84        1.9831           -0.4997813             -13.5997
        85        1.9738           -0.4927404             -13.4081
        86        1.9472           -0.4814191             -13.1001
        87        1.9268           -0.4760990             -12.9553
        88        1.8600           -0.4652587             -12.6603
        89        1.8123           -0.4602147             -12.5231
        90        1.4418           -0.4393312             -11.9548 (HOMO)
        91        0.7844           -0.4173711             -11.3572 (LUMO)
        92        0.2846           -0.3958661             -10.7721
        93        0.0123           -0.3437474              -9.3538
        94        0.0026           -0.3188501              -8.6764
        95        0.0023           -0.3169730              -8.6253
        96        0.0021           -0.3158692              -8.5952
        97        0.0020           -0.3145469              -8.5593
        98        0.0000           -0.2512982              -6.8382
        99        0.0000           -0.1921673              -5.2291
       100                         -0.1326695              -3.6101
       101                         -0.0949100              -2.5826
       ...                                ...                  ...
       171                          1.8067564              49.1643
      -------------------------------------------------------------
                  HL-Gap            0.0219600 Eh            0.5976 eV

     #   Z          covCN         q      C6AA      α(0)
     1   7 N        1.774    -0.268    27.784     7.805
     2   6 C        2.828     0.102    25.743     8.314
     3   6 C        3.907     0.008    20.386     6.418
     4   6 C        2.979     0.014    27.706     8.634
     5   6 C        2.905    -0.078    29.940     8.972
     6   6 C        2.851     0.128    25.187     8.226
     7   8 O        1.704    -0.215    17.564     5.658
     8   6 C        3.645     0.023    20.530     6.512
     9   6 C        4.117     0.174    17.744     5.983
    10   8 O        0.858    -0.557    25.093     6.716
    11   6 C        3.050    -0.177    32.577     9.361
    12   6 C        2.902    -0.063    29.578     8.917
    13   6 C        2.905    -0.039    28.974     8.826
    14   6 C        3.812    -0.065    21.739     6.637
    15   6 C        3.803    -0.074    21.921     6.666
    16   6 C        2.847     0.016    27.649     8.618
    17   7 N        2.730     0.041    20.528     6.729
    18   6 C        3.759    -0.020    20.979     6.530
    19   6 C        3.808    -0.071    21.854     6.655
    20   6 C        2.969     0.002    27.983     8.677
    21   6 C        2.922    -0.047    29.179     8.858
    22   6 C        2.913    -0.067    29.661     8.931
    23   6 C        2.865     0.135    25.050     8.204
    24   8 O        1.706    -0.217    17.608     5.665
    25   6 C        3.645     0.024    20.511     6.509
    26   6 C        2.862     0.135    25.051     8.204
    27   8 O        1.706    -0.220    17.651     5.672
    28   6 C        3.645     0.025    20.487     6.506
    29   6 C        2.919    -0.079    29.972     8.978
    30   6 C        3.702    -0.095    22.477     6.779
    31   6 C        3.852    -0.006    20.656     6.464
    32   6 C        3.756    -0.118    22.807     6.809
    33   6 C        3.755    -0.122    22.889     6.822
    34   1 H        0.926     0.055     2.252     2.347
    35   1 H        0.924     0.062     2.171     2.304
    36   1 H        0.925     0.088     1.898     2.155
    37   1 H        0.924     0.062     2.177     2.307
    38   1 H        0.926     0.069     2.097     2.265
    39   1 H        1.755     0.230     0.954     1.525
    40   1 H        0.926     0.081     1.970     2.195
    41   1 H        0.926     0.069     2.094     2.263
    42   1 H        0.926     0.054     2.268     2.355
    43   1 H        0.925     0.063     2.164     2.300
    44   1 H        0.924     0.057     2.237     2.339
    45   1 H        0.924     0.089     1.889     2.150
    46   1 H        0.923     0.086     1.914     2.163
    47   1 H        0.922     0.006     2.950     2.686
    48   1 H        0.926     0.074     2.040     2.234
    49   1 H        0.924     0.076     2.018     2.221
    50   1 H        0.924     0.066     2.126     2.280
    51   1 H        0.924     0.056     2.245     2.343
    52   1 H        0.924     0.062     2.173     2.305
    53   1 H        0.926     0.048     2.349     2.397
    54   1 H        0.926     0.061     2.193     2.316
    55   1 H        0.924     0.056     2.244     2.343
    56   1 H        0.924     0.058     2.223     2.332
    57   1 H        0.925     0.084     1.935     2.175
    58   1 H        0.925     0.084     1.938     2.177
    59   1 H        0.924     0.052     2.297     2.370
    60   1 H        0.924     0.055     2.254     2.348
    61   1 H        0.926     0.051     2.308     2.376
    62   1 H        0.924     0.083     1.951     2.184
    63   1 H        0.923     0.139     1.470     1.896
    64   1 H        0.925     0.084     1.942     2.179
    65   1 H        0.924     0.037     2.484     2.465
    66   1 H        0.925     0.066     2.128     2.281
    67   1 H        0.925     0.035     2.517     2.481
    68   1 H        0.925     0.054     2.276     2.359
    69   1 H        0.925     0.069     2.101     2.267
    70   1 H        0.925     0.037     2.491     2.468
    71   1 H        0.925     0.057     2.238     2.340
    72   1 H        0.860     0.158     1.346     1.817

Wiberg/Mayer (AO) data.
largest (>0.10) Wiberg bond orders for each atom

     #   Z sym  total        # sym  WBO       # sym  WBO       # sym  WBO
 ---------------------------------------------------------------------------
     1   7 N    3.029 --     2 C    1.956    72 H    0.941
     2   6 C    3.936 --     1 N    1.956     3 C    0.991    47 H    0.913
     3   6 C    3.974 --     2 C    0.991     4 C    0.990    14 C    0.946
                            31 C    0.936
     4   6 C    3.672 --     5 C    1.324    13 C    1.243     3 C    0.990
     5   6 C    3.945 --     6 C    1.464     4 C    1.324    34 H    0.949
     6   6 C    3.689 --     5 C    1.464     7 O    1.158     9 C    0.909
     7   8 O    2.269 --     6 C    1.158     8 C    0.959
     8   6 C    3.920 --    36 H    0.977    35 H    0.973    37 H    0.972
                             7 O    0.959
     9   6 C    3.955 --    10 O    1.154    12 C    0.935     6 C    0.909
                            39 H    0.611    11 C    0.271
    10   8 O    1.492 --     9 C    1.154    11 C    0.141
    11   6 C    2.743 --    38 H    0.974    40 H    0.972    39 H    0.315
                             9 C    0.271    10 O    0.141
    12   6 C    3.714 --    13 C    1.665    41 H    0.964     9 C    0.935
    13   6 C    3.970 --    12 C    1.665     4 C    1.243    42 H    0.950
    14   6 C    3.973 --    15 C    0.994    44 H    0.971    43 H    0.969
                             3 C    0.946
    15   6 C    3.984 --    16 C    1.063    14 C    0.994    45 H    0.945
                            46 H    0.920
    16   6 C    3.682 --    17 N    1.484    15 C    1.063    48 H    0.954
    17   7 N    3.555 --    16 C    1.484    30 C    0.995    18 C    0.986
    18   6 C    3.954 --    17 N    0.986    50 H    0.969    19 C    0.967
                            49 H    0.961
    19   6 C    3.978 --    20 C    1.008    51 H    0.972    52 H    0.969
                            18 C    0.967
    20   6 C    3.938 --    21 C    1.405    29 C    1.381    19 C    1.008
    21   6 C    3.943 --    22 C    1.418    20 C    1.405    53 H    0.968
    22   6 C    3.955 --    21 C    1.418    23 C    1.380    54 H    0.963
    23   6 C    3.888 --    22 C    1.380    26 C    1.213    24 O    1.116
    24   8 O    2.255 --    23 C    1.116    25 C    0.975
    25   6 C    3.926 --    57 H    0.976    24 O    0.975    56 H    0.972
                            55 H    0.972
    26   6 C    3.892 --    29 C    1.392    23 C    1.213    27 O    1.110
    27   8 O    2.255 --    26 C    1.110    28 C    0.977
    28   6 C    3.929 --    27 O    0.977    58 H    0.976    59 H    0.973
                            60 H    0.972
    29   6 C    3.955 --    26 C    1.392    20 C    1.381    61 H    0.962
    30   6 C    3.924 --    17 N    0.995    64 H    0.977    62 H    0.961
                            63 H    0.916
    31   6 C    3.959 --    33 C    1.009    32 C    1.008    65 H    0.959
                             3 C    0.936
    32   6 C    3.979 --    31 C    1.008    68 H    0.981    67 H    0.981
                            66 H    0.976
    33   6 C    3.977 --    31 C    1.009    70 H    0.982    71 H    0.978
                            69 H    0.973
    34   1 H    0.991 --     5 C    0.949
    35   1 H    0.991 --     8 C    0.973
    36   1 H    0.992 --     8 C    0.977
    37   1 H    0.991 --     8 C    0.972
    38   1 H    0.982 --    11 C    0.974
    39   1 H    0.941 --     9 C    0.611    11 C    0.315
    40   1 H    0.979 --    11 C    0.972
    41   1 H    0.991 --    12 C    0.964
    42   1 H    0.992 --    13 C    0.950
    43   1 H    0.995 --    14 C    0.969
    44   1 H    0.995 --    14 C    0.971
    45   1 H    0.988 --    15 C    0.945
    46   1 H    0.972 --    15 C    0.920
    47   1 H    0.985 --     2 C    0.913
    48   1 H    0.994 --    16 C    0.954
    49   1 H    0.989 --    18 C    0.961
    50   1 H    0.995 --    18 C    0.969
    51   1 H    0.996 --    19 C    0.972
    52   1 H    0.994 --    19 C    0.969
    53   1 H    0.997 --    21 C    0.968
    54   1 H    0.995 --    22 C    0.963
    55   1 H    0.990 --    25 C    0.972
    56   1 H    0.990 --    25 C    0.972
    57   1 H    0.992 --    25 C    0.976
    58   1 H    0.992 --    28 C    0.976
    59   1 H    0.992 --    28 C    0.973
    60   1 H    0.991 --    28 C    0.972
    61   1 H    0.996 --    29 C    0.962
    62   1 H    0.984 --    30 C    0.961
    63   1 H    0.974 --    30 C    0.916
    64   1 H    0.993 --    30 C    0.977
    65   1 H    0.992 --    31 C    0.959
    66   1 H    0.991 --    32 C    0.976
    67   1 H    0.997 --    32 C    0.981
    68   1 H    0.994 --    32 C    0.981
    69   1 H    0.991 --    33 C    0.973
    70   1 H    0.997 --    33 C    0.982
    71   1 H    0.992 --    33 C    0.978
    72   1 H    0.969 --     1 N    0.941
 ---------------------------------------------------------------------------

molecular dipole:
                 x           y           z       tot (Debye)
 q only:        0.573       1.056      -0.903
   full:        0.580       0.923      -1.319       4.348

           -------------------------------------------------
          | TOTAL ENERGY             -100.594706037258 Eh   |
          | GRADIENT NORM               0.003350136872 Eh/α |
          | HOMO-LUMO GAP               0.597562657360 eV   |
           -------------------------------------------------

 * finished run on 2024/04/06 at 11:16:18.438
