   * xtb version 6.6.1 (8d0f1dd) compiled by 'conda@1efc2f54142f' on 2023-08-01
          program call               : xtb xtbopt.xyz --opt crude --input .xc2 --gfn2

   ID    Z sym.   atoms
    1    7 N      1, 17
    2    6 C      2-6, 8, 9, 11-16, 18-23, 25, 26, 28-33
    3    8 O      7, 10, 24, 27
    4    1 H      34-72
########################################################################
[WARNING] Please study the warnings concerning your input carefully
-1- readin_getIntValue: could not parse ''
########################################################################

          :  Hamiltonian                  GFN2-xTB          :
 * total energy  :   -99.0748615 Eh     change       -0.6878054E-11 Eh
 * total energy  :   -99.1978687 Eh     change       -0.1230072E+00 Eh
 * total energy  :   -99.2103532 Eh     change       -0.1248446E-01 Eh
 * total energy  :   -99.2267486 Eh     change       -0.1639538E-01 Eh
 * total energy  :   -99.2401371 Eh     change       -0.1338852E-01 Eh
 * total energy  :   -99.2558605 Eh     change       -0.1572338E-01 Eh
 * total energy  :   -99.2656364 Eh     change       -0.9775918E-02 Eh
 * total energy  :   -99.2719132 Eh     change       -0.6276872E-02 Eh
 * total energy  :   -99.2770695 Eh     change       -0.5156261E-02 Eh
 * total energy  :   -99.2801940 Eh     change       -0.3124458E-02 Eh
 * total energy  :   -99.3956849 Eh     change       -0.1733996E-01 Eh
 * total energy  :   -99.3915565 Eh     change        0.4128488E-02 Eh
 * total energy  :   -99.3988749 Eh     change       -0.7318404E-02 Eh
 * total energy  :   -99.3960198 Eh     change        0.2855038E-02 Eh
 * total energy  :   -99.4000984 Eh     change       -0.4078606E-02 Eh
 * total energy  :   -99.4007501 Eh     change       -0.6516420E-03 Eh
 * total energy  :   -99.4014822 Eh     change       -0.7321257E-03 Eh
 * total energy  :   -99.4021180 Eh     change       -0.6358186E-03 Eh
 * total energy  :   -99.4025138 Eh     change       -0.3957986E-03 Eh
   *** GEOMETRY OPTIMIZATION CONVERGED AFTER 45 ITERATIONS ***

 final structure:
================
72
 xtb: 6.6.1 (8d0f1dd)
N           -1.82598252432925        3.20965260708202        2.06152167286506
C           -1.78088311697302        2.37781453245184        1.13174682159628
C           -2.95381562850951        1.99704479341317        0.26888485459657
C           -3.25848435177315        0.51949572623001        0.46776414856615
C           -4.19925954944458       -0.11884658264429       -0.33807346260146
C           -4.47378053243757       -1.47698812936505       -0.21798390924001
O           -5.38764524928644       -2.13773908977989       -0.96937557297521
C           -6.15452865105528       -1.42831531786038       -1.91633776320950
C           -3.73976295574207       -2.24085010165366        0.72065035319329
O           -3.78281228171825       -3.59959759230764        0.80016989137602
C           -5.01884430773605       -4.24332617286941        1.05335804322194
C           -2.83749366224549       -1.58947287504565        1.54696463960001
C           -2.60477470445256       -0.23010497181773        1.43719466168785
C           -2.49521025171273        2.25489925235798       -1.19294297025719
C           -1.56022990398985        1.18467647632866       -1.78600674647515
C           -0.21500236980300        1.14637401325469       -1.17147868014933
N            0.43514703116801        0.04199406571227       -0.83525281608246
C            1.79875496094155        0.10368419612821       -0.36258529626868
C            2.80786388003897       -0.26233447765620       -1.46848289785744
C            4.21280754137370       -0.10026983010752       -0.95803163148233
C            4.87454565455345        1.11002978422593       -1.08901543245616
C            6.16276474315207        1.27207670215194       -0.60352361927920
C            6.81546539545287        0.22423881897012        0.02999638485706
O            8.06203435155764        0.26518580002322        0.53379295901272
C            8.81678704471155        1.44875085280094        0.40923081302245
C            6.14188307928464       -1.02086411825918        0.17568846396537
O            6.84884631027818       -1.98230318755469        0.80045475386628
C            6.28221809436841       -3.26001960242377        0.96833124067775
C            4.85353965016296       -1.15835438239274       -0.31737744084365
C           -0.14205758016938       -1.27109279660050       -1.00441429219959
C           -4.23608056926190        2.82532354314390        0.57136803345104
C           -4.75110759069141        2.55611703264495        1.98308423787277
C           -4.04607290425588        4.32622095995734        0.36818365857409
H           -4.72682354173773        0.45577705662192       -1.08175052871737
H           -6.73752383570915       -0.63187799551253       -1.44479368885342
H           -6.83308194949478       -2.15972331790206       -2.35070829309830
H           -5.52567767732053       -1.00810329601758       -2.70682309815613
H           -5.80626328559902       -3.88838302144641        0.39014006012561
H           -5.32032022163803       -4.09131786718215        2.09718425553216
H           -4.83745117072338       -5.30172383874122        0.88150080257709
H           -2.31301914582076       -2.17915411198279        2.28205790503083
H           -1.91891679312649        0.23875985856596        2.12360626873818
H           -3.37773912148245        2.31012613385385       -1.83000242320204
H           -1.99888197303949        3.22538715724020       -1.23303602885640
H           -2.04487636392596        0.21149312678871       -1.73647109947773
H           -1.43025001325674        1.44078155936389       -2.84588215604037
H           -0.85710873460961        1.85933190929032        0.81128828138214
H            0.33403680299050        2.07393246126232       -1.10188842086351
H            1.91425357616780       -0.58546276781960        0.47818050308563
H            2.01512503005136        1.11373610262617       -0.00858999330951
H            2.64582568919686        0.39761320139420       -2.32244729927374
H            2.64262995777680       -1.29085793106087       -1.79126622789512
H            4.39275859230424        1.93810815503751       -1.58633211595720
H            6.65460799438816        2.22257950287612       -0.72906708996062
H            8.34263710955849        2.28350875379410        0.93430595602557
H            8.97073475230534        1.71651081464116       -0.64032749935591
H            9.77801635673957        1.23176577557275        0.87104313945618
H            7.04248963350814       -3.85198313648682        1.47420322865395
H            5.38201011325132       -3.22150437232535        1.58998758088308
H            6.04441015853812       -3.72327194204163        0.00581926814754
H            4.33886770526176       -2.10152677647516       -0.22044734869126
H           -0.36269446216522       -1.46866932659695       -2.05495415693486
H           -1.06375837835491       -1.36656454385974       -0.42590383927894
H            0.56026694660609       -2.02113417411098       -0.65197362899223
H           -5.00063382882526        2.48468304436310       -0.13648075504600
H           -4.04044747935139        2.92599917397369        2.71505311319339
H           -4.90677579338811        1.49265929492457        2.14835442572789
H           -5.69801558182569        3.06871086241928        2.13017576430479
H           -3.27137390730629        4.70100518349506        1.02982873246609
H           -3.78888893035539        4.56901125561116       -0.65943745576057
H           -4.97436587207074        4.83789158637703        0.60842484553432
H           -0.96609581198822        3.41292604341473        2.56119075883165

          :  Hamiltonian                  GFN2-xTB          :
         :: total energy             -99.402513822135 Eh    ::
         :: gradient norm              0.003987531326 Eh/a0 ::
         :: HOMO-LUMO gap              1.659416247465 eV    ::
         :: SCC energy              -100.781328431991 Eh    ::
         :: -> dispersion             -0.075722492064 Eh    ::
         :: repulsion energy           1.377467627972 Eh    ::

    * Orbital Energies and Occupations

         #    Occupation            Energy/Eh            Energy/eV
      -------------------------------------------------------------
         1        2.0000           -0.8145183             -22.1642
       ...           ...                  ...                  ...
        78        1.9982           -0.5298628             -14.4183
        79        1.9981           -0.5290770             -14.3969
        80        1.9978           -0.5270129             -14.3408
        81        1.9969           -0.5212728             -14.1846
        82        1.9965           -0.5197250             -14.1424
        83        1.9950           -0.5138021             -13.9813
        84        1.9942           -0.5114595             -13.9175
        85        1.9905           -0.5037785             -13.7085
        86        1.9777           -0.4901245             -13.3370
        87        1.9772           -0.4897336             -13.3263
        88        1.9319           -0.4720434             -12.8450
        89        1.9138           -0.4681746             -12.7397
        90        1.8344           -0.4571637             -12.4401 (HOMO)
        91        0.3811           -0.3961812             -10.7806 (LUMO)
        92        0.0131           -0.3395914              -9.2408
        93        0.0050           -0.3243756              -8.8267
        94        0.0033           -0.3175148              -8.6400
        95        0.0026           -0.3138585              -8.5405
        96        0.0022           -0.3114753              -8.4757
        97        0.0000           -0.1981863              -5.3929
        98        0.0000           -0.1890574              -5.1445
        99                         -0.1374653              -3.7406
       100                         -0.0745864              -2.0296
       101                         -0.0692650              -1.8848
       ...                                ...                  ...
       171                          0.5749755              15.6459
      -------------------------------------------------------------
                  HL-Gap            0.0609824 Eh            1.6594 eV

     #   Z          covCN         q      C6AA      α(0)
     1   7 N        1.774    -0.267    27.750     7.801
     2   6 C        2.828     0.101    25.744     8.314
     3   6 C        3.907     0.006    20.419     6.423
     4   6 C        2.974     0.005    27.898     8.664
     5   6 C        2.922    -0.079    29.972     8.978
     6   6 C        2.858     0.124    25.272     8.240
     7   8 O        1.705    -0.248    18.117     5.747
     8   6 C        3.642     0.030    20.413     6.496
     9   6 C        2.858     0.122    25.306     8.245
    10   8 O        1.704    -0.269    18.461     5.801
    11   6 C        3.639     0.029    20.448     6.504
    12   6 C        2.918    -0.059    29.466     8.901
    13   6 C        2.921    -0.053    29.317     8.879
    14   6 C        3.812    -0.064    21.720     6.634
    15   6 C        3.802    -0.070    21.837     6.653
    16   6 C        2.843     0.008    27.833     8.646
    17   7 N        2.729     0.018    20.946     6.797
    18   6 C        3.756    -0.018    20.941     6.525
    19   6 C        3.807    -0.071    21.849     6.654
    20   6 C        2.969     0.000    28.020     8.683
    21   6 C        2.922    -0.048    29.203     8.862
    22   6 C        2.914    -0.067    29.675     8.933
    23   6 C        2.865     0.134    25.069     8.207
    24   8 O        1.706    -0.220    17.656     5.673
    25   6 C        3.645     0.024    20.497     6.507
    26   6 C        2.862     0.134    25.074     8.208
    27   8 O        1.706    -0.223    17.700     5.680
    28   6 C        3.645     0.026    20.466     6.502
    29   6 C        2.919    -0.079    29.982     8.979
    30   6 C        3.700    -0.074    22.080     6.720
    31   6 C        3.852    -0.007    20.671     6.467
    32   6 C        3.756    -0.118    22.814     6.810
    33   6 C        3.755    -0.120    22.853     6.816
    34   1 H        0.926     0.052     2.296     2.370
    35   1 H        0.924     0.052     2.292     2.368
    36   1 H        0.925     0.077     2.011     2.218
    37   1 H        0.924     0.047     2.362     2.404
    38   1 H        0.925     0.063     2.162     2.299
    39   1 H        0.924     0.049     2.338     2.391
    40   1 H        0.925     0.073     2.057     2.243
    41   1 H        0.926     0.065     2.146     2.291
    42   1 H        0.926     0.042     2.422     2.434
    43   1 H        0.925     0.061     2.182     2.310
    44   1 H        0.924     0.055     2.263     2.353
    45   1 H        0.925     0.067     2.118     2.276
    46   1 H        0.923     0.081     1.969     2.194
    47   1 H        0.922     0.006     2.963     2.692
    48   1 H        0.926     0.071     2.069     2.250
    49   1 H        0.924     0.071     2.079     2.255
    50   1 H        0.924     0.067     2.115     2.274
    51   1 H        0.924     0.056     2.250     2.346
    52   1 H        0.924     0.057     2.235     2.338
    53   1 H        0.926     0.046     2.373     2.409
    54   1 H        0.926     0.059     2.208     2.324
    55   1 H        0.924     0.055     2.260     2.351
    56   1 H        0.924     0.057     2.240     2.340
    57   1 H        0.925     0.083     1.948     2.182
    58   1 H        0.925     0.083     1.951     2.184
    59   1 H        0.924     0.050     2.322     2.383
    60   1 H        0.924     0.053     2.278     2.360
    61   1 H        0.926     0.048     2.342     2.393
    62   1 H        0.924     0.078     1.995     2.209
    63   1 H        0.924     0.083     1.944     2.180
    64   1 H        0.925     0.084     1.941     2.179
    65   1 H        0.924     0.037     2.495     2.470
    66   1 H        0.925     0.068     2.103     2.268
    67   1 H        0.925     0.035     2.519     2.482
    68   1 H        0.925     0.051     2.305     2.374
    69   1 H        0.925     0.063     2.162     2.299
    70   1 H        0.925     0.035     2.516     2.480
    71   1 H        0.925     0.055     2.262     2.352
    72   1 H        0.860     0.158     1.349     1.819

Wiberg/Mayer (AO) data.
largest (>0.10) Wiberg bond orders for each atom

     #   Z sym  total        # sym  WBO       # sym  WBO       # sym  WBO
 ---------------------------------------------------------------------------
     1   7 N    3.038 --     2 C    1.958    72 H    0.941
     2   6 C    3.932 --     1 N    1.958     3 C    0.993    47 H    0.904
     3   6 C    3.975 --     2 C    0.993     4 C    0.972    14 C    0.953
                            31 C    0.946
     4   6 C    3.959 --    13 C    1.403     5 C    1.389     3 C    0.972
     5   6 C    3.965 --     4 C    1.389     6 C    1.383    34 H    0.958
     6   6 C    3.911 --     5 C    1.383     9 C    1.261     7 O    1.084
     7   8 O    2.245 --     6 C    1.084     8 C    0.976
     8   6 C    3.934 --    36 H    0.977     7 O    0.976    37 H    0.975
                            35 H    0.974
     9   6 C    3.913 --    12 C    1.396     6 C    1.261    10 O    1.058
    10   8 O    2.161 --     9 C    1.058    11 C    0.960
    11   6 C    3.923 --    40 H    0.978    39 H    0.974    38 H    0.972
                            10 O    0.960
    12   6 C    3.968 --    13 C    1.421     9 C    1.396    41 H    0.965
    13   6 C    3.962 --    12 C    1.421     4 C    1.403    42 H    0.961
    14   6 C    3.973 --    15 C    0.981    44 H    0.973    43 H    0.968
                             3 C    0.953
    15   6 C    3.987 --    16 C    1.060    14 C    0.981    45 H    0.961
                            46 H    0.927
    16   6 C    3.603 --    17 N    1.418    15 C    1.060    48 H    0.956
    17   7 N    3.491 --    16 C    1.418    30 C    0.997    18 C    0.988
    18   6 C    3.955 --    17 N    0.988    50 H    0.968    19 C    0.967
                            49 H    0.963
    19   6 C    3.977 --    20 C    1.008    51 H    0.972    52 H    0.971
                            18 C    0.967
    20   6 C    3.943 --    21 C    1.408    29 C    1.380    19 C    1.008
    21   6 C    3.948 --    22 C    1.417    20 C    1.408    53 H    0.968
    22   6 C    3.958 --    21 C    1.417    23 C    1.383    54 H    0.963
    23   6 C    3.893 --    22 C    1.383    26 C    1.217    24 O    1.112
    24   8 O    2.255 --    23 C    1.112    25 C    0.975
    25   6 C    3.927 --    57 H    0.977    24 O    0.975    56 H    0.972
                            55 H    0.972
    26   6 C    3.897 --    29 C    1.394    23 C    1.217    27 O    1.106
    27   8 O    2.255 --    26 C    1.106    28 C    0.978
    28   6 C    3.931 --    27 O    0.978    58 H    0.977    59 H    0.973
                            60 H    0.973
    29   6 C    3.958 --    26 C    1.394    20 C    1.380    61 H    0.962
    30   6 C    3.955 --    17 N    0.997    64 H    0.977    62 H    0.967
                            63 H    0.958
    31   6 C    3.974 --    33 C    1.009    32 C    1.008    65 H    0.959
                             3 C    0.946
    32   6 C    3.979 --    31 C    1.008    67 H    0.982    68 H    0.982
                            66 H    0.974
    33   6 C    3.981 --    31 C    1.009    70 H    0.983    71 H    0.980
                            69 H    0.975
    34   1 H    0.996 --     5 C    0.958
    35   1 H    0.995 --     8 C    0.974
    36   1 H    0.993 --     8 C    0.977
    37   1 H    0.995 --     8 C    0.975
    38   1 H    0.992 --    11 C    0.972
    39   1 H    0.989 --    11 C    0.974
    40   1 H    0.993 --    11 C    0.978
    41   1 H    0.994 --    12 C    0.965
    42   1 H    0.997 --    13 C    0.961
    43   1 H    0.995 --    14 C    0.968
    44   1 H    0.996 --    14 C    0.973
    45   1 H    0.995 --    15 C    0.961
    46   1 H    0.971 --    15 C    0.927
    47   1 H    0.986 --     2 C    0.904
    48   1 H    0.994 --    16 C    0.956
    49   1 H    0.990 --    18 C    0.963
    50   1 H    0.995 --    18 C    0.968
    51   1 H    0.996 --    19 C    0.972
    52   1 H    0.996 --    19 C    0.971
    53   1 H    0.997 --    21 C    0.968
    54   1 H    0.995 --    22 C    0.963
    55   1 H    0.991 --    25 C    0.972
    56   1 H    0.991 --    25 C    0.972
    57   1 H    0.992 --    25 C    0.977
    58   1 H    0.992 --    28 C    0.977
    59   1 H    0.993 --    28 C    0.973
    60   1 H    0.992 --    28 C    0.973
    61   1 H    0.996 --    29 C    0.962
    62   1 H    0.985 --    30 C    0.967
    63   1 H    0.985 --    30 C    0.958
    64   1 H    0.993 --    30 C    0.977
    65   1 H    0.992 --    31 C    0.959
    66   1 H    0.991 --    32 C    0.974
    67   1 H    0.997 --    32 C    0.982
    68   1 H    0.994 --    32 C    0.982
    69   1 H    0.992 --    33 C    0.975
    70   1 H    0.997 --    33 C    0.983
    71   1 H    0.994 --    33 C    0.980
    72   1 H    0.970 --     1 N    0.941
 ---------------------------------------------------------------------------

molecular dipole:
                 x           y           z       tot (Debye)
 q only:        0.493       0.298      -1.140
   full:        0.566       0.293      -1.420       3.956

           -------------------------------------------------
          | TOTAL ENERGY              -99.402513822135 Eh   |
          | GRADIENT NORM               0.003987531326 Eh/α |
          | HOMO-LUMO GAP               1.659416247465 eV   |
           -------------------------------------------------

 * finished run on 2024/04/06 at 11:16:26.567
