   * xtb version 6.6.1 (8d0f1dd) compiled by 'conda@1efc2f54142f' on 2023-08-01
          program call               : xtb struc.xyz --opt loose --input .xc1 --gfn2

   ID    Z sym.   atoms
    1    6 C      1, 3, 5-7, 10, 11, 14
    2    7 N      2, 4, 9, 13
    3    8 O      8, 12
    4    1 H      15-25
constraining bond 9 11 to    3.9200000 Å, actual value:    1.3842352 Å

          :  Hamiltonian                  GFN2-xTB          :
 * total energy  :   -19.2855474 Eh     change       -0.6650680E-10 Eh
 * total energy  :   -29.0272613 Eh     change       -0.9741714E+01 Eh
 * total energy  :   -35.7575085 Eh     change       -0.6730247E+01 Eh
 * total energy  :   -39.8166311 Eh     change       -0.4059123E+01 Eh
 * total energy  :   -41.4710655 Eh     change       -0.1654434E+01 Eh
 * total energy  :   -41.7258928 Eh     change       -0.2548274E+00 Eh
 * total energy  :   -41.7397755 Eh     change       -0.1388266E-01 Eh
 * total energy  :   -41.7641979 Eh     change       -0.2442246E-01 Eh
 * total energy  :   -41.7779292 Eh     change       -0.1373131E-01 Eh
 * total energy  :   -41.8003677 Eh     change       -0.2243847E-01 Eh
 * total energy  :   -42.0428456 Eh     change       -0.2618661E-03 Eh
 * total energy  :   -42.0431727 Eh     change       -0.3270770E-03 Eh
 * total energy  :   -42.0435192 Eh     change       -0.3464932E-03 Eh
 * total energy  :   -42.0437850 Eh     change       -0.2658029E-03 Eh
 * total energy  :   -42.0439834 Eh     change       -0.1983738E-03 Eh
 * total energy  :   -42.0441236 Eh     change       -0.1402407E-03 Eh
 * total energy  :   -42.0441483 Eh     change       -0.2466347E-04 Eh
 * total energy  :   -42.0442725 Eh     change       -0.1242274E-03 Eh
 * total energy  :   -42.0443179 Eh     change       -0.4537627E-04 Eh
   *** GEOMETRY OPTIMIZATION CONVERGED AFTER 54 ITERATIONS ***

 final structure:
================
25
 xtb: 6.6.1 (8d0f1dd)
C            2.92307494225758        1.16139885681370       -0.11702357815603
N            2.03431163748371        0.03473789396496       -0.12680043188805
C            2.35495466385979       -1.23072691965792       -0.37998173168650
N            1.26629307445746       -1.99759783161947       -0.30116393644106
C            0.17071686507479       -1.22858017622826        0.05582869899042
C            0.65542132556033        0.11540366445110        0.14504109780410
C            0.06406351901433        1.30335643466463        0.40818950598541
O            0.46989753046174        2.57093428713840        0.63060727534701
N           -0.88574587966439        2.10339976187156        0.97319758399678
C           -1.95293303083046        2.68218043094536        0.19982064234014
C           -1.90226185131073       -1.13925762067728       -0.97910909389923
O           -2.02804252718681       -0.11937298842167       -1.55639852516254
N           -1.13310276962674       -1.71031634451276       -0.08029931353237
C           -1.48126887368503       -3.00408360517824        0.49591077835324
H            2.92381922641771        1.63058937821907        0.86813265438565
H            3.92934077329581        0.83260118192838       -0.36312518673141
H            2.59729221341406        1.90835209199132       -0.84271263601295
H            3.34441310814063       -1.58192631229749       -0.59690409134266
H           -2.22320832149470        3.62542812338287        0.66819998211732
H           -1.68985200052916        2.84625682810725       -0.84743426300129
H           -2.79439422999486        1.99543983725077        0.25941171998628
H           -0.98059636529496       -3.10838860949460        1.45688232961786
H           -1.19507516417814       -3.82925787401340       -0.15968862409165
H           -2.55766547492095       -3.04425628072417        0.65061633380430
H            1.25097912338016       -2.99807566630439       -0.43002557288361

          :  Hamiltonian                  GFN2-xTB          :
         :: total energy             -42.044317858609 Eh    ::
         :: gradient norm              0.003656695809 Eh/a0 ::
         :: HOMO-LUMO gap              0.940942293539 eV    ::
         :: SCC energy               -42.556672106653 Eh    ::
         :: -> dispersion             -0.021719505599 Eh    ::
         :: repulsion energy           0.512153820661 Eh    ::

    * Orbital Energies and Occupations

         #    Occupation            Energy/Eh            Energy/eV
      -------------------------------------------------------------
         1        2.0000           -0.8938823             -24.3238
       ...           ...                  ...                  ...
        25        2.0000           -0.6766732             -18.4132
        26        2.0000           -0.6670030             -18.1501
        27        2.0000           -0.6614332             -17.9985
        28        2.0000           -0.6494539             -17.6725
        29        2.0000           -0.6344152             -17.2633
        30        1.9999           -0.6292245             -17.1221
        31        1.9998           -0.6126557             -16.6712
        32        1.9997           -0.6044710             -16.4485
        33        1.9996           -0.5991555             -16.3039
        34        1.9993           -0.5904424             -16.0668
        35        1.9980           -0.5732144             -15.5980
        36        1.9798           -0.5367092             -14.6046
        37        1.4862           -0.4809654             -13.0877 (HOMO)
        38        0.4914           -0.4463864             -12.1468 (LUMO)
        39        0.0404           -0.4026903             -10.9578
        40        0.0056           -0.3711823             -10.1004
        41        0.0003           -0.3248164              -8.8387
        42        0.0001           -0.3062098              -8.3324
        43        0.0000           -0.2105589              -5.7296
        44                         -0.1897890              -5.1644
        45                         -0.1628444              -4.4312
        46                         -0.1139823              -3.1016
        47                         -0.0706859              -1.9235
        48                         -0.0503298              -1.3695
       ...                                ...                  ...
        67                          0.6484314              17.6447
      -------------------------------------------------------------
                  HL-Gap            0.0345790 Eh            0.9409 eV

     #   Z          covCN         q      C6AA      α(0)
     1   6 C        3.691    -0.082    22.257     6.751
     2   7 N        2.827     0.044    20.464     6.719
     3   6 C        2.973     0.058    26.694     8.475
     4   7 N        2.782    -0.059    22.384     7.027
     5   6 C        3.004     0.051    26.849     8.500
     6   6 C        3.029     0.009    27.799     8.648
     7   6 C        2.759     0.176    24.204     8.057
     8   8 O        1.748    -0.230    17.804     5.697
     9   7 N        2.712    -0.014    21.517     6.889
    10   6 C        3.690    -0.055    21.760     6.676
    11   6 C        1.824     0.218    26.054     8.247
    12   8 O        0.856    -0.220    18.400     5.751
    13   7 N        2.729    -0.009    21.423     6.874
    14   6 C        3.701    -0.077    22.139     6.728
    15   1 H        0.924     0.111     1.691     2.034
    16   1 H        0.925     0.097     1.816     2.107
    17   1 H        0.924     0.107     1.719     2.050
    18   1 H        0.926     0.115     1.657     2.013
    19   1 H        0.925     0.098     1.800     2.098
    20   1 H        0.924     0.073     2.054     2.241
    21   1 H        0.925     0.088     1.898     2.155
    22   1 H        0.925     0.095     1.833     2.117
    23   1 H        0.924     0.082     1.960     2.190
    24   1 H        0.925     0.105     1.744     2.065
    25   1 H        0.860     0.220     1.008     1.573

Wiberg/Mayer (AO) data.
largest (>0.10) Wiberg bond orders for each atom

     #   Z sym  total        # sym  WBO       # sym  WBO       # sym  WBO
 ---------------------------------------------------------------------------
     1   6 C    3.931 --     2 N    0.995    16 H    0.974    17 H    0.960
                            15 H    0.958
     2   7 N    3.584 --     3 C    1.351     6 C    1.065     1 C    0.995
     3   6 C    3.822 --     2 N    1.351     4 N    1.321    18 H    0.952
     4   7 N    3.570 --     3 C    1.321     5 C    1.139    25 H    0.923
     5   6 C    3.661 --     6 C    1.197     4 N    1.139    13 N    1.029
     6   6 C    3.913 --     7 C    1.430     5 C    1.197     2 N    1.065
     7   6 C    3.640 --     6 C    1.430     9 N    1.068     8 O    1.006
     8   8 O    2.025 --     7 C    1.006     9 N    0.883
     9   7 N    3.039 --     7 C    1.068    10 C    1.001     8 O    0.883
    10   6 C    3.939 --     9 N    1.001    20 H    0.970    19 H    0.969
                            21 H    0.958
    11   6 C    3.410 --    12 O    1.921    13 N    1.311
    12   8 O    2.172 --    11 C    1.921    13 N    0.156
    13   7 N    3.522 --    11 C    1.311     5 C    1.029    14 C    0.963
                            12 O    0.156
    14   6 C    3.926 --    22 H    0.977    24 H    0.973    23 H    0.972
                            13 N    0.963
    15   1 H    0.982 --     1 C    0.958
    16   1 H    0.990 --     1 C    0.974
    17   1 H    0.983 --     1 C    0.960
    18   1 H    0.985 --     3 C    0.952
    19   1 H    0.988 --    10 C    0.969
    20   1 H    0.988 --    10 C    0.970
    21   1 H    0.992 --    10 C    0.958
    22   1 H    0.991 --    14 C    0.977
    23   1 H    0.992 --    14 C    0.972
    24   1 H    0.988 --    14 C    0.973
    25   1 H    0.951 --     4 N    0.923
 ---------------------------------------------------------------------------

molecular dipole:
                 x           y           z       tot (Debye)
 q only:        1.326      -2.238       0.049
   full:        1.520      -2.524      -0.287       7.524

           -------------------------------------------------
          | TOTAL ENERGY              -42.044317858609 Eh   |
          | GRADIENT NORM               0.003656695809 Eh/α |
          | HOMO-LUMO GAP               0.940942293539 eV   |
           -------------------------------------------------

 * finished run on 2024/06/05 at 19:59:17.082
