   * xtb version 6.6.1 (8d0f1dd) compiled by 'conda@1efc2f54142f' on 2023-08-01
          program call               : xtb xtbopt.xyz --opt crude --input .xc2 --gfn2

   ID    Z sym.   atoms
    1    7 N      1, 17
    2    6 C      2-6, 8, 9, 11-16, 18-23, 25, 26, 28-33
    3    8 O      7, 10, 24, 27
    4    1 H      34-72

          :  Hamiltonian                  GFN2-xTB          :
 * total energy  :   -99.3280592 Eh     change       -0.7361223E-11 Eh
   *** GEOMETRY OPTIMIZATION CONVERGED AFTER 1 ITERATIONS ***

 final structure:
================
72
 xtb: 6.6.1 (8d0f1dd)
N           -2.30287417121452        3.07493832887245        2.41889904451490
C           -2.10394702482364        2.32623980075819        1.43916511379220
C           -3.12356019166995        2.03889594697482        0.37104571765319
C           -3.51485596486439        0.56992748342972        0.41955166564799
C           -4.33514901847111        0.04243785793192       -0.57945551418886
C           -4.75173737835846       -1.27802230636180       -0.55469417311853
O           -5.56340158566572       -1.85473239527101       -1.46413095628934
C           -6.15868674831944       -1.05559195470231       -2.45980524722641
C           -4.31731186808559       -2.12922226122906        0.49817952848484
O           -4.76493706109599       -3.39833949130567        0.43802057944738
C           -4.46023139859990       -4.28639117698776        1.48806269421611
C           -3.49746692359520       -1.60133390908240        1.48350702912279
C           -3.10854884466538       -0.26838220232015        1.44732113486225
C           -2.43567026168085        2.36139568762644       -0.98287549846294
C           -1.39339342725707        1.32796809965138       -1.44456647749613
C           -0.11336179264236        1.42128514590422       -0.69677529478668
N            0.63142381676749        0.39810701153544       -0.29113806478056
C            1.81577489341250        0.54695088970181        0.28599826435207
C            3.48336729388542       -1.26006509570472       -2.39769301167552
C            4.53426867571245       -0.81624400547433       -1.62918809119168
C            4.96881687198081        0.53731410109092       -1.68677397573278
C            6.04991320703669        0.97121337557875       -0.96439872663892
C            6.75561947371444        0.09704715282558       -0.13109295419018
O            7.83274848515756        0.41410465747223        0.59747649628028
C            8.36484554275380        1.71894333312752        0.53087142386226
C            6.32353710396794       -1.26549659028542       -0.02805683227295
O            7.06230993199940       -2.02131974783630        0.81116076417959
C            6.76905942790570       -3.39248834315900        0.93613061562438
C            5.24505719079441       -1.69515717210430       -0.75947945068235
C            0.12398413270158       -0.95441105655410       -0.45513546908741
C           -4.41930364863535        2.89136683334851        0.51666969280207
C           -5.17326583656804        2.55431285327891        1.80057530628093
C           -4.16234999560690        4.39419910724961        0.44844210734272
H           -4.66457929637716        0.68085923400619       -1.38203727773335
H           -6.74089928121051       -0.23938317930611       -2.02138409974642
H           -6.82464694274058       -1.71933722509003       -3.00770340842255
H           -5.41240368440281       -0.64599523742461       -3.14819148932079
H           -4.82997022141449       -3.91369928045562        2.44793879913097
H           -4.96998387605090       -5.21569301735703        1.24091149922545
H           -3.38360526329394       -4.47199264286880        1.55806579205594
H           -3.16649583529939       -2.21874400194529        2.30296449030124
H           -2.50148442448436        0.11241210629531        2.25402279290100
H           -3.20555013029344        2.43356884965347       -1.75070621947181
H           -1.95490129599905        3.33718943085350       -0.90708262377313
H           -1.82674054447125        0.33070235488742       -1.39053536831886
H           -1.18818755972244        1.54048657692747       -2.50233335691752
H           -1.14006540315055        1.82678870488854        1.23596461745072
H            0.32672978920133        2.40088725086510       -0.58972228874025
H            2.37381399548372       -0.30788053008896        0.60511658917324
H            2.23027986611888        1.52742487616269        0.41264536860611
H            2.96594198462475       -0.59123267915518       -3.06104483939556
H            3.17950024468795       -2.29155125946079       -2.39654269534542
H            4.44216892012879        1.22209965654588       -2.33278949800420
H            6.36519119580729        1.99883246918574       -1.04997867973064
H            7.63656729381781        2.46397694249819        0.86456533698588
H            8.69981334762510        1.96113594430150       -0.48241135388757
H            9.21903140533306        1.72175577083800        1.20563359937662
H            7.49188439636278       -3.78242050242057        1.64958302177660
H            5.75814729588986       -3.55528784050281        1.32074169652666
H            6.88414658121408       -3.91328156056327       -0.01865547549284
H            4.91849632208863       -2.72174352367457       -0.70682872295772
H           -0.00346673923330       -1.18121870679800       -1.51289754311443
H           -0.83638869374869       -1.06185956334004        0.05217731286849
H            0.82990500702217       -1.66188044077931       -0.02815606289415
H           -5.06291642157186        2.62311015717845       -0.32885520988957
H           -4.58351913228678        2.84180229330694        2.66498924985950
H           -5.39334638672330        1.49098402312947        1.86065476950102
H           -6.11262640613696        3.10037608037430        1.82513262201975
H           -3.50073016402765        4.70091014609465        1.25256508580601
H           -3.73048999707982        4.68917342350611       -0.50400081706783
H           -5.10536320137015        4.92200055521644        0.56404354565064
H           -1.53741405327354        3.22141390903217        3.06958824296563

          :  Hamiltonian                  GFN2-xTB          :
         :: total energy             -99.328059178275 Eh    ::
         :: gradient norm              0.003219036982 Eh/a0 ::
         :: HOMO-LUMO gap              0.709838395355 eV    ::
         :: SCC energy              -100.730851780644 Eh    ::
         :: -> dispersion             -0.073216046898 Eh    ::
         :: repulsion energy           1.401100800902 Eh    ::

    * Orbital Energies and Occupations

         #    Occupation            Energy/Eh            Energy/eV
      -------------------------------------------------------------
         1        2.0000           -0.8161874             -22.2096
       ...           ...                  ...                  ...
        78        1.9977           -0.5277065             -14.3596
        79        1.9976           -0.5271693             -14.3450
        80        1.9967           -0.5220067             -14.2045
        81        1.9964           -0.5209140             -14.1748
        82        1.9944           -0.5138194             -13.9817
        83        1.9935           -0.5115731             -13.9206
        84        1.9920           -0.5081419             -13.8272
        85        1.9888           -0.5027881             -13.6816
        86        1.9759           -0.4905530             -13.3486
        87        1.9280           -0.4728373             -12.8666
        88        1.9197           -0.4710560             -12.8181
        89        1.8437           -0.4598603             -12.5134
        90        1.5537           -0.4405434             -11.9878 (HOMO)
        91        0.8026           -0.4144573             -11.2780 (LUMO)
        92        0.0139           -0.3422065              -9.3119
        93        0.0090           -0.3352309              -9.1221
        94        0.0028           -0.3167801              -8.6200
        95        0.0023           -0.3137921              -8.5387
        96        0.0020           -0.3117112              -8.4821
        97        0.0005           -0.2878564              -7.8330
        98        0.0000           -0.1913193              -5.2061
        99        0.0000           -0.1807816              -4.9193
       100                         -0.1040116              -2.8303
       101                         -0.0673456              -1.8326
       ...                                ...                  ...
       171                          0.5868331              15.9685
      -------------------------------------------------------------
                  HL-Gap            0.0260861 Eh            0.7098 eV

     #   Z          covCN         q      C6AA      α(0)
     1   7 N        1.774    -0.264    27.677     7.790
     2   6 C        2.826     0.102    25.741     8.314
     3   6 C        3.907     0.007    20.404     6.420
     4   6 C        2.974     0.005    27.898     8.664
     5   6 C        2.921    -0.078    29.951     8.975
     6   6 C        2.862     0.130    25.141     8.219
     7   8 O        1.706    -0.228    17.777     5.693
     8   6 C        3.645     0.027    20.459     6.501
     9   6 C        2.863     0.130    25.160     8.222
    10   8 O        1.706    -0.226    17.747     5.688
    11   6 C        3.645     0.026    20.468     6.502
    12   6 C        2.913    -0.073    29.833     8.957
    13   6 C        2.921    -0.052    29.289     8.875
    14   6 C        3.812    -0.065    21.736     6.636
    15   6 C        3.801    -0.066    21.768     6.643
    16   6 C        2.870    -0.041    29.018     8.830
    17   7 N        2.729     0.101    19.498     6.558
    18   6 C        2.822    -0.106    30.655     9.072
    19   6 C        2.852    -0.097    30.435     9.042
    20   6 C        2.959     0.022    27.519     8.604
    21   6 C        2.921    -0.040    28.983     8.828
    22   6 C        2.906    -0.063    29.577     8.918
    23   6 C        2.864     0.140    24.949     8.187
    24   8 O        1.706    -0.205    17.407     5.633
    25   6 C        3.644     0.022    20.542     6.514
    26   6 C        2.856     0.135    25.047     8.203
    27   8 O        1.706    -0.230    17.816     5.699
    28   6 C        3.645     0.027    20.459     6.501
    29   6 C        2.917    -0.080    29.988     8.980
    30   6 C        3.719    -0.077    22.095     6.714
    31   6 C        3.853    -0.008    20.679     6.468
    32   6 C        3.756    -0.118    22.816     6.811
    33   6 C        3.755    -0.119    22.831     6.813
    34   1 H        0.926     0.054     2.268     2.355
    35   1 H        0.924     0.055     2.262     2.352
    36   1 H        0.925     0.082     1.960     2.189
    37   1 H        0.924     0.049     2.327     2.385
    38   1 H        0.924     0.056     2.246     2.344
    39   1 H        0.925     0.082     1.959     2.189
    40   1 H        0.924     0.050     2.324     2.384
    41   1 H        0.926     0.053     2.281     2.362
    42   1 H        0.926     0.041     2.439     2.442
    43   1 H        0.925     0.056     2.244     2.343
    44   1 H        0.924     0.053     2.279     2.361
    45   1 H        0.925     0.057     2.236     2.338
    46   1 H        0.923     0.066     2.129     2.282
    47   1 H        0.923     0.016     2.803     2.618
    48   1 H        0.926     0.058     2.225     2.332
    49   1 H        0.927     0.060     2.202     2.320
    50   1 H        0.926     0.060     2.201     2.320
    51   1 H        0.926     0.047     2.353     2.399
    52   1 H        0.926     0.050     2.321     2.383
    53   1 H        0.926     0.054     2.272     2.357
    54   1 H        0.926     0.058     2.220     2.330
    55   1 H        0.924     0.058     2.221     2.331
    56   1 H        0.924     0.062     2.176     2.307
    57   1 H        0.925     0.086     1.915     2.164
    58   1 H        0.925     0.082     1.962     2.190
    59   1 H        0.924     0.049     2.333     2.389
    60   1 H        0.924     0.055     2.257     2.349
    61   1 H        0.926     0.055     2.257     2.349
    62   1 H        0.925     0.084     1.943     2.180
    63   1 H        0.924     0.083     1.950     2.184
    64   1 H        0.925     0.085     1.929     2.172
    65   1 H        0.924     0.038     2.475     2.460
    66   1 H        0.925     0.070     2.090     2.261
    67   1 H        0.925     0.035     2.519     2.482
    68   1 H        0.925     0.051     2.304     2.374
    69   1 H        0.925     0.063     2.169     2.303
    70   1 H        0.925     0.037     2.495     2.470
    71   1 H        0.925     0.054     2.265     2.354
    72   1 H        0.860     0.159     1.341     1.814

Wiberg/Mayer (AO) data.
largest (>0.10) Wiberg bond orders for each atom

     #   Z sym  total        # sym  WBO       # sym  WBO       # sym  WBO
 ---------------------------------------------------------------------------
     1   7 N    3.022 --     2 C    1.957    72 H    0.940
     2   6 C    3.931 --     1 N    1.957     3 C    0.993    47 H    0.908
     3   6 C    3.970 --     2 C    0.993     4 C    0.971    14 C    0.954
                            31 C    0.943
     4   6 C    3.943 --    13 C    1.409     5 C    1.370     3 C    0.971
     5   6 C    3.959 --     6 C    1.399     4 C    1.370    34 H    0.957
     6   6 C    3.899 --     5 C    1.399     9 C    1.218     7 O    1.102
     7   8 O    2.251 --     6 C    1.102     8 C    0.977
     8   6 C    3.930 --     7 O    0.977    36 H    0.976    35 H    0.973
                            37 H    0.973
     9   6 C    3.894 --    12 C    1.388     6 C    1.218    10 O    1.104
    10   8 O    2.250 --     9 C    1.104    11 C    0.977
    11   6 C    3.930 --    10 O    0.977    39 H    0.977    40 H    0.973
                            38 H    0.973
    12   6 C    3.959 --    13 C    1.407     9 C    1.388    41 H    0.964
    13   6 C    3.948 --     4 C    1.409    12 C    1.407    42 H    0.962
    14   6 C    3.976 --    15 C    0.988    44 H    0.972    43 H    0.969
                             3 C    0.954
    15   6 C    3.986 --    16 C    1.050    14 C    0.988    45 H    0.962
                            46 H    0.937
    16   6 C    3.669 --    17 N    1.347    15 C    1.050    48 H    0.960
                            18 C    0.213
    17   7 N    3.745 --    18 C    1.368    16 C    1.347    30 C    0.984
    18   6 C    3.595 --    17 N    1.368    49 H    0.975    50 H    0.974
                            16 C    0.213
    19   6 C    3.536 --    20 C    1.495    51 H    0.979    52 H    0.979
    20   6 C    3.979 --    19 C    1.495    21 C    1.208    29 C    1.202
    21   6 C    3.808 --    22 C    1.521    20 C    1.208    53 H    0.967
    22   6 C    3.969 --    21 C    1.521    23 C    1.317    54 H    0.962
    23   6 C    3.767 --    22 C    1.317    26 C    1.174    24 O    1.140
    24   8 O    2.255 --    23 C    1.140    25 C    0.972
    25   6 C    3.924 --    57 H    0.976    24 O    0.972    55 H    0.972
                            56 H    0.971
    26   6 C    3.914 --    29 C    1.480    23 C    1.174    27 O    1.099
    27   8 O    2.255 --    26 C    1.099    28 C    0.978
    28   6 C    3.931 --    27 O    0.978    58 H    0.977    59 H    0.973
                            60 H    0.973
    29   6 C    3.853 --    26 C    1.480    20 C    1.202    61 H    0.962
    30   6 C    3.955 --    17 N    0.984    64 H    0.977    62 H    0.970
                            63 H    0.966
    31   6 C    3.969 --    33 C    1.009    32 C    1.008    65 H    0.958
                             3 C    0.943
    32   6 C    3.975 --    31 C    1.008    67 H    0.981    68 H    0.981
                            66 H    0.972
    33   6 C    3.979 --    31 C    1.009    70 H    0.982    71 H    0.979
                            69 H    0.974
    34   1 H    0.996 --     5 C    0.957
    35   1 H    0.993 --     8 C    0.973
    36   1 H    0.992 --     8 C    0.976
    37   1 H    0.993 --     8 C    0.973
    38   1 H    0.992 --    11 C    0.973
    39   1 H    0.993 --    11 C    0.977
    40   1 H    0.992 --    11 C    0.973
    41   1 H    0.995 --    12 C    0.964
    42   1 H    0.997 --    13 C    0.962
    43   1 H    0.995 --    14 C    0.969
    44   1 H    0.996 --    14 C    0.972
    45   1 H    0.995 --    15 C    0.962
    46   1 H    0.974 --    15 C    0.937
    47   1 H    0.978 --     2 C    0.908
    48   1 H    0.996 --    16 C    0.960
    49   1 H    0.996 --    18 C    0.975
    50   1 H    0.996 --    18 C    0.974
    51   1 H    0.997 --    19 C    0.979
    52   1 H    0.997 --    19 C    0.979
    53   1 H    0.996 --    21 C    0.967
    54   1 H    0.995 --    22 C    0.962
    55   1 H    0.990 --    25 C    0.972
    56   1 H    0.989 --    25 C    0.971
    57   1 H    0.992 --    25 C    0.976
    58   1 H    0.993 --    28 C    0.977
    59   1 H    0.994 --    28 C    0.973
    60   1 H    0.993 --    28 C    0.973
    61   1 H    0.995 --    29 C    0.962
    62   1 H    0.992 --    30 C    0.970
    63   1 H    0.993 --    30 C    0.966
    64   1 H    0.993 --    30 C    0.977
    65   1 H    0.990 --    31 C    0.958
    66   1 H    0.989 --    32 C    0.972
    67   1 H    0.996 --    32 C    0.981
    68   1 H    0.993 --    32 C    0.981
    69   1 H    0.991 --    33 C    0.974
    70   1 H    0.996 --    33 C    0.982
    71   1 H    0.993 --    33 C    0.979
    72   1 H    0.967 --     1 N    0.940
 ---------------------------------------------------------------------------

molecular dipole:
                 x           y           z       tot (Debye)
 q only:        1.008      -0.018      -0.427
   full:        1.418      -0.099      -0.571       3.893

           -------------------------------------------------
          | TOTAL ENERGY              -99.328059178275 Eh   |
          | GRADIENT NORM               0.003219036982 Eh/α |
          | HOMO-LUMO GAP               0.709838395355 eV   |
           -------------------------------------------------

 * finished run on 2024/04/06 at 11:13:45.015
