   * xtb version 6.6.1 (8d0f1dd) compiled by 'conda@1efc2f54142f' on 2023-08-01
          program call               : xtb struc.xyz --opt loose --input .xc1 --gfn2

   ID    Z sym.   atoms
    1    6 C      1, 3, 5-7, 10, 11, 14
    2    7 N      2, 4, 9, 13
    3    8 O      8, 12
    4    1 H      15-25
constraining bond 15 16 to    3.2800000 Å, actual value:    1.7725958 Å

          :  Hamiltonian                  GFN2-xTB          :
 * total energy  :   -34.1334459 Eh     change       -0.6650680E-10 Eh
 * total energy  :   -38.9383513 Eh     change       -0.4804905E+01 Eh
 * total energy  :   -41.3863515 Eh     change       -0.2448000E+01 Eh
 * total energy  :   -42.0301472 Eh     change       -0.6437958E+00 Eh
 * total energy  :   -42.0623475 Eh     change       -0.3220030E-01 Eh
 * total energy  :   -42.0625892 Eh     change       -0.2416938E-03 Eh
 * total energy  :   -42.0637062 Eh     change       -0.1116988E-02 Eh
 * total energy  :   -42.0642432 Eh     change       -0.5369582E-03 Eh
 * total energy  :   -42.0648038 Eh     change       -0.5605802E-03 Eh
 * total energy  :   -42.0654506 Eh     change       -0.6468636E-03 Eh
 * total energy  :   -42.1097918 Eh     change       -0.1922684E-03 Eh
 * total energy  :   -42.1098887 Eh     change       -0.9687307E-04 Eh
 * total energy  :   -42.1100592 Eh     change       -0.1704945E-03 Eh
 * total energy  :   -42.1102363 Eh     change       -0.1771025E-03 Eh
 * total energy  :   -42.1103253 Eh     change       -0.8906283E-04 Eh
 * total energy  :   -42.1104322 Eh     change       -0.1069231E-03 Eh
 * total energy  :   -42.1103940 Eh     change        0.3819934E-04 Eh
 * total energy  :   -42.1105252 Eh     change       -0.1311170E-03 Eh
 * total energy  :   -42.1105620 Eh     change       -0.3687446E-04 Eh
   *** GEOMETRY OPTIMIZATION CONVERGED AFTER 50 ITERATIONS ***

 final structure:
================
25
 xtb: 6.6.1 (8d0f1dd)
C            3.20513262406840        1.02427497178694       -0.32228036804968
N            2.31861141272920        0.02878440505662       -0.25967404305449
C            2.56557858890882       -1.29905580398515       -0.27875932752118
N            1.39781740442850       -1.98877094460085       -0.17407390854535
C            0.38011485629659       -1.08902646592656       -0.09024469847022
C            0.94017824580361        0.17572885099258       -0.14191155588885
C            0.13514371238383        1.37503733372049       -0.08421528953043
O            0.55004921873929        2.50833627952745       -0.11414406266861
N           -1.22302390576886        1.06440757621139        0.00885470306275
C           -2.16305957761260        2.17577812988065        0.04926757721665
C           -1.80545287536235       -0.18783282689049        0.07324743300505
O           -2.99054163821777       -0.34058085446723        0.16909770815653
N           -0.94008432158581       -1.30419209963252        0.01882215044358
C           -1.50974639314465       -2.63536621160368        0.08196404452623
H            2.57134111968108        1.77848338918125        2.06999423907085
H            4.22811732252764        0.78237338068824       -0.57782696868604
H            2.84112014793244        2.03532099957918       -0.35010803317470
H            3.53510958033204       -1.74704597689680       -0.35176212338190
H           -1.59399436255630        3.10222731120153        0.03905348272357
H           -2.82621722248082        2.12993327442070       -0.81507227226963
H           -2.77247927228871        2.11263836674861        0.95066804427190
H           -1.12400720160060       -3.17519424345125        0.94702884268135
H           -1.29388781663585       -3.18769391738830       -0.83324857259785
H           -2.58882794410235       -2.52476842963939        0.18361101686951
H            1.32343981162923       -2.99555795291548       -0.16711640028508

          :  Hamiltonian                  GFN2-xTB          :
         :: total energy             -42.110562036491 Eh    ::
         :: gradient norm              0.002523684749 Eh/a0 ::
         :: HOMO-LUMO gap              0.710375600898 eV    ::
         :: SCC energy               -42.632378394547 Eh    ::
         :: -> dispersion             -0.023377057070 Eh    ::
         :: repulsion energy           0.521646291869 Eh    ::

    * Orbital Energies and Occupations

         #    Occupation            Energy/Eh            Energy/eV
      -------------------------------------------------------------
         1        2.0000           -0.9152030             -24.9039
       ...           ...                  ...                  ...
        25        1.9999           -0.6714118             -18.2700
        26        1.9999           -0.6709676             -18.2580
        27        1.9999           -0.6619293             -18.0120
        28        1.9995           -0.6392262             -17.3942
        29        1.9993           -0.6355450             -17.2941
        30        1.9991           -0.6297057             -17.1352
        31        1.9985           -0.6228595             -16.9489
        32        1.9949           -0.6031635             -16.4129
        33        1.9840           -0.5848997             -15.9159
        34        1.9544           -0.5680647             -15.4578
        35        1.9476           -0.5657803             -15.3957
        36        1.9423           -0.5642318             -15.3535
        37        1.4729           -0.5248158             -14.2810 (HOMO)
        38        0.6990           -0.4987099             -13.5706 (LUMO)
        39        0.0053           -0.4146390             -11.2829
        40        0.0031           -0.4058861             -11.0447
        41        0.0004           -0.3722343             -10.1290
        42        0.0000           -0.2903366              -7.9005
        43                         -0.2104148              -5.7257
        44                         -0.1898300              -5.1655
        45                         -0.1473258              -4.0089
        46                         -0.1191275              -3.2416
        47                         -0.0858010              -2.3348
        48                         -0.0528723              -1.4387
       ...                                ...                  ...
        67                          0.5517647              15.0143
      -------------------------------------------------------------
                  HL-Gap            0.0261058 Eh            0.7104 eV

     #   Z          covCN         q      C6AA      α(0)
     1   6 C        2.788    -0.063    29.554     8.905
     2   7 N        2.811     0.128    19.059     6.484
     3   6 C        3.041     0.030    27.295     8.569
     4   7 N        2.781    -0.057    22.345     7.021
     5   6 C        3.024     0.120    25.340     8.257
     6   6 C        3.112    -0.037    28.753     8.784
     7   6 C        2.764     0.275    22.353     7.743
     8   8 O        0.858    -0.353    20.757     6.108
     9   7 N        2.746    -0.079    22.785     7.089
    10   6 C        3.710    -0.063    21.852     6.681
    11   6 C        2.728     0.318    21.594     7.608
    12   8 O        0.860    -0.347    20.649     6.093
    13   7 N        2.738    -0.052    22.240     7.004
    14   6 C        3.696    -0.074    22.087     6.723
    15   1 H        0.000     0.011     7.157     4.892
    16   1 H        0.925     0.112     1.677     2.025
    17   1 H        0.926     0.146     1.422     1.865
    18   1 H        0.926     0.125     1.577     1.964
    19   1 H        0.925     0.117     1.635     2.000
    20   1 H        0.924     0.104     1.749     2.068
    21   1 H        0.925     0.106     1.733     2.059
    22   1 H        0.925     0.087     1.913     2.163
    23   1 H        0.924     0.087     1.910     2.161
    24   1 H        0.925     0.130     1.535     1.937
    25   1 H        0.860     0.230     0.965     1.539

Wiberg/Mayer (AO) data.
largest (>0.10) Wiberg bond orders for each atom

     #   Z sym  total        # sym  WBO       # sym  WBO       # sym  WBO
 ---------------------------------------------------------------------------
     1   6 C    3.465 --     2 N    1.302    16 H    0.965    17 H    0.951
                            15 H    0.119
     2   7 N    3.758 --     1 C    1.302     3 C    1.261     6 C    1.094
     3   6 C    3.675 --     2 N    1.261     4 N    1.247    18 H    0.954
     4   7 N    3.537 --     3 C    1.247     5 C    1.192    25 H    0.919
     5   6 C    3.941 --     6 C    1.351    13 N    1.220     4 N    1.192
     6   6 C    3.850 --     5 C    1.351     2 N    1.094     7 C    1.082
     7   6 C    3.959 --     8 O    1.688     9 N    1.094     6 C    1.082
     8   8 O    2.021 --     7 C    1.688     9 N    0.139
     9   7 N    3.531 --    11 C    1.125     7 C    1.094    10 C    0.972
                             8 O    0.139    12 O    0.133
    10   6 C    3.895 --     9 N    0.972    19 H    0.965    21 H    0.957
                            20 H    0.956
    11   6 C    3.958 --    12 O    1.708     9 N    1.125    13 N    1.034
    12   8 O    2.047 --    11 C    1.708     9 N    0.133    13 N    0.117
    13   7 N    3.533 --     5 C    1.220    11 C    1.034    14 C    0.975
                            12 O    0.117
    14   6 C    3.918 --    13 N    0.975    22 H    0.968    23 H    0.967
                            24 H    0.962
    15   1 H    0.155 --     1 C    0.119
    16   1 H    0.985 --     1 C    0.965
    17   1 H    0.977 --     1 C    0.951
    18   1 H    0.983 --     3 C    0.954
    19   1 H    0.983 --    10 C    0.965
    20   1 H    0.976 --    10 C    0.956
    21   1 H    0.976 --    10 C    0.957
    22   1 H    0.986 --    14 C    0.968
    23   1 H    0.986 --    14 C    0.967
    24   1 H    0.982 --    14 C    0.962
    25   1 H    0.946 --     4 N    0.919
 ---------------------------------------------------------------------------

molecular dipole:
                 x           y           z       tot (Debye)
 q only:        2.159      -2.088      -0.316
   full:        2.434      -2.557      -0.349       9.017

           -------------------------------------------------
          | TOTAL ENERGY              -42.110562036491 Eh   |
          | GRADIENT NORM               0.002523684749 Eh/α |
          | HOMO-LUMO GAP               0.710375600898 eV   |
           -------------------------------------------------

 * finished run on 2024/06/05 at 19:59:21.069
