   * xtb version 6.6.1 (8d0f1dd) compiled by 'conda@1efc2f54142f' on 2023-08-01
          program call               : xtb xtbopt.xyz --opt crude --input .xc2 --gfn2

   ID    Z sym.   atoms
    1    6 C      1, 3, 5-7, 10, 11, 14
    2    7 N      2, 4, 9, 13
    3    8 O      8, 12
    4    1 H      15-25

          :  Hamiltonian                  GFN2-xTB          :
 * total energy  :   -42.1105708 Eh     change        0.7815970E-13 Eh
 * total energy  :   -42.1175352 Eh     change       -0.6964336E-02 Eh
 * total energy  :   -42.1454815 Eh     change       -0.2794637E-01 Eh
 * total energy  :   -42.2186162 Eh     change       -0.7313461E-01 Eh
 * total energy  :   -42.0920880 Eh     change        0.1265281E+00 Eh
 * total energy  :   -42.2410672 Eh     change       -0.1489791E+00 Eh
 * total energy  :   -42.2400192 Eh     change        0.1047994E-02 Eh
 * total energy  :   -42.2445832 Eh     change       -0.4564055E-02 Eh
 * total energy  :   -42.2415464 Eh     change        0.3036895E-02 Eh
 * total energy  :   -42.2464384 Eh     change       -0.4892014E-02 Eh
 * total energy  :   -42.2464174 Eh     change        0.2095646E-04 Eh
 * total energy  :   -42.2465990 Eh     change       -0.1816072E-03 Eh
 * total energy  :   -42.2472449 Eh     change       -0.6458361E-03 Eh
 * total energy  :   -42.2475004 Eh     change       -0.2555874E-03 Eh
   *** GEOMETRY OPTIMIZATION CONVERGED AFTER 14 ITERATIONS ***

 final structure:
================
25
 xtb: 6.6.1 (8d0f1dd)
C            3.20488971965036        1.13448781490520        0.05844716102499
N            2.27484423426074        0.05356365968137       -0.07436752830075
C            2.54486176008842       -1.24147575507613       -0.13957754274539
N            1.39294753662584       -1.95208673462555       -0.13969122325682
C            0.35465940136802       -1.06961215594912       -0.06589403884752
C            0.90887134540178        0.19863447482392       -0.02979452282954
C            0.08236064466320        1.39430953949087       -0.01553963751569
O            0.49109213139907        2.52909867872550       -0.04202663696342
N           -1.27036618204766        1.06425310777598        0.02004046173811
C           -2.22647582771037        2.16504638017513        0.04655221613376
C           -1.84418497498857       -0.19429391873726        0.04933431716548
O           -3.02799017793148       -0.36264467107176        0.11815651619156
N           -0.96546759665616       -1.30220245535995       -0.01471262792720
C           -1.51909306183850       -2.64136636466415        0.03480037277797
H            3.31476004884615        1.40516876782408        1.11112506322417
H            4.17967402093463        0.85684811492506       -0.33850679889087
H            2.82546118482930        2.01796771100456       -0.46184984032015
H            3.52537073832478       -1.67202853936315       -0.19670257341690
H           -1.66852874455049        3.09794785307346        0.03826528672062
H           -2.87956805358156        2.10738233716612       -0.82349064578135
H           -2.84059495662196        2.09750514303497        0.94376016288704
H           -1.13793944190265       -3.17762627892897        0.90438178572633
H           -1.28689465541224       -3.18938858593628       -0.87840308609515
H           -2.60051447981367       -2.54252646662324        0.12390295329738
H            1.32825690076871       -2.95872311467537       -0.19703797609477

          :  Hamiltonian                  GFN2-xTB          :
         :: total energy             -42.247500440900 Eh    ::
         :: gradient norm              0.006509698814 Eh/a0 ::
         :: HOMO-LUMO gap              3.311189278846 eV    ::
         :: SCC energy               -42.776149623778 Eh    ::
         :: -> dispersion             -0.022671893298 Eh    ::
         :: repulsion energy           0.528533028563 Eh    ::

    * Orbital Energies and Occupations

         #    Occupation            Energy/Eh            Energy/eV
      -------------------------------------------------------------
         1        2.0000           -0.9179275             -24.9781
       ...           ...                  ...                  ...
        25        2.0000           -0.6686657             -18.1953
        26        2.0000           -0.6651032             -18.0984
        27        1.9999           -0.6562376             -17.8571
        28        1.9999           -0.6397492             -17.4085
        29        1.9997           -0.6309164             -17.1681
        30        1.9996           -0.6251928             -17.0124
        31        1.9995           -0.6215927             -16.9144
        32        1.9994           -0.6181277             -16.8201
        33        1.9978           -0.5969465             -16.2437
        34        1.9928           -0.5782254             -15.7343
        35        1.9811           -0.5629134             -15.3177
        36        1.9763           -0.5592251             -15.2173
        37        1.9743           -0.5579619             -15.1829 (HOMO)
        38        0.0683           -0.4362779             -11.8717 (LUMO)
        39        0.0101           -0.4055768             -11.0363
        40        0.0013           -0.3728938             -10.1470
        41        0.0000           -0.2889686              -7.8632
        42                         -0.2061589              -5.6099
        43                         -0.1982982              -5.3960
        44                         -0.1450025              -3.9457
        45                         -0.1305602              -3.5527
        46                         -0.0845648              -2.3011
        47                         -0.0484943              -1.3196
        48                         -0.0343816              -0.9356
       ...                                ...                  ...
        67                          0.5593662              15.2211
      -------------------------------------------------------------
                  HL-Gap            0.1216840 Eh            3.3112 eV

     #   Z          covCN         q      C6AA      α(0)
     1   6 C        3.692    -0.092    22.446     6.779
     2   7 N        2.834     0.091    19.665     6.586
     3   6 C        3.060     0.052    26.775     8.486
     4   7 N        2.798    -0.059    22.382     7.026
     5   6 C        3.042     0.116    25.403     8.267
     6   6 C        3.129    -0.026    28.445     8.732
     7   6 C        2.764     0.274    22.376     7.747
     8   8 O        0.858    -0.361    20.919     6.132
     9   7 N        2.746    -0.085    22.889     7.106
    10   6 C        3.710    -0.062    21.839     6.679
    11   6 C        2.728     0.318    21.595     7.608
    12   8 O        0.859    -0.354    20.773     6.111
    13   7 N        2.738    -0.059    22.374     7.025
    14   6 C        3.696    -0.072    22.061     6.719
    15   1 H        0.924     0.116     1.646     2.006
    16   1 H        0.925     0.104     1.752     2.070
    17   1 H        0.924     0.135     1.500     1.916
    18   1 H        0.926     0.127     1.558     1.952
    19   1 H        0.925     0.113     1.668     2.020
    20   1 H        0.925     0.099     1.797     2.096
    21   1 H        0.925     0.100     1.785     2.089
    22   1 H        0.924     0.082     1.963     2.191
    23   1 H        0.925     0.083     1.945     2.181
    24   1 H        0.925     0.129     1.545     1.944
    25   1 H        0.860     0.232     0.959     1.534

Wiberg/Mayer (AO) data.
largest (>0.10) Wiberg bond orders for each atom

     #   Z sym  total        # sym  WBO       # sym  WBO       # sym  WBO
 ---------------------------------------------------------------------------
     1   6 C    3.917 --     2 N    0.990    16 H    0.972    17 H    0.956
                            15 H    0.949
     2   7 N    3.698 --     3 C    1.404     6 C    1.162     1 C    0.990
     3   6 C    3.870 --     2 N    1.404     4 N    1.271    18 H    0.952
     4   7 N    3.592 --     3 C    1.271     5 C    1.189    25 H    0.918
     5   6 C    3.952 --     6 C    1.355    13 N    1.221     4 N    1.189
     6   6 C    3.912 --     5 C    1.355     2 N    1.162     7 C    1.059
     7   6 C    3.952 --     8 O    1.696     9 N    1.107     6 C    1.059
     8   8 O    2.040 --     7 C    1.696     9 N    0.151
     9   7 N    3.556 --    11 C    1.123     7 C    1.107    10 C    0.968
                             8 O    0.151    12 O    0.136
    10   6 C    3.910 --    19 H    0.968     9 N    0.968    20 H    0.964
                            21 H    0.963
    11   6 C    3.957 --    12 O    1.714     9 N    1.123    13 N    1.029
    12   8 O    2.064 --    11 C    1.714     9 N    0.136    13 N    0.122
    13   7 N    3.552 --     5 C    1.221    11 C    1.029    14 C    0.974
                            12 O    0.122
    14   6 C    3.923 --    13 N    0.974    22 H    0.971    23 H    0.970
                            24 H    0.963
    15   1 H    0.984 --     1 C    0.949
    16   1 H    0.988 --     1 C    0.972
    17   1 H    0.981 --     1 C    0.956
    18   1 H    0.983 --     3 C    0.952
    19   1 H    0.985 --    10 C    0.968
    20   1 H    0.984 --    10 C    0.964
    21   1 H    0.984 --    10 C    0.963
    22   1 H    0.990 --    14 C    0.971
    23   1 H    0.990 --    14 C    0.970
    24   1 H    0.983 --    14 C    0.963
    25   1 H    0.946 --     4 N    0.918
 ---------------------------------------------------------------------------

molecular dipole:
                 x           y           z       tot (Debye)
 q only:        2.613      -2.001      -0.084
   full:        2.899      -2.516      -0.106       9.760

           -------------------------------------------------
          | TOTAL ENERGY              -42.247500440900 Eh   |
          | GRADIENT NORM               0.006509698814 Eh/α |
          | HOMO-LUMO GAP               3.311189278846 eV   |
           -------------------------------------------------

 * finished run on 2024/06/05 at 19:59:21.609
