   * xtb version 6.6.1 (8d0f1dd) compiled by 'conda@1efc2f54142f' on 2023-08-01
          program call               : xtb struc.xyz --opt loose --input .xc1 --gfn2

   ID    Z sym.   atoms
    1    6 C      1, 3, 5-7, 10, 11, 14
    2    7 N      2, 4, 9, 13
    3    8 O      8, 12
    4    1 H      15-25
constraining bond 5 6 to    4.0000000 Å, actual value:    1.3842879 Å

          :  Hamiltonian                  GFN2-xTB          :
 * total energy  :   -30.0287628 Eh     change       -0.6633627E-10 Eh
 * total energy  :   -34.3250552 Eh     change       -0.4296292E+01 Eh
 * total energy  :   -37.9308484 Eh     change       -0.3605793E+01 Eh
 * total energy  :   -40.3169532 Eh     change       -0.2386105E+01 Eh
 * total energy  :   -41.4295379 Eh     change       -0.1112585E+01 Eh
 * total energy  :   -41.6384777 Eh     change       -0.2089397E+00 Eh
 * total energy  :   -41.6660086 Eh     change       -0.2753091E-01 Eh
 * total energy  :   -41.6806454 Eh     change       -0.1463678E-01 Eh
 * total energy  :   -41.7383098 Eh     change       -0.5766439E-01 Eh
 * total energy  :   -41.7534185 Eh     change       -0.1510878E-01 Eh
 * total energy  :   -41.9806837 Eh     change       -0.1630828E-03 Eh
 * total energy  :   -41.9808667 Eh     change       -0.1829396E-03 Eh
 * total energy  :   -41.9810037 Eh     change       -0.1370444E-03 Eh
 * total energy  :   -41.9811575 Eh     change       -0.1537690E-03 Eh
 * total energy  :   -41.9812996 Eh     change       -0.1421267E-03 Eh
 * total energy  :   -41.9814344 Eh     change       -0.1347513E-03 Eh
 * total energy  :   -41.9815543 Eh     change       -0.1199771E-03 Eh
 * total energy  :   -41.9816371 Eh     change       -0.8277926E-04 Eh
 * total energy  :   -41.9816846 Eh     change       -0.4753506E-04 Eh
   *** GEOMETRY OPTIMIZATION CONVERGED AFTER 46 ITERATIONS ***

 final structure:
================
25
 xtb: 6.6.1 (8d0f1dd)
C            3.58181964307739        1.15288963324914        0.34960555940503
N            2.26294557890072        0.55144370698431        0.23382389523993
C            2.15163778692077       -0.60551160076843       -0.36836093330277
N            1.15942711984646       -1.47078382684329       -0.83503806071532
C           -0.09720379255593       -1.99588745495646       -0.77053950383146
C            1.32289970814336        1.29017872263435        0.98927037591632
C            0.04107467018989        1.36310882437457        0.42398604808045
O            0.69899637337308        2.46324146831118        0.23987424033533
N           -1.08716450436026        0.86368520458975        0.08439170934893
C           -2.13228236147698        1.66329990486864       -0.54489597715485
C           -1.54832309856176       -0.42550699894266        0.63695360982353
O           -2.42187184291494       -0.39409697940781        1.44624726117527
N           -1.10464119943692       -1.57992330302058        0.02237327188067
C           -2.07071178701455       -2.67225091247805        0.24737529025547
H            3.93625213171593        1.06742171859099        1.37682946526197
H            4.29733479080178        0.69695275886589       -0.32965825006422
H            3.48405700491186        2.21423282532395        0.11734484268947
H            3.12377210191339       -1.01067340389891       -0.63563110198472
H           -1.74742841449982        2.65938222753183       -0.74930930777782
H           -2.43747786926897        1.18442757099591       -1.47587735492570
H           -2.98882572820554        1.72901611968776        0.12700576619099
H           -2.09839825940174       -2.92297370862157        1.30653986694552
H           -1.74711432993042       -3.53509444103473       -0.32763993979474
H           -3.06841273322582       -2.36603375096995       -0.06499406850222
H            1.65007052515961       -2.10230576346679       -1.46850508659626

          :  Hamiltonian                  GFN2-xTB          :
         :: total energy             -41.981684642286 Eh    ::
         :: gradient norm              0.002591380102 Eh/a0 ::
         :: HOMO-LUMO gap              1.546256889696 eV    ::
         :: SCC energy               -42.472230007405 Eh    ::
         :: -> dispersion             -0.022034047968 Eh    ::
         :: repulsion energy           0.490127411283 Eh    ::

    * Orbital Energies and Occupations

         #    Occupation            Energy/Eh            Energy/eV
      -------------------------------------------------------------
         1        2.0000           -0.9182404             -24.9866
       ...           ...                  ...                  ...
        25        2.0000           -0.6687515             -18.1977
        26        2.0000           -0.6542387             -17.8027
        27        2.0000           -0.6497922             -17.6817
        28        2.0000           -0.6441185             -17.5274
        29        2.0000           -0.6407262             -17.4350
        30        2.0000           -0.6226101             -16.9421
        31        2.0000           -0.6162163             -16.7681
        32        2.0000           -0.6132298             -16.6868
        33        2.0000           -0.6096075             -16.5883
        34        2.0000           -0.6039455             -16.4342
        35        2.0000           -0.5858393             -15.9415
        36        1.9938           -0.5402830             -14.7018
        37        1.9490           -0.5234527             -14.2439 (HOMO)
        38        0.0567           -0.4666288             -12.6976 (LUMO)
        39        0.0005           -0.4283713             -11.6566
        40        0.0000           -0.4068912             -11.0721
        41        0.0000           -0.3627085              -9.8698
        42                         -0.2864705              -7.7953
        43                         -0.2224008              -6.0518
        44                         -0.2191659              -5.9638
        45                         -0.1417639              -3.8576
        46                         -0.1309960              -3.5646
        47                         -0.1193868              -3.2487
        48                         -0.0809269              -2.2021
       ...                                ...                  ...
        67                          0.5856821              15.9372
      -------------------------------------------------------------
                  HL-Gap            0.0568239 Eh            1.5463 eV

     #   Z          covCN         q      C6AA      α(0)
     1   6 C        3.734    -0.083    22.174     6.721
     2   7 N        2.736     0.059    20.215     6.678
     3   6 C        2.773     0.065    26.525     8.435
     4   7 N        2.680    -0.081    22.827     7.096
     5   6 C        1.865    -0.078    33.260     9.315
     6   6 C        2.751    -0.030    28.729     8.777
     7   6 C        2.788     0.266    22.519     7.773
     8   8 O        1.681    -0.236    17.924     5.716
     9   7 N        2.726    -0.049    22.190     6.996
    10   6 C        3.704    -0.059    21.789     6.674
    11   6 C        2.730     0.321    21.539     7.598
    12   8 O        0.859    -0.303    19.833     5.971
    13   7 N        2.730    -0.009    21.439     6.877
    14   6 C        3.759    -0.073    21.938     6.678
    15   1 H        0.925     0.118     1.629     1.996
    16   1 H        0.925     0.091     1.866     2.136
    17   1 H        0.924     0.121     1.604     1.981
    18   1 H        0.925     0.099     1.797     2.097
    19   1 H        0.925     0.106     1.735     2.060
    20   1 H        0.924     0.093     1.850     2.127
    21   1 H        0.924     0.112     1.680     2.027
    22   1 H        0.925     0.103     1.754     2.071
    23   1 H        0.925     0.113     1.671     2.022
    24   1 H        0.925     0.093     1.850     2.127
    25   1 H        0.860     0.240     0.922     1.504

Wiberg/Mayer (AO) data.
largest (>0.10) Wiberg bond orders for each atom

     #   Z sym  total        # sym  WBO       # sym  WBO       # sym  WBO
 ---------------------------------------------------------------------------
     1   6 C    3.923 --    16 H    0.974     2 N    0.973    17 H    0.957
                            15 H    0.955
     2   7 N    3.688 --     3 C    1.501     6 C    1.034     1 C    0.973
     3   6 C    3.927 --     2 N    1.501     4 N    1.169    18 H    0.944
                             6 C    0.140
     4   7 N    3.578 --     5 C    1.304     3 C    1.169    25 H    0.909
     5   6 C    2.879 --    13 N    1.309     4 N    1.304
     6   6 C    3.223 --     7 C    1.074     2 N    1.034     8 O    0.792
                             3 C    0.140
     7   6 C    3.894 --     9 N    1.481     8 O    1.229     6 C    1.074
     8   8 O    2.272 --     7 C    1.229     6 C    0.792     9 N    0.124
     9   7 N    3.604 --     7 C    1.481    10 C    0.947    11 C    0.878
                             8 O    0.124
    10   6 C    3.919 --    19 H    0.973    20 H    0.969    21 H    0.962
                             9 N    0.947
    11   6 C    3.939 --    12 O    1.808    13 N    1.130     9 N    0.878
    12   8 O    2.146 --    11 C    1.808    13 N    0.133
    13   7 N    3.628 --     5 C    1.309    11 C    1.130    14 C    0.943
                            12 O    0.133
    14   6 C    3.917 --    24 H    0.973    23 H    0.971    22 H    0.966
                            13 N    0.943
    15   1 H    0.981 --     1 C    0.955
    16   1 H    0.991 --     1 C    0.974
    17   1 H    0.982 --     1 C    0.957
    18   1 H    0.990 --     3 C    0.944
    19   1 H    0.988 --    10 C    0.973
    20   1 H    0.991 --    10 C    0.969
    21   1 H    0.987 --    10 C    0.962
    22   1 H    0.987 --    14 C    0.966
    23   1 H    0.987 --    14 C    0.971
    24   1 H    0.989 --    14 C    0.973
    25   1 H    0.941 --     4 N    0.909
 ---------------------------------------------------------------------------

molecular dipole:
                 x           y           z       tot (Debye)
 q only:        1.530      -0.982      -0.922
   full:        1.641      -0.537      -1.117       5.227

           -------------------------------------------------
          | TOTAL ENERGY              -41.981684642286 Eh   |
          | GRADIENT NORM               0.002591380102 Eh/α |
          | HOMO-LUMO GAP               1.546256889696 eV   |
           -------------------------------------------------

 * finished run on 2024/06/05 at 19:57:57.888
