   * xtb version 6.6.1 (8d0f1dd) compiled by 'conda@1efc2f54142f' on 2023-08-01
          program call               : xtb xtbopt.xyz --opt crude --input .xc2 --gfn2

   ID    Z sym.   atoms
    1    6 C      1, 3, 5-7, 10, 11, 14
    2    7 N      2, 4, 9, 13
    3    8 O      8, 12
    4    1 H      15-25
########################################################################
[WARNING] Please study the warnings concerning your input carefully
-1- readin_getIntValue: could not parse ''
########################################################################

          :  Hamiltonian                  GFN2-xTB          :
 * total energy  :   -41.9819020 Eh     change       -0.9237056E-13 Eh
 * total energy  :   -41.9856142 Eh     change       -0.3712232E-02 Eh
 * total energy  :   -41.9886242 Eh     change       -0.3009936E-02 Eh
 * total energy  :   -41.9898446 Eh     change       -0.1220431E-02 Eh
 * total energy  :   -41.9908479 Eh     change       -0.1003303E-02 Eh
 * total energy  :   -41.9917719 Eh     change       -0.9240425E-03 Eh
 * total energy  :   -41.9925988 Eh     change       -0.8268943E-03 Eh
 * total energy  :   -41.9932847 Eh     change       -0.6858872E-03 Eh
 * total energy  :   -41.9938872 Eh     change       -0.6024824E-03 Eh
 * total energy  :   -41.9944841 Eh     change       -0.5968586E-03 Eh
 * total energy  :   -42.0020021 Eh     change       -0.5418151E-03 Eh
 * total energy  :   -42.0026120 Eh     change       -0.6098720E-03 Eh
 * total energy  :   -42.0033093 Eh     change       -0.6973362E-03 Eh
 * total energy  :   -42.0041919 Eh     change       -0.8825761E-03 Eh
 * total energy  :   -42.0049006 Eh     change       -0.7087180E-03 Eh
 * total energy  :   -42.0053565 Eh     change       -0.4558504E-03 Eh
 * total energy  :   -42.0054287 Eh     change       -0.7225825E-04 Eh
 * total energy  :   -42.0060258 Eh     change       -0.5970356E-03 Eh
 * total energy  :   -42.0062128 Eh     change       -0.1870482E-03 Eh
   *** GEOMETRY OPTIMIZATION CONVERGED AFTER 31 ITERATIONS ***

 final structure:
================
25
 xtb: 6.6.1 (8d0f1dd)
C            3.48069906045251        0.95638281512060        0.52942765084597
N            2.25514663587364        0.30593287653444        0.12487292727514
C            2.18434496474969       -0.54357635200894       -0.88076125923725
N            1.11464165741176       -1.28825187975720       -1.14191767761587
C            0.26294909949189       -1.96462071490934       -0.22188355198952
C            1.12168492971820        0.57168730686480        0.90046650184319
C           -0.05257920181480        1.00011668623752        0.34088078500805
O            0.57700813356984        2.06744941832896        0.72849981115944
N           -1.26167599334565        0.79206855342630       -0.13437010605182
C           -2.15289087993344        1.92026122221503       -0.39687929656233
C           -1.76098709002179       -0.48272546349937       -0.38691517650487
O           -2.82262363970481       -0.67491274164801       -0.89289056661605
N           -0.93110399805802       -1.58295363285770        0.07464862001818
C           -1.70573076987560       -2.49405478075312        0.91807692901555
H            3.78944508413655        0.57864817637756        1.50566678322749
H            4.26574192628706        0.76726923260168       -0.19828622089499
H            3.30596401698210        2.02951173253319        0.61563908584310
H            3.05978897252375       -0.65136152575952       -1.50865735761670
H           -1.62600145553160        2.84337334198001       -0.16652131662323
H           -2.45487138019675        1.90528257526152       -1.44384016281299
H           -3.04330650242429        1.83344576637880        0.22514593090863
H           -1.97754296749591       -1.99321516436975        1.84740436265288
H           -1.09568842201301       -3.36734593071857        1.13365459771547
H           -2.61301780730605       -2.79012324981257        0.39242429005278
H            1.24103714062352       -1.92004972616777       -1.93271396514199

          :  Hamiltonian                  GFN2-xTB          :
         :: total energy             -42.006212819911 Eh    ::
         :: gradient norm              0.007019033355 Eh/a0 ::
         :: HOMO-LUMO gap              1.646321639376 eV    ::
         :: SCC energy               -42.510552639134 Eh    ::
         :: -> dispersion             -0.022699599731 Eh    ::
         :: repulsion energy           0.504126091202 Eh    ::

    * Orbital Energies and Occupations

         #    Occupation            Energy/Eh            Energy/eV
      -------------------------------------------------------------
         1        2.0000           -0.9083580             -24.7177
       ...           ...                  ...                  ...
        25        2.0000           -0.6731035             -18.3161
        26        2.0000           -0.6611785             -17.9916
        27        2.0000           -0.6504362             -17.6993
        28        2.0000           -0.6379624             -17.3598
        29        2.0000           -0.6338559             -17.2481
        30        2.0000           -0.6292516             -17.1228
        31        2.0000           -0.6227377             -16.9456
        32        2.0000           -0.6163903             -16.7728
        33        2.0000           -0.6064381             -16.5020
        34        2.0000           -0.6036317             -16.4257
        35        2.0000           -0.5991063             -16.3025
        36        1.9989           -0.5444172             -14.8143
        37        1.9566           -0.5148762             -14.0105 (HOMO)
        38        0.0423           -0.4543750             -12.3642 (LUMO)
        39        0.0017           -0.4289065             -11.6711
        40        0.0004           -0.4172479             -11.3539
        41        0.0000           -0.3713583             -10.1052
        42                         -0.3181046              -8.6561
        43                         -0.2113653              -5.7515
        44                         -0.1812465              -4.9320
        45                         -0.1445815              -3.9343
        46                         -0.1306923              -3.5563
        47                         -0.0859346              -2.3384
        48                         -0.0821650              -2.2358
       ...                                ...                  ...
        67                          0.5853565              15.9284
      -------------------------------------------------------------
                  HL-Gap            0.0605012 Eh            1.6463 eV

     #   Z          covCN         q      C6AA      α(0)
     1   6 C        3.705    -0.075    22.088     6.719
     2   7 N        2.738     0.038    20.581     6.738
     3   6 C        2.791     0.080    26.193     8.383
     4   7 N        2.687    -0.100    23.208     7.155
     5   6 C        1.864    -0.051    32.504     9.209
     6   6 C        2.716    -0.017    28.403     8.724
     7   6 C        2.787     0.252    22.767     7.816
     8   8 O        1.639    -0.279    18.655     5.830
     9   7 N        2.730    -0.035    21.924     6.954
    10   6 C        3.706    -0.062    21.838     6.680
    11   6 C        2.725     0.316    21.633     7.614
    12   8 O        0.858    -0.300    19.783     5.963
    13   7 N        2.729     0.022    20.869     6.785
    14   6 C        3.734    -0.081    22.139     6.715
    15   1 H        0.924     0.108     1.715     2.048
    16   1 H        0.925     0.089     1.889     2.150
    17   1 H        0.924     0.108     1.714     2.047
    18   1 H        0.925     0.100     1.788     2.091
    19   1 H        0.925     0.108     1.712     2.046
    20   1 H        0.925     0.105     1.737     2.061
    21   1 H        0.925     0.104     1.748     2.067
    22   1 H        0.925     0.096     1.822     2.111
    23   1 H        0.925     0.118     1.627     1.995
    24   1 H        0.925     0.118     1.633     1.998
    25   1 H        0.860     0.237     0.934     1.514

Wiberg/Mayer (AO) data.
largest (>0.10) Wiberg bond orders for each atom

     #   Z sym  total        # sym  WBO       # sym  WBO       # sym  WBO
 ---------------------------------------------------------------------------
     1   6 C    3.930 --     2 N    0.977    16 H    0.975    17 H    0.966
                            15 H    0.959
     2   7 N    3.651 --     3 C    1.385     6 C    1.035     1 C    0.977
                             4 N    0.130
     3   6 C    3.955 --     2 N    1.385     4 N    1.350    18 H    0.943
                             5 C    0.115
     4   7 N    3.514 --     3 C    1.350     5 C    1.027    25 H    0.894
                             2 N    0.130
     5   6 C    3.047 --    13 N    1.639     4 N    1.027     3 C    0.115
     6   6 C    3.329 --     7 C    1.271     2 N    1.035     8 O    0.783
     7   6 C    3.893 --     9 N    1.290     6 C    1.271     8 O    1.214
     8   8 O    2.197 --     7 C    1.214     6 C    0.783
     9   7 N    3.621 --     7 C    1.290    11 C    1.072    10 C    0.947
                            12 O    0.120
    10   6 C    3.914 --    19 H    0.974    20 H    0.968    21 H    0.967
                             9 N    0.947
    11   6 C    3.937 --    12 O    1.804     9 N    1.072    13 N    0.927
    12   8 O    2.136 --    11 C    1.804     9 N    0.120
    13   7 N    3.683 --     5 C    1.639    14 C    0.955    11 C    0.927
    14   6 C    3.918 --    23 H    0.969    22 H    0.966    24 H    0.959
                            13 N    0.955
    15   1 H    0.987 --     1 C    0.959
    16   1 H    0.991 --     1 C    0.975
    17   1 H    0.987 --     1 C    0.966
    18   1 H    0.988 --     3 C    0.943
    19   1 H    0.988 --    10 C    0.974
    20   1 H    0.989 --    10 C    0.968
    21   1 H    0.988 --    10 C    0.967
    22   1 H    0.991 --    14 C    0.966
    23   1 H    0.985 --    14 C    0.969
    24   1 H    0.986 --    14 C    0.959
    25   1 H    0.943 --     4 N    0.894
 ---------------------------------------------------------------------------

molecular dipole:
                 x           y           z       tot (Debye)
 q only:        1.200      -0.997      -0.373
   full:        1.271      -0.574      -0.884       4.197

           -------------------------------------------------
          | TOTAL ENERGY              -42.006212819911 Eh   |
          | GRADIENT NORM               0.007019033355 Eh/α |
          | HOMO-LUMO GAP               1.646321639376 eV   |
           -------------------------------------------------

 * finished run on 2024/06/05 at 19:57:58.961
