   * xtb version 6.6.1 (8d0f1dd) compiled by 'conda@1efc2f54142f' on 2023-08-01
          program call               : xtb xtbopt.xyz --opt crude --input .xc2 --gfn2

   ID    Z sym.   atoms
    1    6 C      1, 3, 5-7, 10, 11, 14
    2    7 N      2, 4, 9, 13
    3    8 O      8, 12
    4    1 H      15-25
########################################################################
[WARNING] Please study the warnings concerning your input carefully
-1- readin_getIntValue: could not parse ''
########################################################################

          :  Hamiltonian                  GFN2-xTB          :
 * total energy  :   -42.1370261 Eh     change       -0.9237056E-13 Eh
   *** GEOMETRY OPTIMIZATION CONVERGED AFTER 1 ITERATIONS ***

 final structure:
================
25
 xtb: 6.6.1 (8d0f1dd)
C            4.97870643137000        0.13905372627523       -0.26755415509684
N            4.09107999954451       -0.16386704325898        0.78036520547080
C            2.87643218427886       -0.43306090905202        0.77798976306908
N            2.04449427652345       -0.50724537376171       -0.36993115549828
C            0.77448215460383       -0.66583188111390       -0.35551478606973
C           -0.47001065140710       -0.36927971592688       -0.12859332010634
C           -0.92991759745850        1.11346703456237       -0.00671789260812
O           -0.22371983367481        2.07500479637123        0.00060160577257
N           -2.27349866181940        1.01215009715891        0.09059779804308
C           -3.16711115825109        2.14311981239680        0.20629016613263
C           -2.73305733359301       -0.31067500482506        0.06883625930316
O           -3.86326893288745       -0.67610440443627        0.15550747540215
N           -1.60797170766834       -1.11640808934685       -0.06773957491303
C           -1.68094048005187       -2.55466890954795       -0.10366904646616
H            5.49248034701487        1.06322237103438        0.00261023981856
H            5.74062337246810       -0.64481962437741       -0.30108470634999
H            4.52767307481066        0.25757192282188       -1.26230586998774
H            2.36747233899867       -0.61841932653986        1.71307672065768
H           -2.57932494087511        3.02941885052598        0.43635275442098
H           -3.70483669171695        2.29169235142034       -0.73163652679481
H           -3.88996025924885        1.94800912451207        0.99819184829974
H           -1.14206122617978       -2.98995968625535        0.73906595388835
H           -1.26266954984044       -2.93702965118691       -1.03590978236185
H           -2.73436449317509       -2.82697901426287       -0.03988930806549
H            2.52970085234713       -0.44012291157743       -1.26776804806409

          :  Hamiltonian                  GFN2-xTB          :
         :: total energy             -42.137026123396 Eh    ::
         :: gradient norm              0.003651180375 Eh/a0 ::
         :: HOMO-LUMO gap              1.730540236962 eV    ::
         :: SCC energy               -42.700441349037 Eh    ::
         :: -> dispersion             -0.019590516658 Eh    ::
         :: repulsion energy           0.563453578418 Eh    ::

    * Orbital Energies and Occupations

         #    Occupation            Energy/Eh            Energy/eV
      -------------------------------------------------------------
         1        2.0000           -0.8916426             -24.2628
       ...           ...                  ...                  ...
        25        1.9999           -0.6702638             -18.2388
        26        1.9999           -0.6666924             -18.1416
        27        1.9996           -0.6435132             -17.5109
        28        1.9994           -0.6355527             -17.2943
        29        1.9992           -0.6308366             -17.1659
        30        1.9989           -0.6258798             -17.0311
        31        1.9979           -0.6163645             -16.7721
        32        1.9957           -0.6046995             -16.4547
        33        1.9877           -0.5880454             -16.0015
        34        1.9743           -0.5762672             -15.6810
        35        1.9716           -0.5746802             -15.6378
        36        1.9469           -0.5645859             -15.3632
        37        1.8064           -0.5429086             -14.7733 (HOMO)
        38        0.2878           -0.4793124             -13.0428 (LUMO)
        39        0.0342           -0.4434127             -12.0659
        40        0.0007           -0.3815366             -10.3821
        41        0.0000           -0.3389743              -9.2240
        42        0.0000           -0.3306937              -8.9986
        43                         -0.1986235              -5.4048
        44                         -0.1689836              -4.5983
        45                         -0.1426467              -3.8816
        46                         -0.0766202              -2.0849
        47                         -0.0686800              -1.8689
        48                         -0.0240161              -0.6535
       ...                                ...                  ...
        67                          0.7669792              20.8706
      -------------------------------------------------------------
                  HL-Gap            0.0635962 Eh            1.7305 eV

     #   Z          covCN         q      C6AA      α(0)
     1   6 C        3.694    -0.052    21.693     6.663
     2   7 N        1.823    -0.108    24.129     7.279
     3   6 C        2.775     0.099    25.794     8.318
     4   7 N        2.683    -0.005    21.353     6.863
     5   6 C        1.916     0.045    29.950     8.838
     6   6 C        2.971     0.042    27.045     8.530
     7   6 C        2.820     0.284    22.203     7.721
     8   8 O        0.857    -0.314    20.043     6.002
     9   7 N        2.786    -0.066    22.521     7.048
    10   6 C        3.692    -0.060    21.841     6.688
    11   6 C        2.812     0.325    21.491     7.595
    12   8 O        0.857    -0.325    20.237     6.031
    13   7 N        2.775    -0.042    22.059     6.976
    14   6 C        3.690    -0.067    21.981     6.710
    15   1 H        0.924     0.119     1.622     1.992
    16   1 H        0.924     0.115     1.650     2.009
    17   1 H        0.923     0.058     2.224     2.332
    18   1 H        0.926     0.107     1.718     2.050
    19   1 H        0.925     0.107     1.725     2.054
    20   1 H        0.924     0.102     1.765     2.078
    21   1 H        0.925     0.108     1.712     2.046
    22   1 H        0.924     0.087     1.905     2.158
    23   1 H        0.924     0.087     1.905     2.158
    24   1 H        0.925     0.118     1.628     1.995
    25   1 H        0.859     0.236     0.941     1.520

Wiberg/Mayer (AO) data.
largest (>0.10) Wiberg bond orders for each atom

     #   Z sym  total        # sym  WBO       # sym  WBO       # sym  WBO
 ---------------------------------------------------------------------------
     1   6 C    3.936 --     2 N    1.065    17 H    0.947    15 H    0.933
                            16 H    0.931
     2   7 N    3.069 --     3 C    1.841     1 C    1.065
     3   6 C    3.914 --     2 N    1.841     4 N    1.005    18 H    0.938
     4   7 N    3.571 --     5 C    1.513     3 C    1.005    25 H    0.884
     5   6 C    3.625 --     6 C    1.762     4 N    1.513
     6   6 C    3.935 --     5 C    1.762    13 N    1.149     7 C    0.818
     7   6 C    3.910 --     8 O    1.762     9 N    1.202     6 C    0.818
     8   8 O    2.125 --     7 C    1.762     9 N    0.157
     9   7 N    3.549 --     7 C    1.202    11 C    1.043    10 C    0.969
                             8 O    0.157    12 O    0.105
    10   6 C    3.903 --    19 H    0.971     9 N    0.969    21 H    0.962
                            20 H    0.958
    11   6 C    3.949 --    12 O    1.741    13 N    1.076     9 N    1.043
    12   8 O    2.078 --    11 C    1.741    13 N    0.122     9 N    0.105
    13   7 N    3.494 --     6 C    1.149    11 C    1.076    14 C    0.983
                            12 O    0.122
    14   6 C    3.920 --    13 N    0.983    24 H    0.967    23 H    0.966
                            22 H    0.965
    15   1 H    0.972 --     1 C    0.933
    16   1 H    0.975 --     1 C    0.931
    17   1 H    0.968 --     1 C    0.947
    18   1 H    0.980 --     3 C    0.938
    19   1 H    0.985 --    10 C    0.971
    20   1 H    0.979 --    10 C    0.958
    21   1 H    0.980 --    10 C    0.962
    22   1 H    0.983 --    14 C    0.965
    23   1 H    0.983 --    14 C    0.966
    24   1 H    0.984 --    14 C    0.967
    25   1 H    0.938 --     4 N    0.884
 ---------------------------------------------------------------------------

molecular dipole:
                 x           y           z       tot (Debye)
 q only:        2.084      -0.863      -0.426
   full:        2.064      -0.986      -0.764       6.130

           -------------------------------------------------
          | TOTAL ENERGY              -42.137026123396 Eh   |
          | GRADIENT NORM               0.003651180375 Eh/α |
          | HOMO-LUMO GAP               1.730540236962 eV   |
           -------------------------------------------------

 * finished run on 2024/06/05 at 19:57:55.242
