   * xtb version 6.6.1 (8d0f1dd) compiled by 'conda@1efc2f54142f' on 2023-08-01
          program call               : xtb struc.xyz --opt loose --input .xc1 --gfn2

   ID    Z sym.   atoms
    1    7 N      1, 17
    2    6 C      2-6, 8, 9, 11-16, 18-23, 25, 26, 28-33
    3    8 O      7, 10, 24, 27
    4    1 H      34-72
constraining bond 1 68 to    5.6866700 Å, actual value:    3.9126670 Å

          :  Hamiltonian                  GFN2-xTB          :
 * total energy  :   -99.9660533 Eh     change       -0.4035485E-08 Eh
 * total energy  :  -100.3894106 Eh     change       -0.4233573E+00 Eh
 * total energy  :  -100.8921600 Eh     change       -0.5027494E+00 Eh
 * total energy  :  -101.4996871 Eh     change       -0.6075271E+00 Eh
 * total energy  :  -102.2243744 Eh     change       -0.7246873E+00 Eh
 * total energy  :  -103.0755751 Eh     change       -0.8512007E+00 Eh
 * total energy  :   -99.2130550 Eh     change        0.3862520E+01 Eh
 * total energy  :  -103.1264065 Eh     change       -0.3913352E+01 Eh
 * total energy  :  -103.2911541 Eh     change       -0.1647476E+00 Eh
 * total energy  :  -103.3331651 Eh     change       -0.4201100E-01 Eh
 * total energy  :  -103.6978692 Eh     change       -0.1766476E-03 Eh
 * total energy  :  -103.6980139 Eh     change       -0.1446728E-03 Eh
 * total energy  :  -103.6981267 Eh     change       -0.1127904E-03 Eh
 * total energy  :  -103.6982479 Eh     change       -0.1212082E-03 Eh
 * total energy  :  -103.6983230 Eh     change       -0.7509570E-04 Eh
 * total energy  :  -103.6984024 Eh     change       -0.7941836E-04 Eh
 * total energy  :  -103.6984477 Eh     change       -0.4532925E-04 Eh
 * total energy  :  -103.6985041 Eh     change       -0.5633614E-04 Eh
 * total energy  :  -103.6985534 Eh     change       -0.4933444E-04 Eh
   *** GEOMETRY OPTIMIZATION CONVERGED AFTER 59 ITERATIONS ***

 final structure:
================
72
 xtb: 6.6.1 (8d0f1dd)
N           -3.57044309606978        3.29005804824129        2.90357537834310
C           -1.39072043973450        1.68329302501434        0.64372471595461
C           -2.76376980400663        1.57229123274308       -0.03866429107753
C           -3.41701835749796        0.20367883095191        0.10886743402593
C           -4.42534599211885       -0.17286288378890       -0.78293516542135
C           -5.07048767963945       -1.39448916145249       -0.69163581118868
O           -6.04549945148093       -1.82637638561294       -1.51975045029187
C           -6.46708399861819       -1.00474054466723       -2.58130488933669
C           -4.71568464456669       -2.29786615885569        0.34410605619168
O           -5.38031898965984       -3.47091946661320        0.35380525959173
C           -5.07836464465031       -4.41654664052611        1.35266031587706
C           -3.74582815351476       -1.90758056842882        1.25123649056449
C           -3.11384403114360       -0.67622894169272        1.13764713595277
C           -2.36947971905993        1.84097461105440       -1.50297332688444
C           -1.13012687117954        0.97224960346800       -1.68641571905820
C           -0.33090053772253        1.20138369510065       -0.38877487127207
N            0.43758359649373        0.08975985294694        0.11852137294268
C            1.85901884586940        0.26066362330153        0.22987030546510
C            2.63917498932893        0.17361291637633       -1.10526951826798
C            4.10827126225023        0.25867192096917       -0.82808379855054
C            4.81801625306180        1.43274051458624       -1.02418482313232
C            6.16685152513190        1.50889010484604       -0.71130482115445
C            6.83298748610204        0.41332500527473       -0.18106770437505
O            8.13303487318036        0.37692533218381        0.17122184059332
C            8.92209803571074        1.53145592718802        0.00455493073296
C            6.11344792907602       -0.79620481411009        0.02613197995944
O            6.83212175159000       -1.81216262632638        0.54776538703827
C            6.19357689322796       -3.03920805686340        0.80821445328552
C            4.76983258159980       -0.85045057637609       -0.30340639971015
C           -0.00408690618828       -1.25776957216741       -0.12847648641131
C           -3.79754512835648        2.61995168871237        0.52736056258112
C           -3.95824422818598        2.38709897659710        1.97860890914011
C           -3.48601961024714        4.08107884726523        0.20568216695423
H           -4.72225687726253        0.50554341420237       -1.56533410662976
H           -6.89173289848203       -0.06312915701740       -2.21801493315787
H           -7.24049793267246       -1.57004414061462       -3.09749026207591
H           -5.64887284589672       -0.79440192912448       -3.27739756282484
H           -5.29643641466406       -4.02820548239050        2.35230701173429
H           -5.72128360540594       -5.27084282510497        1.15058992599865
H           -4.03145485612046       -4.73128394836488        1.30356754823655
H           -3.46594367684855       -2.55853529175578        2.06349803346441
H           -2.38072983398310       -0.42971956103286        1.88794607079669
H           -3.14595004092705        1.60784313855828       -2.22471079776786
H           -2.09001810871718        2.88633601739125       -1.62396662229816
H           -1.43036684821380       -0.06871114740887       -1.78258489567472
H           -0.55753115628680        1.24886399465490       -2.57042952982266
H           -1.30384385359524        1.11595326888931        1.56563166861329
H            0.37511044100449        2.01919668820124       -0.55769348667676
H            2.23753749601548       -0.51391279796148        0.90260220304479
H            2.06078368165826        1.23179860167204        0.69160704802860
H            2.32648256464924        0.98638311128713       -1.76388984606099
H            2.40377728521658       -0.77598742222841       -1.59011819687265
H            4.32313332425193        2.30081995315415       -1.43241409158513
H            6.69328290281226        2.43349135474504       -0.88353195963508
H            8.53743987588687        2.36834528573014        0.59522361046266
H            8.98520970764151        1.82525197628828       -1.04749714967810
H            9.91325265593149        1.26166377916585        0.36373817511054
H            6.95990100974175       -3.68348047621343        1.23461232676387
H            5.37803661807620       -2.92100137041019        1.52906712206558
H            5.80768939411748       -3.49438447468456       -0.10910950566869
H            4.21633575609197       -1.76563507737676       -0.16233132001083
H            0.22578838964773       -1.60809703775557       -1.14253871457173
H           -1.07739996572648       -1.33085067706298        0.03164937581639
H            0.49482065305751       -1.92139352871504        0.57800722806941
H           -4.75154152416425        2.36570181080849        0.04709711091789
H           -3.72333216870615        3.01816836757691        3.86877950727456
H           -4.35456996563107        1.44696370013634        2.31961988993139
H           -3.30212391735730        3.91113407904099        2.74066247389898
H           -2.48587875913649        4.37004839538977        0.51845308619769
H           -3.57556230664127        4.26427981234430       -0.86038245250857
H           -4.20621498521176        4.72595203598815        0.70494969405465
H           -1.19372735615338        2.72531972315165        0.89178454659367

          :  Hamiltonian                  GFN2-xTB          :
         :: total energy            -103.698553420527 Eh    ::
         :: gradient norm              0.003946991388 Eh/a0 ::
         :: HOMO-LUMO gap              1.247798529510 eV    ::
         :: SCC energy              -100.823578359084 Eh    ::
         :: -> dispersion             -0.075622771643 Eh    ::
         :: repulsion energy           1.571347971645 Eh    ::

    * Orbital Energies and Occupations

         #    Occupation            Energy/Eh            Energy/eV
      -------------------------------------------------------------
         1        2.0000           -0.8021223             -21.8269
       ...           ...                  ...                  ...
        78        1.9988           -0.5262719             -14.3206
        79        1.9987           -0.5242980             -14.2669
        80        1.9984           -0.5211872             -14.1822
        81        1.9983           -0.5203149             -14.1585
        82        1.9981           -0.5184629             -14.1081
        83        1.9978           -0.5164291             -14.0527
        84        1.9970           -0.5113369             -13.9142
        85        1.9962           -0.5075789             -13.8119
        86        1.9837           -0.4844032             -13.1813
        87        1.9732           -0.4764472             -12.9648
        88        1.8888           -0.4532282             -12.3330
        89        1.8670           -0.4502020             -12.2506
        90        1.7470           -0.4389699             -11.9450 (HOMO)
        91        0.5522           -0.3931141             -10.6972 (LUMO)
        92        0.0039           -0.3096601              -8.4263
        93        0.0033           -0.3069435              -8.3524
        94        0.0021           -0.3000323              -8.1643
        95        0.0017           -0.2967926              -8.0761
        96        0.0000           -0.1843653              -5.0168
        97        0.0000           -0.1745430              -4.7496
        98                         -0.0960588              -2.6139
        99                         -0.0760546              -2.0696
       100                         -0.0677889              -1.8446
       101                         -0.0579055              -1.5757
       ...                                ...                  ...
       171                          1.2236524              33.2973
      -------------------------------------------------------------
                  HL-Gap            0.0458558 Eh            1.2478 eV

     #   Z          covCN         q      C6AA      α(0)
     1   7 N        2.634    -0.207    25.506     7.501
     2   6 C        3.834    -0.080    21.996     6.673
     3   6 C        3.924     0.014    20.284     6.401
     4   6 C        2.967    -0.007    28.192     8.709
     5   6 C        2.923    -0.081    30.035     8.987
     6   6 C        2.862     0.129    25.164     8.222
     7   8 O        1.706    -0.232    17.845     5.703
     8   6 C        3.644     0.029    20.423     6.496
     9   6 C        2.865     0.130    25.161     8.222
    10   8 O        1.706    -0.230    17.811     5.698
    11   6 C        3.646     0.028    20.438     6.497
    12   6 C        2.914    -0.075    29.867     8.962
    13   6 C        2.923    -0.056    29.381     8.889
    14   6 C        3.843    -0.067    21.748     6.634
    15   6 C        3.824    -0.068    21.790     6.643
    16   6 C        3.808     0.033    20.016     6.369
    17   7 N        2.727    -0.116    23.526     7.204
    18   6 C        3.752    -0.004    20.705     6.489
    19   6 C        3.806    -0.070    21.832     6.652
    20   6 C        2.969     0.006    27.883     8.661
    21   6 C        2.922    -0.046    29.152     8.854
    22   6 C        2.914    -0.067    29.671     8.932
    23   6 C        2.865     0.132    25.103     8.213
    24   8 O        1.706    -0.224    17.711     5.682
    25   6 C        3.645     0.026    20.469     6.502
    26   6 C        2.863     0.133    25.097     8.212
    27   8 O        1.706    -0.227    17.760     5.690
    28   6 C        3.645     0.028    20.435     6.497
    29   6 C        2.921    -0.078    29.956     8.975
    30   6 C        3.696    -0.049    21.629     6.653
    31   6 C        3.854    -0.023    20.949     6.510
    32   6 C        2.825     0.016    27.651     8.616
    33   6 C        3.754    -0.117    22.793     6.808
    34   1 H        0.926     0.047     2.352     2.398
    35   1 H        0.924     0.048     2.350     2.397
    36   1 H        0.925     0.080     1.982     2.202
    37   1 H        0.924     0.049     2.334     2.389
    38   1 H        0.924     0.051     2.310     2.377
    39   1 H        0.925     0.080     1.983     2.202
    40   1 H        0.924     0.050     2.317     2.380
    41   1 H        0.926     0.050     2.315     2.379
    42   1 H        0.926     0.043     2.411     2.428
    43   1 H        0.925     0.046     2.375     2.410
    44   1 H        0.925     0.051     2.311     2.377
    45   1 H        0.925     0.049     2.329     2.386
    46   1 H        0.925     0.043     2.412     2.429
    47   1 H        0.925     0.051     2.308     2.376
    48   1 H        0.924     0.044     2.391     2.418
    49   1 H        0.924     0.051     2.306     2.375
    50   1 H        0.924     0.047     2.363     2.404
    51   1 H        0.924     0.044     2.391     2.418
    52   1 H        0.924     0.051     2.313     2.378
    53   1 H        0.926     0.047     2.361     2.403
    54   1 H        0.926     0.056     2.244     2.342
    55   1 H        0.924     0.053     2.280     2.362
    56   1 H        0.924     0.055     2.258     2.350
    57   1 H        0.925     0.080     1.975     2.198
    58   1 H        0.925     0.080     1.983     2.202
    59   1 H        0.924     0.048     2.341     2.393
    60   1 H        0.924     0.052     2.292     2.368
    61   1 H        0.926     0.049     2.337     2.391
    62   1 H        0.924     0.039     2.461     2.453
    63   1 H        0.925     0.062     2.180     2.309
    64   1 H        0.925     0.053     2.287     2.365
    65   1 H        0.924     0.074     2.047     2.238
    66   1 H        0.860     0.200     1.107     1.648
    67   1 H        0.926     0.067     2.121     2.277
    68   1 H        0.864     0.233     0.951     1.527
    69   1 H        0.925     0.046     2.364     2.404
    70   1 H        0.925     0.058     2.217     2.329
    71   1 H        0.925     0.051     2.305     2.374
    72   1 H        0.925     0.042     2.418     2.432

Wiberg/Mayer (AO) data.
largest (>0.10) Wiberg bond orders for each atom

     #   Z sym  total        # sym  WBO       # sym  WBO       # sym  WBO
 ---------------------------------------------------------------------------
     1   7 N    3.280 --    32 C    1.349    66 H    0.942    68 H    0.934
     2   6 C    3.975 --     3 C    0.989    72 H    0.972    16 C    0.966
                            47 H    0.966
     3   6 C    3.946 --     2 C    0.989     4 C    0.986    14 C    0.977
                            31 C    0.899
     4   6 C    3.953 --    13 C    1.414     5 C    1.372     3 C    0.986
     5   6 C    3.964 --     6 C    1.403     4 C    1.372    34 H    0.955
     6   6 C    3.908 --     5 C    1.403     9 C    1.225     7 O    1.096
     7   8 O    2.254 --     6 C    1.096     8 C    0.980
     8   6 C    3.935 --     7 O    0.980    36 H    0.977    35 H    0.974
                            37 H    0.974
     9   6 C    3.905 --    12 C    1.393     6 C    1.225    10 O    1.100
    10   8 O    2.254 --     9 C    1.100    11 C    0.978
    11   6 C    3.933 --    10 O    0.978    39 H    0.977    40 H    0.974
                            38 H    0.974
    12   6 C    3.965 --    13 C    1.403     9 C    1.393    41 H    0.964
    13   6 C    3.957 --     4 C    1.414    12 C    1.403    42 H    0.958
    14   6 C    3.987 --    15 C    1.005     3 C    0.977    44 H    0.971
                            43 H    0.970
    15   6 C    3.979 --    14 C    1.005    16 C    0.979    46 H    0.977
                            45 H    0.971
    16   6 C    3.972 --    17 N    1.005    15 C    0.979     2 C    0.966
                            48 H    0.966
    17   7 N    3.134 --    18 C    1.019    30 C    1.018    16 C    1.005
    18   6 C    3.966 --    17 N    1.019    50 H    0.969    49 H    0.966
                            19 C    0.953
    19   6 C    3.967 --    20 C    1.018    51 H    0.974    52 H    0.966
                            18 C    0.953
    20   6 C    3.937 --    21 C    1.403    29 C    1.373    19 C    1.018
    21   6 C    3.937 --    22 C    1.417    20 C    1.403    53 H    0.968
    22   6 C    3.955 --    21 C    1.417    23 C    1.383    54 H    0.963
    23   6 C    3.882 --    22 C    1.383    26 C    1.217    24 O    1.106
    24   8 O    2.245 --    23 C    1.106    25 C    0.977
    25   6 C    3.930 --    24 O    0.977    57 H    0.977    55 H    0.973
                            56 H    0.972
    26   6 C    3.891 --    29 C    1.400    23 C    1.217    27 O    1.100
    27   8 O    2.246 --    26 C    1.100    28 C    0.979
    28   6 C    3.933 --    27 O    0.979    58 H    0.977    59 H    0.973
                            60 H    0.973
    29   6 C    3.955 --    26 C    1.400    20 C    1.373    61 H    0.962
    30   6 C    3.969 --    17 N    1.018    64 H    0.976    63 H    0.966
                            62 H    0.962
    31   6 C    3.981 --    32 C    1.065    33 C    1.007    65 H    0.931
                             3 C    0.899
    32   6 C    3.432 --     1 N    1.349    31 C    1.065    67 H    0.968
    33   6 C    3.990 --    31 C    1.007    70 H    0.981    71 H    0.981
                            69 H    0.979
    34   1 H    0.997 --     5 C    0.955
    35   1 H    0.994 --     8 C    0.974
    36   1 H    0.993 --     8 C    0.977
    37   1 H    0.994 --     8 C    0.974
    38   1 H    0.994 --    11 C    0.974
    39   1 H    0.993 --    11 C    0.977
    40   1 H    0.994 --    11 C    0.974
    41   1 H    0.996 --    12 C    0.964
    42   1 H    0.998 --    13 C    0.958
    43   1 H    0.997 --    14 C    0.970
    44   1 H    0.996 --    14 C    0.971
    45   1 H    0.997 --    15 C    0.971
    46   1 H    0.996 --    15 C    0.977
    47   1 H    0.997 --     2 C    0.966
    48   1 H    0.996 --    16 C    0.966
    49   1 H    0.993 --    18 C    0.966
    50   1 H    0.994 --    18 C    0.969
    51   1 H    0.997 --    19 C    0.974
    52   1 H    0.994 --    19 C    0.966
    53   1 H    0.997 --    21 C    0.968
    54   1 H    0.995 --    22 C    0.963
    55   1 H    0.991 --    25 C    0.973
    56   1 H    0.991 --    25 C    0.972
    57   1 H    0.993 --    25 C    0.977
    58   1 H    0.993 --    28 C    0.977
    59   1 H    0.993 --    28 C    0.973
    60   1 H    0.992 --    28 C    0.973
    61   1 H    0.996 --    29 C    0.962
    62   1 H    0.978 --    30 C    0.962
    63   1 H    0.993 --    30 C    0.966
    64   1 H    0.993 --    30 C    0.976
    65   1 H    0.973 --    31 C    0.931
    66   1 H    0.960 --     1 N    0.942
    67   1 H    0.995 --    32 C    0.968
    68   1 H    0.946 --     1 N    0.934
    69   1 H    0.997 --    33 C    0.979
    70   1 H    0.996 --    33 C    0.981
    71   1 H    0.996 --    33 C    0.981
    72   1 H    0.997 --     2 C    0.972
 ---------------------------------------------------------------------------

molecular dipole:
                 x           y           z       tot (Debye)
 q only:       -1.554       1.944       1.476
   full:       -1.560       2.076       1.456       7.567

           -------------------------------------------------
          | TOTAL ENERGY             -103.698553420527 Eh   |
          | GRADIENT NORM               0.003946991388 Eh/α |
          | HOMO-LUMO GAP               1.247798529510 eV   |
           -------------------------------------------------

 * finished run on 2024/04/06 at 11:15:30.224
