   * xtb version 6.6.1 (8d0f1dd) compiled by 'conda@1efc2f54142f' on 2023-08-01
          program call               : xtb xtbopt.xyz --opt crude --input .xc2 --gfn2

   ID    Z sym.   atoms
    1    7 N      1, 17
    2    6 C      2-6, 8, 9, 11-16, 18-23, 25, 26, 28-33
    3    8 O      7, 10, 24, 27
    4    1 H      34-72
########################################################################
[WARNING] Please study the warnings concerning your input carefully
-1- readin_getIntValue: could not parse ''
########################################################################

          :  Hamiltonian                  GFN2-xTB          :
 * total energy  :   -99.2511814 Eh     change       -0.9521273E-12 Eh
 * total energy  :   -99.4324752 Eh     change       -0.1812938E+00 Eh
 * total energy  :   -99.4339286 Eh     change       -0.1453386E-02 Eh
 * total energy  :   -99.4340594 Eh     change       -0.1308163E-03 Eh
   *** GEOMETRY OPTIMIZATION CONVERGED AFTER 4 ITERATIONS ***

 final structure:
================
72
 xtb: 6.6.1 (8d0f1dd)
N           -3.60164188864921        3.21544422092864        2.92976841383068
C           -1.39347514681296        1.68123778717995        0.64753204221938
C           -2.76541957727892        1.57046553582872       -0.03831315505529
C           -3.41713654600015        0.20027142934926        0.10705653236066
C           -4.42545022068741       -0.17515623710977       -0.78514646090133
C           -5.07146734047580       -1.39622564246511       -0.69407933278028
O           -6.04702521364148       -1.82720759808411       -1.52267594058537
C           -6.46717538665971       -1.00404421915862       -2.58366113546282
C           -4.71819968366944       -2.29954486094562        0.34188715945258
O           -5.38451197855875       -3.47179234099142        0.35141750028651
C           -5.08296455550087       -4.41746324589907        1.35053000918054
C           -3.74865648028984       -1.91029127990813        1.24945733004618
C           -3.11528067283578       -0.67946875631711        1.13595870191951
C           -2.36857642572441        1.84017713642433       -1.50154842087274
C           -1.12839775730652        0.97260153343814       -1.68309359758325
C           -0.33112508776826        1.20236992343847       -0.38464278465526
N            0.43982382687090        0.09050935160082        0.12176789727726
C            1.86111927673390        0.26353214591020        0.23025518544323
C            2.64066617914070        0.17059910844842       -1.10404693335201
C            4.10982378246331        0.25648987115489       -0.82762576960381
C            4.81832275110186        1.43128405076711       -1.02295150282672
C            6.16727146300601        1.50836056502676       -0.71077204626913
C            6.83462694272484        0.41305334340112       -0.18184914522842
O            8.13555201610336        0.37767539309026        0.16956092957293
C            8.92304190136285        1.53297845381103        0.00140113997020
C            6.11655423590965       -0.79690370844107        0.02525116892877
O            6.83683159346486       -1.81271062591863        0.54613089940447
C            6.19974621111904       -3.04058824882929        0.80458114497135
C            4.77287466765900       -0.85217856609647       -0.30352411753546
C           -0.00257902062541       -1.25659712352231       -0.12352692371938
C           -3.80181768268881        2.61414481670415        0.52727494368282
C           -3.97431801467472        2.36171478761870        1.97474260466267
C           -3.49034466254669        4.07683861268342        0.21378733613851
H           -4.72142424468568        0.50330602663500       -1.56796509732811
H           -6.89162049691938       -0.06260060703602       -2.21998036439902
H           -7.24040463978478       -1.56844238625784       -3.10116243077642
H           -5.64822297032917       -0.79342076640662       -3.27888686796518
H           -5.30099350535011       -4.02894259019868        2.35022808134111
H           -5.72610859429318       -5.27161717274555        1.14850739335837
H           -4.03589959086287       -4.73250633079421        1.30156961972620
H           -3.47002547218578       -2.56113129008687        2.06225292501950
H           -2.38271679902957       -0.43454778296988        1.88723040059187
H           -3.14409150110152        1.60680451251271       -2.22465768602594
H           -2.09004731743958        2.88583087164437       -1.62228816102863
H           -1.42812250285313       -0.06869125386592       -1.77832841338133
H           -0.55490218769588        1.24827679980868       -2.56659944725886
H           -1.30973025369186        1.11115311414952        1.56674434965784
H            0.37340094330736        2.02161087654706       -0.55079183676388
H            2.24150037585310       -0.50666150142430        0.90648432717724
H            2.06208808672310        1.23601058437494        0.68744637630631
H            2.32764997491014        0.97982564924109       -1.76473861283945
H            2.40460971150434       -0.78034118337148       -1.58394949754106
H            4.32235263843441        2.29924804390950       -1.43009170932905
H            6.69276099434072        2.43363494822611       -0.88232438327266
H            8.53901209917210        2.36947698774487        0.59343164062732
H            8.98327569059819        1.82735124661327       -1.05076484842151
H            9.91547695381488        1.26409768721666        0.35819392043712
H            6.96716189958767       -3.68502318211836        1.22897639365560
H            5.38467546415323       -2.92489725847721        1.52646913299225
H            5.81339006845602       -3.49436948581299       -0.11344976957594
H            4.21996156086095       -1.76757574280926       -0.16205135855290
H            0.22580254621027       -1.61065846204619       -1.13758658397381
H           -1.07638591487428       -1.32759366587247        0.03665991857150
H            0.49542951429027       -1.91934246619872        0.58463689946238
H           -4.75343660718235        2.36459507321819        0.04071590515738
H           -3.73338953742898        3.00923820879477        3.90588268280486
H           -4.37960247687653        1.41501854896732        2.29447797714812
H           -3.21436853214681        4.11856716426616        2.68373304411465
H           -2.48859808321675        4.36544467095621        0.52302128805918
H           -3.58111604313600        4.26129095462770       -0.85194224320510
H           -4.21310617119919        4.71942179561978        0.71302521326453
H           -1.19841098822026        2.72272327279390        0.89823299186467

          :  Hamiltonian                  GFN2-xTB          :
         :: total energy             -99.434059456680 Eh    ::
         :: gradient norm              0.007801643779 Eh/a0 ::
         :: HOMO-LUMO gap              1.303956599372 eV    ::
         :: SCC energy              -100.788255823684 Eh    ::
         :: -> dispersion             -0.075656153263 Eh    ::
         :: repulsion energy           1.353152629170 Eh    ::

    * Orbital Energies and Occupations

         #    Occupation            Energy/Eh            Energy/eV
      -------------------------------------------------------------
         1        2.0000           -0.8009531             -21.7950
       ...           ...                  ...                  ...
        78        1.9989           -0.5247812             -14.2800
        79        1.9988           -0.5237822             -14.2528
        80        1.9985           -0.5199663             -14.1490
        81        1.9985           -0.5195129             -14.1367
        82        1.9983           -0.5178977             -14.0927
        83        1.9979           -0.5147846             -14.0080
        84        1.9973           -0.5107325             -13.8977
        85        1.9964           -0.5059182             -13.7667
        86        1.9853           -0.4835306             -13.1575
        87        1.9743           -0.4746747             -12.9166
        88        1.8984           -0.4522667             -12.3068
        89        1.8732           -0.4485371             -12.2053
        90        1.7576           -0.4372712             -11.8988 (HOMO)
        91        0.5202           -0.3893517             -10.5948 (LUMO)
        92        0.0043           -0.3087428              -8.4013
        93        0.0036           -0.3060230              -8.3273
        94        0.0022           -0.2982519              -8.1158
        95        0.0018           -0.2949634              -8.0264
        96        0.0000           -0.1833859              -4.9902
        97        0.0000           -0.1726978              -4.6993
        98                         -0.1135535              -3.0899
        99                         -0.0952629              -2.5922
       100                         -0.0698271              -1.9001
       101                         -0.0616921              -1.6787
       ...                                ...                  ...
       171                          0.5914950              16.0954
      -------------------------------------------------------------
                  HL-Gap            0.0479195 Eh            1.3040 eV

     #   Z          covCN         q      C6AA      α(0)
     1   7 N        2.632    -0.175    24.794     7.395
     2   6 C        3.833    -0.080    22.002     6.674
     3   6 C        3.924     0.013    20.288     6.401
     4   6 C        2.968    -0.008    28.214     8.713
     5   6 C        2.923    -0.082    30.045     8.989
     6   6 C        2.862     0.129    25.174     8.224
     7   8 O        1.706    -0.233    17.863     5.706
     8   6 C        3.644     0.029    20.417     6.495
     9   6 C        2.865     0.129    25.169     8.223
    10   8 O        1.706    -0.231    17.828     5.701
    11   6 C        3.646     0.028    20.433     6.496
    12   6 C        2.914    -0.075    29.877     8.963
    13   6 C        2.923    -0.056    29.396     8.891
    14   6 C        3.842    -0.067    21.743     6.633
    15   6 C        3.824    -0.068    21.790     6.643
    16   6 C        3.808     0.033    20.012     6.368
    17   7 N        2.726    -0.118    23.574     7.211
    18   6 C        3.752    -0.003    20.699     6.488
    19   6 C        3.807    -0.070    21.834     6.652
    20   6 C        2.969     0.006    27.895     8.663
    21   6 C        2.922    -0.047    29.162     8.856
    22   6 C        2.914    -0.067    29.678     8.933
    23   6 C        2.865     0.132    25.114     8.214
    24   8 O        1.706    -0.225    17.732     5.685
    25   6 C        3.645     0.027    20.461     6.501
    26   6 C        2.863     0.132    25.105     8.213
    27   8 O        1.706    -0.228    17.777     5.693
    28   6 C        3.645     0.029    20.428     6.496
    29   6 C        2.921    -0.078    29.960     8.976
    30   6 C        3.696    -0.048    21.619     6.651
    31   6 C        3.854    -0.024    20.968     6.513
    32   6 C        2.823     0.024    27.469     8.588
    33   6 C        3.754    -0.117    22.799     6.809
    34   1 H        0.926     0.047     2.362     2.403
    35   1 H        0.924     0.047     2.359     2.402
    36   1 H        0.925     0.079     1.986     2.204
    37   1 H        0.924     0.048     2.340     2.392
    38   1 H        0.924     0.050     2.317     2.381
    39   1 H        0.925     0.079     1.987     2.205
    40   1 H        0.924     0.050     2.321     2.383
    41   1 H        0.926     0.050     2.322     2.383
    42   1 H        0.926     0.042     2.423     2.434
    43   1 H        0.925     0.045     2.378     2.411
    44   1 H        0.925     0.050     2.325     2.384
    45   1 H        0.925     0.050     2.325     2.385
    46   1 H        0.925     0.043     2.413     2.429
    47   1 H        0.925     0.051     2.308     2.376
    48   1 H        0.924     0.044     2.397     2.421
    49   1 H        0.924     0.051     2.313     2.378
    50   1 H        0.924     0.046     2.373     2.409
    51   1 H        0.924     0.044     2.396     2.421
    52   1 H        0.924     0.050     2.317     2.380
    53   1 H        0.926     0.046     2.372     2.409
    54   1 H        0.926     0.055     2.253     2.347
    55   1 H        0.924     0.053     2.289     2.366
    56   1 H        0.924     0.054     2.265     2.354
    57   1 H        0.925     0.080     1.981     2.201
    58   1 H        0.925     0.079     1.989     2.205
    59   1 H        0.924     0.048     2.347     2.396
    60   1 H        0.924     0.052     2.299     2.371
    61   1 H        0.926     0.048     2.343     2.394
    62   1 H        0.923     0.038     2.475     2.460
    63   1 H        0.925     0.061     2.187     2.313
    64   1 H        0.924     0.052     2.293     2.368
    65   1 H        0.924     0.074     2.040     2.234
    66   1 H        0.860     0.205     1.082     1.630
    67   1 H        0.926     0.071     2.073     2.251
    68   1 H        0.860     0.212     1.049     1.605
    69   1 H        0.925     0.046     2.369     2.407
    70   1 H        0.925     0.061     2.186     2.312
    71   1 H        0.925     0.051     2.310     2.377
    72   1 H        0.925     0.041     2.439     2.442

Wiberg/Mayer (AO) data.
largest (>0.10) Wiberg bond orders for each atom

     #   Z sym  total        # sym  WBO       # sym  WBO       # sym  WBO
 ---------------------------------------------------------------------------
     1   7 N    3.314 --    32 C    1.388    66 H    0.941    68 H    0.928
     2   6 C    3.976 --     3 C    0.989    72 H    0.972    16 C    0.966
                            47 H    0.966
     3   6 C    3.948 --     2 C    0.989     4 C    0.985    14 C    0.977
                            31 C    0.901
     4   6 C    3.955 --    13 C    1.416     5 C    1.372     3 C    0.985
     5   6 C    3.965 --     6 C    1.404     4 C    1.372    34 H    0.956
     6   6 C    3.910 --     5 C    1.404     9 C    1.226     7 O    1.094
     7   8 O    2.254 --     6 C    1.094     8 C    0.980
     8   6 C    3.935 --     7 O    0.980    36 H    0.977    35 H    0.974
                            37 H    0.974
     9   6 C    3.908 --    12 C    1.394     6 C    1.226    10 O    1.099
    10   8 O    2.255 --     9 C    1.099    11 C    0.978
    11   6 C    3.933 --    10 O    0.978    39 H    0.977    40 H    0.974
                            38 H    0.974
    12   6 C    3.966 --    13 C    1.402     9 C    1.394    41 H    0.964
    13   6 C    3.959 --     4 C    1.416    12 C    1.402    42 H    0.958
    14   6 C    3.988 --    15 C    1.005     3 C    0.977    44 H    0.971
                            43 H    0.970
    15   6 C    3.980 --    14 C    1.005    16 C    0.979    46 H    0.977
                            45 H    0.971
    16   6 C    3.973 --    17 N    1.004    15 C    0.979     2 C    0.966
                            48 H    0.966
    17   7 N    3.135 --    18 C    1.019    30 C    1.019    16 C    1.004
    18   6 C    3.967 --    17 N    1.019    50 H    0.969    49 H    0.966
                            19 C    0.954
    19   6 C    3.969 --    20 C    1.018    51 H    0.974    52 H    0.966
                            18 C    0.954
    20   6 C    3.938 --    21 C    1.404    29 C    1.373    19 C    1.018
    21   6 C    3.939 --    22 C    1.416    20 C    1.404    53 H    0.968
    22   6 C    3.956 --    21 C    1.416    23 C    1.384    54 H    0.963
    23   6 C    3.884 --    22 C    1.384    26 C    1.218    24 O    1.104
    24   8 O    2.245 --    23 C    1.104    25 C    0.978
    25   6 C    3.930 --    24 O    0.978    57 H    0.977    55 H    0.973
                            56 H    0.973
    26   6 C    3.893 --    29 C    1.401    23 C    1.218    27 O    1.098
    27   8 O    2.246 --    26 C    1.098    28 C    0.980
    28   6 C    3.934 --    27 O    0.980    58 H    0.977    59 H    0.974
                            60 H    0.973
    29   6 C    3.956 --    26 C    1.401    20 C    1.373    61 H    0.962
    30   6 C    3.970 --    17 N    1.019    64 H    0.976    63 H    0.966
                            62 H    0.962
    31   6 C    3.982 --    32 C    1.060    33 C    1.007    65 H    0.932
                             3 C    0.901
    32   6 C    3.459 --     1 N    1.388    31 C    1.060    67 H    0.960
    33   6 C    3.991 --    31 C    1.007    70 H    0.980    71 H    0.980
                            69 H    0.978
    34   1 H    0.997 --     5 C    0.956
    35   1 H    0.995 --     8 C    0.974
    36   1 H    0.993 --     8 C    0.977
    37   1 H    0.995 --     8 C    0.974
    38   1 H    0.994 --    11 C    0.974
    39   1 H    0.993 --    11 C    0.977
    40   1 H    0.994 --    11 C    0.974
    41   1 H    0.996 --    12 C    0.964
    42   1 H    0.998 --    13 C    0.958
    43   1 H    0.997 --    14 C    0.970
    44   1 H    0.996 --    14 C    0.971
    45   1 H    0.997 --    15 C    0.971
    46   1 H    0.996 --    15 C    0.977
    47   1 H    0.997 --     2 C    0.966
    48   1 H    0.996 --    16 C    0.966
    49   1 H    0.994 --    18 C    0.966
    50   1 H    0.994 --    18 C    0.969
    51   1 H    0.997 --    19 C    0.974
    52   1 H    0.994 --    19 C    0.966
    53   1 H    0.997 --    21 C    0.968
    54   1 H    0.995 --    22 C    0.963
    55   1 H    0.992 --    25 C    0.973
    56   1 H    0.991 --    25 C    0.973
    57   1 H    0.993 --    25 C    0.977
    58   1 H    0.993 --    28 C    0.977
    59   1 H    0.993 --    28 C    0.974
    60   1 H    0.993 --    28 C    0.973
    61   1 H    0.996 --    29 C    0.962
    62   1 H    0.979 --    30 C    0.962
    63   1 H    0.993 --    30 C    0.966
    64   1 H    0.993 --    30 C    0.976
    65   1 H    0.975 --    31 C    0.932
    66   1 H    0.958 --     1 N    0.941
    67   1 H    0.995 --    32 C    0.960
    68   1 H    0.955 --     1 N    0.928
    69   1 H    0.997 --    33 C    0.978
    70   1 H    0.996 --    33 C    0.980
    71   1 H    0.996 --    33 C    0.980
    72   1 H    0.997 --     2 C    0.972
 ---------------------------------------------------------------------------

molecular dipole:
                 x           y           z       tot (Debye)
 q only:       -1.763       2.181       1.602
   full:       -1.768       2.338       1.585       8.469

           -------------------------------------------------
          | TOTAL ENERGY              -99.434059456680 Eh   |
          | GRADIENT NORM               0.007801643779 Eh/α |
          | HOMO-LUMO GAP               1.303956599372 eV   |
           -------------------------------------------------

 * finished run on 2024/04/06 at 11:15:31.216
