   * xtb version 6.6.1 (8d0f1dd) compiled by 'conda@1efc2f54142f' on 2023-08-01
          program call               : xtb xtbopt.xyz --opt crude --input .xc2 --gfn2

   ID    Z sym.   atoms
    1    6 C      1, 3, 5-7, 10, 11, 14
    2    7 N      2, 4, 9, 13
    3    8 O      8, 12
    4    1 H      15-25
########################################################################
[WARNING] Please study the warnings concerning your input carefully
-1- readin_getIntValue: could not parse ''
########################################################################

          :  Hamiltonian                  GFN2-xTB          :
 * total energy  :   -42.1585735 Eh     change       -0.4263256E-13 Eh
   *** GEOMETRY OPTIMIZATION CONVERGED AFTER 1 ITERATIONS ***

 final structure:
================
25
 xtb: 6.6.1 (8d0f1dd)
C            3.08249296718947        1.13868909212879       -0.26811903764160
N            2.13733813147244        0.07125047124251       -0.09347533920663
C            2.42917223904690       -1.19121087749700        0.13498000110907
N            1.31270426532186       -1.92140098912979        0.24854846975775
C            0.18404491159158       -1.09275428183003        0.08913151018196
C            0.74787862328655        0.21211688249420       -0.15065018883003
C            0.13922322069723        1.44253046521952       -0.37706311641701
O            0.56849380760769        2.55255204094194       -0.51411955625105
N           -1.42442846622109        1.30469560208077       -0.45890433929808
C           -2.13192176610207        1.74082112286734        0.73467644824978
C           -1.90702960319683        0.97823074816794       -1.55291113862232
O           -2.20288720649506        0.63373240714646       -2.60401784290694
N           -1.04625506248637       -1.40173902611673        0.16363940640649
C           -1.51447751186822       -2.72807034776670        0.42674863135631
H            2.97748011470676        1.86939064284045        0.53462343528637
H            4.09130578759548        0.73407407515261       -0.26467460572554
H            2.89705700804651        1.65393605310406       -1.21084172154260
H            3.42688579882976       -1.58155221327977        0.21505480248839
H           -1.76914685766407        2.72987482221593        1.01415093092639
H           -3.20241102066277        1.78331221562089        0.54787567375355
H           -1.92949873050570        1.03039981829030        1.53712328836434
H           -0.96500638643705       -3.24114652346605        1.22565485914622
H           -1.45962713738371       -3.33695252651661       -0.48003370605486
H           -2.56109060784457       -2.64828443836570        0.71568092534358
H            1.28013499558366       -2.91425669394414        0.41809382803200

          :  Hamiltonian                  GFN2-xTB          :
         :: total energy             -42.158573528432 Eh    ::
         :: gradient norm              0.004975919621 Eh/a0 ::
         :: HOMO-LUMO gap              2.006848433583 eV    ::
         :: SCC energy               -42.730347762185 Eh    ::
         :: -> dispersion             -0.022143503646 Eh    ::
         :: repulsion energy           0.571529082897 Eh    ::

    * Orbital Energies and Occupations

         #    Occupation            Energy/Eh            Energy/eV
      -------------------------------------------------------------
         1        2.0000           -0.9316917             -25.3526
       ...           ...                  ...                  ...
        25        2.0000           -0.6720897             -18.2885
        26        2.0000           -0.6653201             -18.1043
        27        2.0000           -0.6497758             -17.6813
        28        1.9999           -0.6382056             -17.3665
        29        1.9999           -0.6357845             -17.3006
        30        1.9999           -0.6310740             -17.1724
        31        1.9995           -0.6071806             -16.5222
        32        1.9993           -0.6018282             -16.3766
        33        1.9990           -0.5947662             -16.1844
        34        1.9986           -0.5898889             -16.0517
        35        1.9977           -0.5820364             -15.8380
        36        1.9166           -0.5244013             -14.2697
        37        1.8321           -0.5126117             -13.9489 (HOMO)
        38        0.1876           -0.4388614             -11.9420 (LUMO)
        39        0.0645           -0.4209034             -11.4534
        40        0.0031           -0.3724480             -10.1348
        41        0.0022           -0.3670457              -9.9878
        42        0.0000           -0.2936866              -7.9916
        43        0.0000           -0.2440446              -6.6408
        44                         -0.1721046              -4.6832
        45                         -0.1269058              -3.4533
        46                         -0.0911628              -2.4807
        47                         -0.0766819              -2.0866
        48                         -0.0307111              -0.8357
       ...                                ...                  ...
        67                          1.0286399              27.9907
      -------------------------------------------------------------
                  HL-Gap            0.0737503 Eh            2.0068 eV

     #   Z          covCN         q      C6AA      α(0)
     1   6 C        3.693    -0.085    22.303     6.757
     2   7 N        2.813     0.066    20.087     6.657
     3   6 C        2.979     0.074    26.337     8.418
     4   7 N        2.781    -0.097    23.127     7.143
     5   6 C        2.945     0.142    24.898     8.184
     6   6 C        3.060    -0.043    28.996     8.831
     7   6 C        2.749     0.257    22.682     7.798
     8   8 O        0.857    -0.321    20.160     6.020
     9   7 N        2.713    -0.021    21.648     6.910
    10   6 C        3.695    -0.066    21.948     6.702
    11   6 C        1.794     0.330    23.853     7.893
    12   8 O        0.856    -0.109    16.651     5.471
    13   7 N        1.824    -0.263    27.670     7.794
    14   6 C        3.702    -0.032    21.310     6.601
    15   1 H        0.924     0.112     1.675     2.024
    16   1 H        0.925     0.096     1.818     2.109
    17   1 H        0.924     0.113     1.674     2.023
    18   1 H        0.926     0.110     1.698     2.038
    19   1 H        0.925     0.117     1.639     2.002
    20   1 H        0.925     0.103     1.755     2.071
    21   1 H        0.924     0.108     1.712     2.046
    22   1 H        0.924     0.046     2.375     2.410
    23   1 H        0.924     0.067     2.122     2.278
    24   1 H        0.925     0.079     1.989     2.205
    25   1 H        0.860     0.215     1.033     1.592

Wiberg/Mayer (AO) data.
largest (>0.10) Wiberg bond orders for each atom

     #   Z sym  total        # sym  WBO       # sym  WBO       # sym  WBO
 ---------------------------------------------------------------------------
     1   6 C    3.929 --     2 N    0.993    16 H    0.975    17 H    0.959
                            15 H    0.957
     2   7 N    3.669 --     3 C    1.418     6 C    1.090     1 C    0.993
                             4 N    0.107
     3   6 C    3.879 --     2 N    1.418     4 N    1.309    18 H    0.951
     4   7 N    3.537 --     3 C    1.309     5 C    1.049    25 H    0.925
                             2 N    0.107
     5   6 C    3.945 --    13 N    1.626     6 C    1.141     4 N    1.049
     6   6 C    3.835 --     7 C    1.278     5 C    1.141     2 N    1.090
                             8 O    0.115
     7   6 C    3.866 --     8 O    1.743     6 C    1.278     9 N    0.696
     8   8 O    2.116 --     7 C    1.743     6 C    0.115
     9   7 N    3.580 --    11 C    1.607    10 C    0.934     7 C    0.696
                            12 O    0.245
    10   6 C    3.894 --    20 H    0.974    21 H    0.965    19 H    0.964
                             9 N    0.934
    11   6 C    3.800 --    12 O    2.080     9 N    1.607
    12   8 O    2.423 --    11 C    2.080     9 N    0.245
    13   7 N    2.924 --     5 C    1.626    14 C    1.034
    14   6 C    3.952 --    13 N    1.034    24 H    0.970    22 H    0.960
                            23 H    0.950
    15   1 H    0.985 --     1 C    0.957
    16   1 H    0.990 --     1 C    0.975
    17   1 H    0.985 --     1 C    0.959
    18   1 H    0.986 --     3 C    0.951
    19   1 H    0.986 --    10 C    0.964
    20   1 H    0.988 --    10 C    0.974
    21   1 H    0.988 --    10 C    0.965
    22   1 H    0.981 --    14 C    0.960
    23   1 H    0.976 --    14 C    0.950
    24   1 H    0.984 --    14 C    0.970
    25   1 H    0.953 --     4 N    0.925
 ---------------------------------------------------------------------------

molecular dipole:
                 x           y           z       tot (Debye)
 q only:        0.953      -0.639       0.378
   full:        1.226      -1.213       0.450       4.531

           -------------------------------------------------
          | TOTAL ENERGY              -42.158573528432 Eh   |
          | GRADIENT NORM               0.004975919621 Eh/α |
          | HOMO-LUMO GAP               2.006848433583 eV   |
           -------------------------------------------------

 * finished run on 2024/06/05 at 20:00:20.908
