   * xtb version 6.6.1 (8d0f1dd) compiled by 'conda@1efc2f54142f' on 2023-08-01
          program call               : xtb struc.xyz --opt loose --input .xc1 --gfn2

   ID    Z sym.   atoms
    1    6 C      1, 3, 5-7, 10, 11, 14
    2    7 N      2, 4, 9, 13
    3    8 O      8, 12
    4    1 H      15-25
constraining bond 6 14 to    6.0000000 Å, actual value:    3.7374765 Å

          :  Hamiltonian                  GFN2-xTB          :
 * total energy  :   -33.1076974 Eh     change       -0.6650680E-10 Eh
 * total energy  :   -36.9286619 Eh     change       -0.3820964E+01 Eh
 * total energy  :   -39.6479626 Eh     change       -0.2719301E+01 Eh
 * total energy  :   -41.1625582 Eh     change       -0.1514596E+01 Eh
 * total energy  :   -41.6684196 Eh     change       -0.5058614E+00 Eh
 * total energy  :   -41.7354656 Eh     change       -0.6704595E-01 Eh
 * total energy  :   -41.7659649 Eh     change       -0.3049930E-01 Eh
 * total energy  :   -41.8161225 Eh     change       -0.5015763E-01 Eh
 * total energy  :   -41.8395993 Eh     change       -0.2347681E-01 Eh
 * total energy  :   -41.8567697 Eh     change       -0.1717038E-01 Eh
 * total energy  :   -42.1343853 Eh     change       -0.5249449E-03 Eh
 * total energy  :   -42.1349373 Eh     change       -0.5519300E-03 Eh
 * total energy  :   -42.1353509 Eh     change       -0.4136471E-03 Eh
 * total energy  :   -42.1355178 Eh     change       -0.1668428E-03 Eh
 * total energy  :   -42.1352905 Eh     change        0.2273000E-03 Eh
 * total energy  :   -42.1357411 Eh     change       -0.4506802E-03 Eh
 * total energy  :   -42.1358156 Eh     change       -0.7443231E-04 Eh
 * total energy  :   -42.1358679 Eh     change       -0.5236597E-04 Eh
 * total energy  :   -42.1358855 Eh     change       -0.1753825E-04 Eh
   *** GEOMETRY OPTIMIZATION CONVERGED AFTER 43 ITERATIONS ***

 final structure:
================
25
 xtb: 6.6.1 (8d0f1dd)
C            3.42975171510597        1.61794095038068        0.02092352571600
N            2.61364516234872        0.43161232562552        0.00666017108575
C            3.03391545826950       -0.82608600866619        0.00229694220764
N            1.98660151764334       -1.66829185641191       -0.00129758047140
C            0.83480300196374       -0.92250641655634        0.00166410703783
C            1.24675172835163        0.41655059946631        0.00682351951670
C            0.26286153207324        1.47695411553671       -0.00231135547798
O            0.50887137326537        2.66656384613084       -0.01168722050528
N           -1.02313900279184        0.96576626734806       -0.00257987005341
C           -2.12571585940628        1.90482463156178       -0.00712636484108
C           -1.38319888281092       -0.40424820442482        0.00041617716613
O           -2.56085948546439       -0.68971990027507        0.00256331567569
N           -0.40452270590287       -1.34349309290908       -0.00125049346896
C           -3.25989781037668       -3.54531386910081       -0.00908998679570
H            3.95533053394251        1.70452123079798        0.97258892009540
H            4.16282875074839        1.58399934197257       -0.78458760423035
H            2.78219900675775        2.48522027800665       -0.10623831967597
H            4.06378567532386       -1.12893023953670        0.00068434051420
H           -1.71694151620067        2.91343046707154       -0.00071205675616
H           -2.74109934630807        1.74987249648412       -0.89469638572520
H           -2.75330607038817        1.74256519861358        0.87049134194712
H           -3.05558466909592       -4.05219454514088        0.91253085501518
H           -3.06076993964385       -4.03476541132935       -0.94175471784683
H           -3.66053374839847       -2.54812190654687        0.00157630369893
H            2.02465509509343       -2.67791175649808       -0.00471594592876

          :  Hamiltonian                  GFN2-xTB          :
         :: total energy             -42.135885479611 Eh    ::
         :: gradient norm              0.002568004019 Eh/a0 ::
         :: HOMO-LUMO gap              1.156634738798 eV    ::
         :: SCC energy               -42.663987501678 Eh    ::
         :: -> dispersion             -0.020999797207 Eh    ::
         :: repulsion energy           0.528057841142 Eh    ::

    * Orbital Energies and Occupations

         #    Occupation            Energy/Eh            Energy/eV
      -------------------------------------------------------------
         1        2.0000           -0.9031303             -24.5754
       ...           ...                  ...                  ...
        25        1.9998           -0.6566159             -17.8674
        26        1.9993           -0.6348450             -17.2750
        27        1.9993           -0.6336490             -17.2425
        28        1.9983           -0.6199341             -16.8693
        29        1.9980           -0.6174393             -16.8014
        30        1.9974           -0.6138615             -16.7040
        31        1.9970           -0.6111709             -16.6308
        32        1.9938           -0.5997837             -16.3209
        33        1.9653           -0.5723430             -15.5742
        34        1.9075           -0.5563292             -15.1385
        35        1.8971           -0.5545591             -15.0903
        36        1.8457           -0.5477097             -14.9039
        37        1.7475           -0.5390478             -14.6682 (HOMO)
        38        0.6416           -0.4965422             -13.5116 (LUMO)
        39        0.0118           -0.4272767             -11.6268
        40        0.0010           -0.3875413             -10.5455
        41        0.0001           -0.3553068              -9.6684
        42        0.0000           -0.2679941              -7.2925
        43                         -0.1848984              -5.0313
        44                         -0.1647554              -4.4832
        45                         -0.1226256              -3.3368
        46                         -0.0730614              -1.9881
        47                         -0.0268912              -0.7317
        48                         -0.0227993              -0.6204
       ...                                ...                  ...
        67                          0.5406172              14.7109
      -------------------------------------------------------------
                  HL-Gap            0.0425055 Eh            1.1566 eV

     #   Z          covCN         q      C6AA      α(0)
     1   6 C        3.692    -0.093    22.461     6.782
     2   7 N        2.827     0.087    19.737     6.598
     3   6 C        3.063     0.064    26.498     8.441
     4   7 N        2.796    -0.055    22.309     7.015
     5   6 C        3.068     0.149    24.703     8.150
     6   6 C        3.134    -0.022    28.321     8.711
     7   6 C        2.767     0.276    22.327     7.738
     8   8 O        0.858    -0.365    20.985     6.142
     9   7 N        2.748    -0.083    22.861     7.101
    10   6 C        3.704    -0.055    21.725     6.664
    11   6 C        2.759     0.337    21.275     7.553
    12   8 O        0.860    -0.359    20.876     6.126
    13   7 N        1.832    -0.266    27.750     7.806
    14   6 C        2.779    -0.071    29.741     8.932
    15   1 H        0.924     0.109     1.703     2.041
    16   1 H        0.925     0.106     1.729     2.056
    17   1 H        0.925     0.136     1.490     1.909
    18   1 H        0.926     0.126     1.569     1.959
    19   1 H        0.925     0.113     1.670     2.021
    20   1 H        0.924     0.104     1.747     2.067
    21   1 H        0.924     0.104     1.745     2.066
    22   1 H        0.926     0.129     1.540     1.941
    23   1 H        0.926     0.129     1.540     1.940
    24   1 H        0.926     0.161     1.320     1.797
    25   1 H        0.860     0.236     0.939     1.518

Wiberg/Mayer (AO) data.
largest (>0.10) Wiberg bond orders for each atom

     #   Z sym  total        # sym  WBO       # sym  WBO       # sym  WBO
 ---------------------------------------------------------------------------
     1   6 C    3.911 --     2 N    0.983    16 H    0.962    17 H    0.960
                            15 H    0.956
     2   7 N    3.711 --     3 C    1.395     6 C    1.181     1 C    0.983
     3   6 C    3.878 --     2 N    1.395     4 N    1.314    18 H    0.951
     4   7 N    3.595 --     3 C    1.314     5 C    1.153    25 H    0.917
     5   6 C    3.948 --    13 N    1.375     6 C    1.263     4 N    1.153
     6   6 C    3.812 --     5 C    1.263     2 N    1.181     7 C    1.077
     7   6 C    3.954 --     8 O    1.641     9 N    1.139     6 C    1.077
     8   8 O    1.945 --     7 C    1.641     9 N    0.139
     9   7 N    3.478 --     7 C    1.139    11 C    1.041    10 C    0.987
                             8 O    0.139
    10   6 C    3.888 --     9 N    0.987    19 H    0.961    21 H    0.949
                            20 H    0.949
    11   6 C    3.943 --    12 O    1.633    13 N    1.182     9 N    1.041
    12   8 O    1.916 --    11 C    1.633
    13   7 N    2.836 --     5 C    1.375    11 C    1.182
    14   6 C    2.940 --    22 H    0.980    23 H    0.980    24 H    0.961
    15   1 H    0.985 --     1 C    0.956
    16   1 H    0.986 --     1 C    0.962
    17   1 H    0.980 --     1 C    0.960
    18   1 H    0.983 --     3 C    0.951
    19   1 H    0.979 --    10 C    0.961
    20   1 H    0.968 --    10 C    0.949
    21   1 H    0.968 --    10 C    0.949
    22   1 H    0.982 --    14 C    0.980
    23   1 H    0.982 --    14 C    0.980
    24   1 H    0.971 --    14 C    0.961
    25   1 H    0.943 --     4 N    0.917
 ---------------------------------------------------------------------------

molecular dipole:
                 x           y           z       tot (Debye)
 q only:        2.016      -2.068       0.009
   full:        2.466      -2.220       0.014       8.433

           -------------------------------------------------
          | TOTAL ENERGY              -42.135885479611 Eh   |
          | GRADIENT NORM               0.002568004019 Eh/α |
          | HOMO-LUMO GAP               1.156634738798 eV   |
           -------------------------------------------------

 * finished run on 2024/06/05 at 20:00:14.318
