   * xtb version 6.6.1 (8d0f1dd) compiled by 'conda@1efc2f54142f' on 2023-08-01
          program call               : xtb xtbopt.xyz --opt crude --input .xc2 --gfn2

   ID    Z sym.   atoms
    1    6 C      1, 3, 5-7, 10, 11, 14
    2    7 N      2, 4, 9, 13
    3    8 O      8, 12
    4    1 H      15-25
########################################################################
[WARNING] Please study the warnings concerning your input carefully
-1- readin_getIntValue: could not parse ''
########################################################################

          :  Hamiltonian                  GFN2-xTB          :
 * total energy  :   -40.4380094 Eh     change       -0.3552714E-13 Eh
 * total energy  :   -42.1514150 Eh     change       -0.1713406E+01 Eh
 * total energy  :   -42.1686064 Eh     change       -0.1719140E-01 Eh
 * total energy  :   -42.1725811 Eh     change       -0.3974641E-02 Eh
 * total energy  :   -42.1733044 Eh     change       -0.7232825E-03 Eh
 * total energy  :   -42.1739000 Eh     change       -0.5956578E-03 Eh
 * total energy  :   -42.1745086 Eh     change       -0.6086056E-03 Eh
 * total energy  :   -42.1750334 Eh     change       -0.5248252E-03 Eh
 * total energy  :   -42.1753068 Eh     change       -0.2733744E-03 Eh
   *** GEOMETRY OPTIMIZATION CONVERGED AFTER 9 ITERATIONS ***

 final structure:
================
25
 xtb: 6.6.1 (8d0f1dd)
C            3.30027459809077        1.06897453926954       -0.11290540331126
N            2.42065393464388        0.09574615782371       -0.08275533940009
C            2.56493396396645       -1.16017381284372        0.39417200031329
N            1.38399618426417       -1.84062561020665        0.30384568938930
C            0.44236393079592       -1.07509197044071       -0.26123982313238
C            1.05676348517359        0.23588609873397       -0.57470356157201
C            0.21593157700581        1.33918060193035        0.14442789764886
O            0.72157551385138        2.29110853231763        0.66642692797488
N           -1.12312507782035        1.09053906848230        0.05652310458437
C           -2.04246942916738        2.17531673064696        0.39820353679264
C           -1.73680251807221       -0.12019589756160       -0.27612035998876
O           -2.91695857746081       -0.22241232627756       -0.45432254673868
N           -0.89195888142904       -1.24613514227333       -0.29460741632106
C           -1.49808147774027       -2.56460590970616       -0.22979840321760
H            3.02308668838852        2.02729155460834       -0.50441374664500
H            4.28030647092980        0.90523376463083        0.29429681473856
H            1.02918046421834        0.51868345247490       -1.63543305818235
H            3.47068464299528       -1.56810525501277        0.78727587074238
H           -1.49112976317286        3.11139221741959        0.39064861061016
H           -2.84492002157735        2.19610551564014       -0.33729763956981
H           -2.47298455433341        2.01217847323925        1.38550339693500
H           -1.44273367337824       -2.96957216424412        0.78212765347628
H           -1.00471243070903       -3.23590075006818       -0.93041232768780
H           -2.54620042869806       -2.45725283374133       -0.50630449095558
H            1.26275689333545       -2.78932649324108        0.62803423141706

          :  Hamiltonian                  GFN2-xTB          :
         :: total energy             -42.175306815095 Eh    ::
         :: gradient norm              0.007982392997 Eh/a0 ::
         :: HOMO-LUMO gap              1.593743795385 eV    ::
         :: SCC energy               -42.691790918290 Eh    ::
         :: -> dispersion             -0.023051571986 Eh    ::
         :: repulsion energy           0.516319902859 Eh    ::

    * Orbital Energies and Occupations

         #    Occupation            Energy/Eh            Energy/eV
      -------------------------------------------------------------
         1        2.0000           -0.9067572             -24.6741
       ...           ...                  ...                  ...
        25        2.0000           -0.6771857             -18.4272
        26        2.0000           -0.6728036             -18.3079
        27        2.0000           -0.6644594             -18.0809
        28        2.0000           -0.6605287             -17.9739
        29        1.9999           -0.6369352             -17.3319
        30        1.9999           -0.6329677             -17.2239
        31        1.9998           -0.6283837             -17.0992
        32        1.9993           -0.6074787             -16.5303
        33        1.9991           -0.6042167             -16.4416
        34        1.9974           -0.5870047             -15.9732
        35        1.9953           -0.5775853             -15.7169
        36        1.9920           -0.5693251             -15.4921
        37        1.7255           -0.5110383             -13.9061 (HOMO)
        38        0.2693           -0.4524692             -12.3123 (LUMO)
        39        0.0179           -0.4074127             -11.0863
        40        0.0045           -0.3852695             -10.4837
        41        0.0003           -0.3422177              -9.3122
        42                         -0.2122627              -5.7760
        43                         -0.1910669              -5.1992
        44                         -0.1579580              -4.2983
        45                         -0.1485983              -4.0436
        46                         -0.1063066              -2.8927
        47                         -0.0780554              -2.1240
        48                         -0.0602384              -1.6392
       ...                                ...                  ...
        67                          0.5338144              14.5258
      -------------------------------------------------------------
                  HL-Gap            0.0585690 Eh            1.5937 eV

     #   Z          covCN         q      C6AA      α(0)
     1   6 C        2.789    -0.071    29.757     8.936
     2   7 N        2.780     0.107    19.395     6.541
     3   6 C        2.952    -0.002    28.076     8.691
     4   7 N        2.743    -0.047    22.155     6.991
     5   6 C        2.975     0.090    26.005     8.365
     6   6 C        3.901    -0.009    20.675     6.463
     7   6 C        2.762     0.271    22.420     7.754
     8   8 O        0.857    -0.326    20.259     6.035
     9   7 N        2.736    -0.089    22.970     7.118
    10   6 C        3.708    -0.062    21.841     6.680
    11   6 C        2.723     0.314    21.667     7.620
    12   8 O        0.859    -0.341    20.535     6.076
    13   7 N        2.735    -0.059    22.382     7.026
    14   6 C        3.697    -0.072    22.062     6.718
    15   1 H        0.926     0.119     1.621     1.991
    16   1 H        0.926     0.109     1.705     2.042
    17   1 H        0.923     0.121     1.605     1.981
    18   1 H        0.927     0.115     1.655     2.011
    19   1 H        0.925     0.105     1.743     2.064
    20   1 H        0.925     0.109     1.709     2.044
    21   1 H        0.925     0.094     1.838     2.120
    22   1 H        0.924     0.084     1.939     2.177
    23   1 H        0.925     0.086     1.917     2.165
    24   1 H        0.925     0.127     1.557     1.951
    25   1 H        0.860     0.228     0.975     1.547

Wiberg/Mayer (AO) data.
largest (>0.10) Wiberg bond orders for each atom

     #   Z sym  total        # sym  WBO       # sym  WBO       # sym  WBO
 ---------------------------------------------------------------------------
     1   6 C    3.660 --     2 N    1.427    15 H    0.964    16 H    0.964
                             3 C    0.166
     2   7 N    3.715 --     1 C    1.427     3 C    1.236     6 C    0.978
     3   6 C    3.702 --     2 N    1.236     4 N    1.187    18 H    0.956
                             1 C    0.166     5 C    0.100
     4   7 N    3.559 --     5 C    1.282     3 C    1.187    25 H    0.918
     5   6 C    3.764 --     4 N    1.282    13 N    1.219     6 C    1.016
                             3 C    0.100
     6   6 C    3.964 --     5 C    1.016     2 N    0.978    17 H    0.913
                             7 C    0.866
     7   6 C    3.920 --     8 O    1.766     9 N    1.184     6 C    0.866
     8   8 O    2.108 --     7 C    1.766     9 N    0.158
     9   7 N    3.552 --     7 C    1.184    11 C    1.071    10 C    0.955
                             8 O    0.158    12 O    0.113
    10   6 C    3.913 --    19 H    0.973    21 H    0.969    20 H    0.967
                             9 N    0.955
    11   6 C    3.919 --    12 O    1.719     9 N    1.071    13 N    1.039
    12   8 O    2.040 --    11 C    1.719     9 N    0.113    13 N    0.113
    13   7 N    3.514 --     5 C    1.219    11 C    1.039    14 C    0.968
                            12 O    0.113
    14   6 C    3.921 --    23 H    0.974    13 N    0.968    22 H    0.968
                            24 H    0.964
    15   1 H    0.986 --     1 C    0.964
    16   1 H    0.987 --     1 C    0.964
    17   1 H    0.965 --     6 C    0.913
    18   1 H    0.986 --     3 C    0.956
    19   1 H    0.988 --    10 C    0.973
    20   1 H    0.986 --    10 C    0.967
    21   1 H    0.988 --    10 C    0.969
    22   1 H    0.988 --    14 C    0.968
    23   1 H    0.989 --    14 C    0.974
    24   1 H    0.983 --    14 C    0.964
    25   1 H    0.948 --     4 N    0.918
 ---------------------------------------------------------------------------

molecular dipole:
                 x           y           z       tot (Debye)
 q only:        1.989      -1.687      -0.144
   full:        2.243      -2.022      -0.167       7.688

           -------------------------------------------------
          | TOTAL ENERGY              -42.175306815095 Eh   |
          | GRADIENT NORM               0.007982392997 Eh/α |
          | HOMO-LUMO GAP               1.593743795385 eV   |
           -------------------------------------------------

 * finished run on 2024/06/05 at 20:00:26.924
