   * xtb version 6.6.1 (8d0f1dd) compiled by 'conda@1efc2f54142f' on 2023-08-01
          program call               : xtb struc.xyz --opt loose --input .xc1 --gfn2

   ID    Z sym.   atoms
    1    7 N      1, 17
    2    6 C      2-6, 8, 9, 11-16, 18-23, 25, 26, 28-33
    3    8 O      7, 10, 24, 27
    4    1 H      34-72
constraining bond 24 54 to    3.6333300 Å, actual value:    2.7212264 Å

          :  Hamiltonian                  GFN2-xTB          :
 * total energy  :   -99.5526752 Eh     change       -0.4035485E-08 Eh
 * total energy  :   -99.7993380 Eh     change       -0.2466628E+00 Eh
 * total energy  :  -100.1009234 Eh     change       -0.3015854E+00 Eh
 * total energy  :  -100.4782578 Eh     change       -0.3773345E+00 Eh
 * total energy  :   -98.2881022 Eh     change        0.2190156E+01 Eh
 * total energy  :  -100.5033501 Eh     change       -0.2215248E+01 Eh
 * total energy  :  -100.5516557 Eh     change       -0.4830554E-01 Eh
 * total energy  :  -100.5785588 Eh     change       -0.2690314E-01 Eh
 * total energy  :  -100.5927054 Eh     change       -0.1414659E-01 Eh
 * total energy  :  -100.6135423 Eh     change       -0.2083694E-01 Eh
 * total energy  :  -100.6822306 Eh     change       -0.1936537E-02 Eh
 * total energy  :  -100.6825334 Eh     change       -0.3027930E-03 Eh
 * total energy  :  -100.6830011 Eh     change       -0.4676455E-03 Eh
 * total energy  :  -100.6830914 Eh     change       -0.9032751E-04 Eh
 * total energy  :  -100.6832549 Eh     change       -0.1634678E-03 Eh
 * total energy  :  -100.6833506 Eh     change       -0.9568481E-04 Eh
 * total energy  :  -100.6834432 Eh     change       -0.9263800E-04 Eh
 * total energy  :  -100.6835022 Eh     change       -0.5904334E-04 Eh
 * total energy  :  -100.6835426 Eh     change       -0.4032275E-04 Eh
   *** GEOMETRY OPTIMIZATION CONVERGED AFTER 53 ITERATIONS ***

 final structure:
================
72
 xtb: 6.6.1 (8d0f1dd)
N           -1.80235370797466        2.84226178277162        2.15025604561820
C           -1.81366212988089        2.06640044316823        1.16862290454017
C           -2.98223582861949        1.87962507510665        0.24078481029884
C           -3.47225747648453        0.44260039863630        0.32819545288909
C           -4.38626222342624       -0.03572614954644       -0.61326349935535
C           -4.88285927668028       -1.32578801945900       -0.55016610302021
O           -5.77136407790715       -1.86171217403198       -1.41873206988703
C           -6.32406515898451       -1.04348524505013       -2.42143666435244
C           -4.45474421572678       -2.18925378656550        0.49070653174104
O           -4.99137254642159       -3.43060326005268        0.47627673581599
C           -4.69989990499619       -4.30862370946993        1.53698111787779
C           -3.54899882109375       -1.71008456047641        1.42193191882044
C           -3.06590361111159       -0.40929554153245        1.34138218420893
C           -2.44810257712592        2.17689474530564       -1.18586106013489
C           -1.56154695841308        1.07054578775024       -1.78777667759660
C           -0.22327499542890        1.00134757237321       -1.16384650848534
N            0.40068167746047       -0.11599694901875       -0.78243588360853
C            1.75717602368441       -0.04589116720333       -0.29895545726959
C            2.79476568367070       -0.38191527541722       -1.38888308334701
C            4.15640440479968        0.03335187856886       -0.90363093225925
C            4.55855494934879        1.35630119388653       -1.04058431831516
C            5.77404380572389        1.79610765309521       -0.52982655877784
C            6.52893341075575        0.84669916707564        0.09681453001198
O            7.81935283966486        1.32778016856129        0.69665284294567
C            8.98876048719585        0.89215111906062       -0.03715870352830
C            6.20938195661735       -0.50444432744601        0.25438886018963
O            7.11547420889873       -1.30049383147570        0.88533443412721
C            6.78822898248147       -2.65788588079767        1.08987221813934
C            4.97944406791278       -0.89169802688124       -0.26126526136496
C           -0.21341277547724       -1.41553245706821       -0.90022747050943
C           -4.18244862489129        2.81898528435483        0.55823743045014
C           -4.78047401982639        2.51715000595986        1.93055681115828
C           -3.82762428372433        4.30091540214384        0.46718103116125
H           -4.72405141325519        0.61918926464680       -1.39903053521523
H           -6.83973100323270       -0.17758806921257       -1.99488045128401
H           -7.04476050857617       -1.66893250935138       -2.94453982204329
H           -5.56180493416528       -0.70302195129506       -3.13050659953172
H           -5.00348097502507       -3.88825887379024        2.50062514814464
H           -5.27811344901504       -5.20895059475206        1.33827594803592
H           -3.63528695254145       -4.56297733786245        1.56910763068507
H           -3.21829057710447       -2.33819333125505        2.23328108079831
H           -2.38553317093007       -0.06271482100137        2.10393178030828
H           -3.29793951853358        2.32874312085945       -1.85077719436677
H           -1.88106165353589        3.10831747684338       -1.15977957829543
H           -2.07854417228394        0.11416093498719       -1.73292527594135
H           -1.42861146693995        1.31803241901146       -2.84947702127343
H           -0.94172862804989        1.46559225826437        0.85293495864203
H            0.34686895466496        1.91521214453714       -1.09867578757407
H            1.87560453039830       -0.73218378347922        0.54399736372915
H            1.95279838567555        0.96782019924401        0.05955560955965
H            2.54037371488255        0.17242508565567       -2.29428626355843
H            2.76931705193969       -1.44816172971105       -1.61704729314369
H            3.91660721228590        2.05622455451510       -1.55730556177570
H            7.77879615784895        2.06220672626025        0.70212353415526
H            9.86814888251758        1.30263692413915        0.45606024310742
H            8.94272616555170        1.22930148436139       -1.07383208675918
H            9.01868822509103       -0.19487067677528        0.00346353326197
H            7.63203400426685       -3.08466340447733        1.62816614084180
H            5.88328322112566       -2.76165372338546        1.69371234226570
H            6.65945616857481       -3.18183453792543        0.13870871830935
H            4.65396114599905       -1.91589840893358       -0.17510185056416
H           -0.39728201344702       -1.67269647391189       -1.94576804566836
H           -1.16406761865438       -1.44094615066072       -0.36064955288005
H            0.44793128784548       -2.16383852491160       -0.47132985548931
H           -4.94927411781322        2.60628718267367       -0.19583905051130
H           -4.05732461111487        2.74066447375251        2.70803363862834
H           -5.07432012341952        1.47332479895095        2.00956341584115
H           -5.66163844209156        3.13365434291053        2.08787042655397
H           -3.04596844102281        4.54324842602218        1.18002793235737
H           -3.50254804415124        4.58031372924860       -0.53141838063158
H           -4.70620198499868        4.89328071574158        0.70919585663518
H           -0.94085497577123        2.90020084623991        2.68567413908751

          :  Hamiltonian                  GFN2-xTB          :
         :: total energy            -100.683542567850 Eh    ::
         :: gradient norm              0.003092259315 Eh/a0 ::
         :: HOMO-LUMO gap              1.134872748328 eV    ::
         :: SCC energy              -100.666719143760 Eh    ::
         :: -> dispersion             -0.075745523117 Eh    ::
         :: repulsion energy           1.481130310079 Eh    ::

    * Orbital Energies and Occupations

         #    Occupation            Energy/Eh            Energy/eV
      -------------------------------------------------------------
         1        2.0000           -0.8991733             -24.4678
       ...           ...                  ...                  ...
        78        1.9994           -0.5192710             -14.1301
        79        1.9991           -0.5128954             -13.9566
        80        1.9990           -0.5114952             -13.9185
        81        1.9985           -0.5051093             -13.7447
        82        1.9976           -0.4983021             -13.5595
        83        1.9973           -0.4959868             -13.4965
        84        1.9967           -0.4928428             -13.4109
        85        1.9958           -0.4893170             -13.3150
        86        1.9879           -0.4723276             -12.8527
        87        1.9848           -0.4687298             -12.7548
        88        1.9581           -0.4524826             -12.3127
        89        1.9207           -0.4420643             -12.0292
        90        1.6334           -0.4152496             -11.2995 (HOMO)
        91        0.4847           -0.3735438             -10.1646 (LUMO)
        92        0.0207           -0.3193550              -8.6901
        93        0.0149           -0.3141220              -8.5477
        94        0.0055           -0.2982191              -8.1150
        95        0.0052           -0.2974615              -8.0943
        96        0.0043           -0.2945485              -8.0151
        97        0.0000           -0.1987698              -5.4088
        98        0.0000           -0.1785542              -4.8587
        99        0.0000           -0.1719273              -4.6784
       100                         -0.1173794              -3.1941
       101                         -0.0940831              -2.5601
       ...                                ...                  ...
       171                          0.7099100              19.3176
      -------------------------------------------------------------
                  HL-Gap            0.0417058 Eh            1.1349 eV

     #   Z          covCN         q      C6AA      α(0)
     1   7 N        1.773    -0.282    28.118     7.852
     2   6 C        2.827     0.100    25.767     8.318
     3   6 C        3.907     0.006    20.421     6.423
     4   6 C        2.975     0.000    28.023     8.683
     5   6 C        2.921    -0.081    30.026     8.986
     6   6 C        2.863     0.126    25.230     8.233
     7   8 O        1.706    -0.239    17.960     5.722
     8   6 C        3.645     0.031    20.393     6.491
     9   6 C        2.864     0.125    25.255     8.237
    10   8 O        1.706    -0.238    17.949     5.720
    11   6 C        3.645     0.030    20.397     6.491
    12   6 C        2.914    -0.076    29.893     8.966
    13   6 C        2.922    -0.054    29.347     8.884
    14   6 C        3.812    -0.063    21.698     6.630
    15   6 C        3.802    -0.067    21.783     6.645
    16   6 C        2.844    -0.002    28.072     8.683
    17   7 N        2.728    -0.003    21.318     6.857
    18   6 C        3.757    -0.012    20.836     6.508
    19   6 C        3.808    -0.068    21.805     6.647
    20   6 C        2.969     0.001    28.006     8.680
    21   6 C        2.942    -0.040    28.996     8.832
    22   6 C        1.980    -0.204    37.021     9.826
    23   6 C        2.871     0.050    26.871     8.497
    24   8 O        2.489    -0.129    16.220     5.439
    25   6 C        3.627    -0.021    21.379     6.660
    26   6 C        2.854     0.128    25.196     8.227
    27   8 O        1.704    -0.275    18.563     5.817
    28   6 C        3.644     0.032    20.367     6.487
    29   6 C        2.932    -0.084    30.106     8.998
    30   6 C        3.698    -0.065    21.914     6.696
    31   6 C        3.853    -0.007    20.670     6.466
    32   6 C        3.756    -0.117    22.791     6.807
    33   6 C        3.755    -0.118    22.816     6.811
    34   1 H        0.926     0.048     2.341     2.393
    35   1 H        0.924     0.050     2.321     2.383
    36   1 H        0.925     0.076     2.017     2.221
    37   1 H        0.924     0.043     2.408     2.427
    38   1 H        0.924     0.051     2.313     2.378
    39   1 H        0.925     0.076     2.020     2.222
    40   1 H        0.924     0.044     2.401     2.423
    41   1 H        0.926     0.047     2.360     2.402
    42   1 H        0.926     0.035     2.511     2.478
    43   1 H        0.925     0.056     2.244     2.342
    44   1 H        0.924     0.050     2.315     2.379
    45   1 H        0.925     0.063     2.162     2.299
    46   1 H        0.923     0.071     2.073     2.252
    47   1 H        0.922     0.001     3.043     2.728
    48   1 H        0.926     0.062     2.176     2.307
    49   1 H        0.924     0.060     2.203     2.321
    50   1 H        0.924     0.065     2.144     2.290
    51   1 H        0.924     0.053     2.277     2.360
    52   1 H        0.924     0.048     2.343     2.394
    53   1 H        0.926     0.034     2.533     2.489
    54   1 H        0.811     0.362     0.560     1.174
    55   1 H        0.925     0.102     1.765     2.077
    56   1 H        0.924     0.097     1.815     2.107
    57   1 H        0.925     0.126     1.567     1.957
    58   1 H        0.925     0.070     2.087     2.259
    59   1 H        0.924     0.047     2.353     2.399
    60   1 H        0.924     0.048     2.349     2.397
    61   1 H        0.926     0.039     2.456     2.451
    62   1 H        0.924     0.071     2.071     2.250
    63   1 H        0.924     0.075     2.028     2.227
    64   1 H        0.925     0.074     2.041     2.234
    65   1 H        0.924     0.033     2.544     2.494
    66   1 H        0.925     0.065     2.141     2.288
    67   1 H        0.925     0.033     2.539     2.492
    68   1 H        0.925     0.047     2.363     2.404
    69   1 H        0.925     0.061     2.185     2.312
    70   1 H        0.925     0.032     2.559     2.502
    71   1 H        0.925     0.050     2.322     2.383
    72   1 H        0.860     0.148     1.413     1.862

Wiberg/Mayer (AO) data.
largest (>0.10) Wiberg bond orders for each atom

     #   Z sym  total        # sym  WBO       # sym  WBO       # sym  WBO
 ---------------------------------------------------------------------------
     1   7 N    3.027 --     2 C    1.946    72 H    0.946
     2   6 C    3.926 --     1 N    1.946     3 C    0.996    47 H    0.910
     3   6 C    3.980 --     2 C    0.996     4 C    0.971    14 C    0.956
                            31 C    0.946
     4   6 C    3.960 --    13 C    1.423     5 C    1.365     3 C    0.971
     5   6 C    3.968 --     6 C    1.407     4 C    1.365    34 H    0.958
     6   6 C    3.915 --     5 C    1.407     9 C    1.233     7 O    1.087
     7   8 O    2.250 --     6 C    1.087     8 C    0.981
     8   6 C    3.937 --     7 O    0.981    36 H    0.977    35 H    0.975
                            37 H    0.975
     9   6 C    3.912 --    12 C    1.400     6 C    1.233    10 O    1.088
    10   8 O    2.248 --     9 C    1.088    11 C    0.981
    11   6 C    3.937 --    10 O    0.981    39 H    0.978    38 H    0.975
                            40 H    0.975
    12   6 C    3.969 --     9 C    1.400    13 C    1.399    41 H    0.964
    13   6 C    3.965 --     4 C    1.423    12 C    1.399    42 H    0.963
    14   6 C    3.971 --    15 C    0.981    44 H    0.973    43 H    0.969
                             3 C    0.956
    15   6 C    3.989 --    16 C    1.060    14 C    0.981    45 H    0.961
                            46 H    0.932
    16   6 C    3.528 --    17 N    1.361    15 C    1.060    48 H    0.959
    17   7 N    3.437 --    16 C    1.361    30 C    1.001    18 C    0.992
    18   6 C    3.962 --    17 N    0.992    19 C    0.967    50 H    0.967
                            49 H    0.966
    19   6 C    3.972 --    20 C    1.005    52 H    0.974    51 H    0.971
                            18 C    0.967
    20   6 C    3.942 --    21 C    1.420    29 C    1.386    19 C    1.005
    21   6 C    3.949 --    20 C    1.420    22 C    1.369    53 H    0.964
    22   6 C    3.007 --    23 C    1.450    21 C    1.369    29 C    0.102
    23   6 C    3.721 --    22 C    1.450    26 C    1.300    24 O    0.753
    24   8 O    2.583 --    25 C    0.902    54 H    0.855    23 C    0.753
    25   6 C    3.858 --    56 H    0.978    55 H    0.974    57 H    0.972
                            24 O    0.902
    26   6 C    3.906 --    29 C    1.381    23 C    1.300    27 O    1.060
    27   8 O    2.222 --    26 C    1.060    28 C    0.975
    28   6 C    3.937 --    58 H    0.979    59 H    0.977    60 H    0.977
                            27 O    0.975
    29   6 C    3.966 --    20 C    1.386    26 C    1.381    61 H    0.962
                            22 C    0.102
    30   6 C    3.961 --    17 N    1.001    64 H    0.979    62 H    0.969
                            63 H    0.963
    31   6 C    3.978 --    33 C    1.009    32 C    1.009    65 H    0.963
                             3 C    0.946
    32   6 C    3.985 --    31 C    1.009    68 H    0.983    67 H    0.983
                            66 H    0.977
    33   6 C    3.987 --    31 C    1.009    70 H    0.984    71 H    0.982
                            69 H    0.977
    34   1 H    0.997 --     5 C    0.958
    35   1 H    0.995 --     8 C    0.975
    36   1 H    0.994 --     8 C    0.977
    37   1 H    0.996 --     8 C    0.975
    38   1 H    0.995 --    11 C    0.975
    39   1 H    0.994 --    11 C    0.978
    40   1 H    0.995 --    11 C    0.975
    41   1 H    0.996 --    12 C    0.964
    42   1 H    0.998 --    13 C    0.963
    43   1 H    0.995 --    14 C    0.969
    44   1 H    0.997 --    14 C    0.973
    45   1 H    0.995 --    15 C    0.961
    46   1 H    0.969 --    15 C    0.932
    47   1 H    0.991 --     2 C    0.910
    48   1 H    0.996 --    16 C    0.959
    49   1 H    0.992 --    18 C    0.966
    50   1 H    0.994 --    18 C    0.967
    51   1 H    0.996 --    19 C    0.971
    52   1 H    0.996 --    19 C    0.974
    53   1 H    0.992 --    21 C    0.964
    54   1 H    0.868 --    24 O    0.855
    55   1 H    0.988 --    25 C    0.974
    56   1 H    0.991 --    25 C    0.978
    57   1 H    0.984 --    25 C    0.972
    58   1 H    0.994 --    28 C    0.979
    59   1 H    0.997 --    28 C    0.977
    60   1 H    0.997 --    28 C    0.977
    61   1 H    0.995 --    29 C    0.962
    62   1 H    0.985 --    30 C    0.969
    63   1 H    0.986 --    30 C    0.963
    64   1 H    0.994 --    30 C    0.979
    65   1 H    0.995 --    31 C    0.963
    66   1 H    0.993 --    32 C    0.977
    67   1 H    0.998 --    32 C    0.983
    68   1 H    0.996 --    32 C    0.983
    69   1 H    0.994 --    33 C    0.977
    70   1 H    0.998 --    33 C    0.984
    71   1 H    0.995 --    33 C    0.982
    72   1 H    0.974 --     1 N    0.946
 ---------------------------------------------------------------------------

molecular dipole:
                 x           y           z       tot (Debye)
 q only:        5.567       0.184      -0.458
   full:        5.821      -0.295      -0.455      14.860

           -------------------------------------------------
          | TOTAL ENERGY             -100.683542567850 Eh   |
          | GRADIENT NORM               0.003092259315 Eh/α |
          | HOMO-LUMO GAP               1.134872748328 eV   |
           -------------------------------------------------

 * finished run on 2024/04/06 at 11:17:10.308
