   * xtb version 6.6.1 (8d0f1dd) compiled by 'conda@1efc2f54142f' on 2023-08-01
          program call               : xtb xtbopt.xyz --opt crude --input .xc2 --gfn2

   ID    Z sym.   atoms
    1    7 N      1, 17
    2    6 C      2-6, 8, 9, 11-16, 18-23, 25, 26, 28-33
    3    8 O      7, 10, 24, 27
    4    1 H      34-72
########################################################################
[WARNING] Please study the warnings concerning your input carefully
-1- readin_getIntValue: could not parse ''
########################################################################

          :  Hamiltonian                  GFN2-xTB          :
 * total energy  :   -99.1842247 Eh     change       -0.5718448E-10 Eh
 * total energy  :   -99.2715279 Eh     change       -0.8730319E-01 Eh
 * total energy  :   -99.2722557 Eh     change       -0.7277985E-03 Eh
 * total energy  :   -99.2724992 Eh     change       -0.2434351E-03 Eh
   *** GEOMETRY OPTIMIZATION CONVERGED AFTER 4 ITERATIONS ***

 final structure:
================
72
 xtb: 6.6.1 (8d0f1dd)
N           -1.80512295668951        2.84359957455868        2.14962431457055
C           -1.81650443995641        2.06781744134642        1.16787651543027
C           -2.98473185786347        1.88045504946661        0.23986137895254
C           -3.47389261813072        0.44314919332039        0.32725251955910
C           -4.38757676290099       -0.03606381963078       -0.61409642170858
C           -4.88292720414655       -1.32658612059913       -0.55071375524891
O           -5.77108374962218       -1.86381229871517       -1.41887882506871
C           -6.32483677204389       -1.04685984560805       -2.42201336612561
C           -4.45383202424938       -2.18957941073424        0.49014033946916
O           -4.98916603820079       -3.43150554075462        0.47568722496938
C           -4.69652595110762       -4.30925074736683        1.53629889505065
C           -3.54875145281562       -1.70939338438375        1.42143066105615
C           -3.06701954324247       -0.40812081889531        1.34073420765403
C           -2.44959900887891        2.17800282154917       -1.18630971524604
C           -1.56045584179139        1.07280697255896       -1.78654745003560
C           -0.22320952511085        1.00434596655843       -1.15989790339828
N            0.40158056753128       -0.11315932821122       -0.78031769348714
C            1.75743598529644       -0.04333000254756       -0.29478056868504
C            2.79586951496832       -0.37338029520877       -1.38518882262315
C            4.16041781518631        0.03177237358111       -0.89798290448107
C            4.57319618316362        1.35275362713048       -1.03021845007127
C            5.79291486802190        1.78316043642981       -0.52029943672390
C            6.54310830968132        0.82549605164240        0.09992916511456
O            7.82450564878172        1.28271307489338        0.70264253846433
C            8.99547229807589        0.88324179052519       -0.04411515336319
C            6.21040144193412       -0.52483600785196        0.25076471096087
O            7.11577763015344       -1.32515181747966        0.87721922753651
C            6.78285804173596       -2.67960748272869        1.08827813868874
C            4.97591479317611       -0.90286355370513       -0.26086539554918
C           -0.21367642549865       -1.41228944183723       -0.89779368232116
C           -4.18561481612318        2.81909630130021        0.55691774571584
C           -4.78278813308616        2.51756784794033        1.92967434944134
C           -3.83193013059503        4.30125082055769        0.46487957555198
H           -4.72624102981927        0.61847282336001       -1.39982506182704
H           -6.84248493054665       -0.18187874173642       -1.99596323906356
H           -7.04400519586015       -1.67393113277011       -2.94533545444147
H           -5.56287355793920       -0.70507172472648       -3.13073936937867
H           -4.99918836369440       -3.88866433425670        2.50012770141750
H           -5.27482736738955       -5.20966079761595        1.33831780405930
H           -3.63184215853403       -4.56343816042289        1.56741644812244
H           -3.21738828645683       -2.33706324849355        2.23283007663237
H           -2.38720261713890       -0.06064552337282        2.10337442267029
H           -3.29878271525945        2.32810609148457       -1.85242727829726
H           -1.88410329003705        3.11033482179980       -1.15989660191880
H           -2.07689453175744        0.11603945111762       -1.73328752812840
H           -1.42534507019436        1.32093116587488       -2.84785618913112
H           -0.94413379621646        1.46819208182844        0.85109287691783
H            0.34712322672042        1.91819298081537       -1.09542238606246
H            1.87537457653698       -0.73348583414583        0.54498901684219
H            1.95138410087804        0.96863642037457        0.06893904088996
H            2.54304093988679        0.18714966800385       -2.28718397121889
H            2.76733217177019       -1.43796556393767       -1.62050460850502
H            3.93301147684035        2.05867121709827       -1.54081686770056
H            7.75455552209873        2.25818873514174        0.69018714711622
H            9.86975191444880        1.31392333830770        0.44070393839437
H            8.93184655450745        1.21079956237651       -1.08276062633237
H            9.05180293734385       -0.20427423132957       -0.00011182249938
H            7.62759208838120       -3.10838521638677        1.62386483001906
H            5.88049109263540       -2.77620424558589        1.69777006106085
H            6.64631900915525       -3.20667379106971        0.13976403600156
H            4.64116584737803       -1.92480324277285       -0.17556011643077
H           -0.39871717071195       -1.66885742768668       -1.94327092998837
H           -1.16386719765445       -1.43708825047294       -0.35740958606003
H            0.44749861211128       -2.16139149945559       -0.46998337167568
H           -4.95257516194538        2.60532813883808       -0.19670693469866
H           -4.05903120290323        2.74078957772337        2.70665481275626
H           -5.07709290145342        1.47389327886992        2.00902983406684
H           -5.66355422992136        3.13448020702716        2.08764716194121
H           -3.04890630964392        4.54416324744658        1.17606559940693
H           -3.50928088008617        4.58065669189637       -0.53456809710806
H           -4.71048381958970        4.89296164118841        0.70873749036502
H           -0.94316053457765        2.90227192106308        2.68419062036083

          :  Hamiltonian                  GFN2-xTB          :
         :: total energy             -99.272499173774 Eh    ::
         :: gradient norm              0.006926176198 Eh/a0 ::
         :: HOMO-LUMO gap              1.143124201999 eV    ::
         :: SCC energy              -100.641509640032 Eh    ::
         :: -> dispersion             -0.075737248547 Eh    ::
         :: repulsion energy           1.367650915344 Eh    ::

    * Orbital Energies and Occupations

         #    Occupation            Energy/Eh            Energy/eV
      -------------------------------------------------------------
         1        2.0000           -0.8860564             -24.1108
       ...           ...                  ...                  ...
        78        1.9994           -0.5190327             -14.1236
        79        1.9991           -0.5129113             -13.9570
        80        1.9990           -0.5114815             -13.9181
        81        1.9985           -0.5050906             -13.7442
        82        1.9976           -0.4983029             -13.5595
        83        1.9973           -0.4959783             -13.4963
        84        1.9967           -0.4928433             -13.4109
        85        1.9953           -0.4874258             -13.2635
        86        1.9879           -0.4722924             -12.8517
        87        1.9834           -0.4672915             -12.7156
        88        1.9584           -0.4525145             -12.3135
        89        1.9208           -0.4420247             -12.0281
        90        1.6380           -0.4154482             -11.3049 (HOMO)
        91        0.4834           -0.3734391             -10.1618 (LUMO)
        92        0.0207           -0.3193717              -8.6905
        93        0.0136           -0.3126337              -8.5072
        94        0.0055           -0.2981767              -8.1138
        95        0.0048           -0.2962297              -8.0608
        96        0.0044           -0.2945107              -8.0140
        97        0.0000           -0.1994562              -5.4275
        98        0.0000           -0.1776798              -4.8349
        99        0.0000           -0.1718836              -4.6772
       100                         -0.1173954              -3.1945
       101                         -0.0886098              -2.4112
       ...                                ...                  ...
       171                          0.5915873              16.0979
      -------------------------------------------------------------
                  HL-Gap            0.0420090 Eh            1.1431 eV

     #   Z          covCN         q      C6AA      α(0)
     1   7 N        1.773    -0.282    28.119     7.852
     2   6 C        2.827     0.100    25.767     8.318
     3   6 C        3.907     0.006    20.420     6.423
     4   6 C        2.975     0.000    28.024     8.683
     5   6 C        2.921    -0.081    30.025     8.986
     6   6 C        2.863     0.126    25.230     8.233
     7   8 O        1.706    -0.239    17.960     5.722
     8   6 C        3.645     0.031    20.393     6.491
     9   6 C        2.865     0.125    25.254     8.237
    10   8 O        1.706    -0.238    17.949     5.720
    11   6 C        3.645     0.030    20.397     6.491
    12   6 C        2.914    -0.076    29.893     8.966
    13   6 C        2.922    -0.054    29.347     8.884
    14   6 C        3.812    -0.063    21.698     6.630
    15   6 C        3.802    -0.067    21.783     6.645
    16   6 C        2.844    -0.002    28.069     8.683
    17   7 N        2.728    -0.003    21.319     6.858
    18   6 C        3.757    -0.012    20.834     6.508
    19   6 C        3.808    -0.068    21.801     6.647
    20   6 C        2.968     0.000    28.019     8.682
    21   6 C        2.942    -0.040    28.997     8.832
    22   6 C        1.979    -0.209    37.183     9.847
    23   6 C        2.873     0.054    26.791     8.485
    24   8 O        2.487    -0.124    16.147     5.427
    25   6 C        3.627    -0.016    21.290     6.647
    26   6 C        2.855     0.129    25.172     8.223
    27   8 O        1.704    -0.275    18.556     5.816
    28   6 C        3.644     0.033    20.353     6.485
    29   6 C        2.930    -0.084    30.107     8.999
    30   6 C        3.698    -0.065    21.913     6.695
    31   6 C        3.853    -0.007    20.670     6.466
    32   6 C        3.756    -0.117    22.792     6.807
    33   6 C        3.755    -0.118    22.815     6.811
    34   1 H        0.926     0.048     2.341     2.393
    35   1 H        0.924     0.050     2.322     2.383
    36   1 H        0.925     0.076     2.017     2.221
    37   1 H        0.924     0.043     2.408     2.427
    38   1 H        0.924     0.051     2.313     2.378
    39   1 H        0.925     0.076     2.020     2.222
    40   1 H        0.924     0.044     2.401     2.423
    41   1 H        0.926     0.047     2.360     2.402
    42   1 H        0.926     0.035     2.511     2.478
    43   1 H        0.925     0.056     2.244     2.343
    44   1 H        0.924     0.050     2.316     2.380
    45   1 H        0.925     0.063     2.162     2.299
    46   1 H        0.923     0.071     2.074     2.252
    47   1 H        0.922     0.001     3.040     2.727
    48   1 H        0.926     0.062     2.176     2.307
    49   1 H        0.924     0.060     2.204     2.322
    50   1 H        0.924     0.064     2.147     2.291
    51   1 H        0.924     0.053     2.284     2.363
    52   1 H        0.924     0.048     2.346     2.395
    53   1 H        0.926     0.032     2.551     2.498
    54   1 H        0.803     0.367     0.550     1.166
    55   1 H        0.925     0.099     1.796     2.096
    56   1 H        0.924     0.093     1.851     2.127
    57   1 H        0.925     0.123     1.588     1.971
    58   1 H        0.925     0.069     2.094     2.263
    59   1 H        0.924     0.047     2.364     2.404
    60   1 H        0.924     0.047     2.358     2.402
    61   1 H        0.926     0.039     2.468     2.457
    62   1 H        0.924     0.071     2.071     2.250
    63   1 H        0.924     0.075     2.029     2.227
    64   1 H        0.925     0.074     2.041     2.234
    65   1 H        0.924     0.033     2.544     2.494
    66   1 H        0.925     0.065     2.141     2.288
    67   1 H        0.925     0.033     2.539     2.492
    68   1 H        0.925     0.047     2.363     2.404
    69   1 H        0.925     0.061     2.186     2.312
    70   1 H        0.925     0.032     2.559     2.502
    71   1 H        0.925     0.050     2.322     2.383
    72   1 H        0.860     0.148     1.413     1.862

Wiberg/Mayer (AO) data.
largest (>0.10) Wiberg bond orders for each atom

     #   Z sym  total        # sym  WBO       # sym  WBO       # sym  WBO
 ---------------------------------------------------------------------------
     1   7 N    3.027 --     2 C    1.945    72 H    0.946
     2   6 C    3.925 --     1 N    1.945     3 C    0.996    47 H    0.909
     3   6 C    3.980 --     2 C    0.996     4 C    0.971    14 C    0.956
                            31 C    0.946
     4   6 C    3.960 --    13 C    1.423     5 C    1.365     3 C    0.971
     5   6 C    3.968 --     6 C    1.407     4 C    1.365    34 H    0.958
     6   6 C    3.915 --     5 C    1.407     9 C    1.233     7 O    1.087
     7   8 O    2.250 --     6 C    1.087     8 C    0.981
     8   6 C    3.937 --     7 O    0.981    36 H    0.977    35 H    0.975
                            37 H    0.975
     9   6 C    3.912 --    12 C    1.400     6 C    1.233    10 O    1.088
    10   8 O    2.248 --     9 C    1.088    11 C    0.981
    11   6 C    3.937 --    10 O    0.981    39 H    0.978    38 H    0.975
                            40 H    0.975
    12   6 C    3.969 --     9 C    1.400    13 C    1.399    41 H    0.964
    13   6 C    3.965 --     4 C    1.423    12 C    1.399    42 H    0.963
    14   6 C    3.971 --    15 C    0.981    44 H    0.973    43 H    0.969
                             3 C    0.956
    15   6 C    3.989 --    16 C    1.060    14 C    0.981    45 H    0.961
                            46 H    0.932
    16   6 C    3.529 --    17 N    1.361    15 C    1.060    48 H    0.959
    17   7 N    3.437 --    16 C    1.361    30 C    1.001    18 C    0.992
    18   6 C    3.962 --    17 N    0.992    19 C    0.967    50 H    0.967
                            49 H    0.966
    19   6 C    3.972 --    20 C    1.004    52 H    0.974    51 H    0.971
                            18 C    0.967
    20   6 C    3.943 --    21 C    1.419    29 C    1.387    19 C    1.004
    21   6 C    3.949 --    20 C    1.419    22 C    1.371    53 H    0.964
    22   6 C    3.017 --    23 C    1.449    21 C    1.371    29 C    0.102
    23   6 C    3.733 --    22 C    1.449    26 C    1.298    24 O    0.771
    24   8 O    2.586 --    25 C    0.908    54 H    0.834    23 C    0.771
    25   6 C    3.865 --    56 H    0.979    55 H    0.975    57 H    0.970
                            24 O    0.908
    26   6 C    3.906 --    29 C    1.381    23 C    1.298    27 O    1.060
    27   8 O    2.221 --    26 C    1.060    28 C    0.976
    28   6 C    3.937 --    58 H    0.979    59 H    0.977    60 H    0.977
                            27 O    0.976
    29   6 C    3.966 --    20 C    1.387    26 C    1.381    61 H    0.962
                            22 C    0.102
    30   6 C    3.961 --    17 N    1.001    64 H    0.979    62 H    0.969
                            63 H    0.963
    31   6 C    3.978 --    33 C    1.009    32 C    1.009    65 H    0.963
                             3 C    0.946
    32   6 C    3.985 --    31 C    1.009    68 H    0.983    67 H    0.983
                            66 H    0.977
    33   6 C    3.987 --    31 C    1.009    70 H    0.984    71 H    0.982
                            69 H    0.977
    34   1 H    0.997 --     5 C    0.958
    35   1 H    0.995 --     8 C    0.975
    36   1 H    0.994 --     8 C    0.977
    37   1 H    0.996 --     8 C    0.975
    38   1 H    0.995 --    11 C    0.975
    39   1 H    0.994 --    11 C    0.978
    40   1 H    0.995 --    11 C    0.975
    41   1 H    0.996 --    12 C    0.964
    42   1 H    0.998 --    13 C    0.963
    43   1 H    0.995 --    14 C    0.969
    44   1 H    0.997 --    14 C    0.973
    45   1 H    0.995 --    15 C    0.961
    46   1 H    0.969 --    15 C    0.932
    47   1 H    0.991 --     2 C    0.909
    48   1 H    0.996 --    16 C    0.959
    49   1 H    0.992 --    18 C    0.966
    50   1 H    0.994 --    18 C    0.967
    51   1 H    0.996 --    19 C    0.971
    52   1 H    0.996 --    19 C    0.974
    53   1 H    0.992 --    21 C    0.964
    54   1 H    0.863 --    24 O    0.834
    55   1 H    0.989 --    25 C    0.975
    56   1 H    0.991 --    25 C    0.979
    57   1 H    0.985 --    25 C    0.970
    58   1 H    0.994 --    28 C    0.979
    59   1 H    0.997 --    28 C    0.977
    60   1 H    0.997 --    28 C    0.977
    61   1 H    0.995 --    29 C    0.962
    62   1 H    0.985 --    30 C    0.969
    63   1 H    0.986 --    30 C    0.963
    64   1 H    0.994 --    30 C    0.979
    65   1 H    0.995 --    31 C    0.963
    66   1 H    0.993 --    32 C    0.977
    67   1 H    0.998 --    32 C    0.983
    68   1 H    0.996 --    32 C    0.983
    69   1 H    0.994 --    33 C    0.977
    70   1 H    0.998 --    33 C    0.984
    71   1 H    0.995 --    33 C    0.982
    72   1 H    0.974 --     1 N    0.946
 ---------------------------------------------------------------------------

molecular dipole:
                 x           y           z       tot (Debye)
 q only:        5.564       0.350      -0.443
   full:        5.816      -0.182      -0.466      14.838

           -------------------------------------------------
          | TOTAL ENERGY              -99.272499173774 Eh   |
          | GRADIENT NORM               0.006926176198 Eh/α |
          | HOMO-LUMO GAP               1.143124201999 eV   |
           -------------------------------------------------

 * finished run on 2024/04/06 at 11:17:11.256
