   * xtb version 6.6.1 (8d0f1dd) compiled by 'conda@1efc2f54142f' on 2023-08-01
          program call               : xtb struc.xyz --opt loose --input .xc1 --gfn2

   ID    Z sym.   atoms
    1    6 C      1, 3, 5-7, 10, 11, 14
    2    7 N      2, 4, 9, 13
    3    8 O      8, 12
    4    1 H      15-25
constraining bond 7 19 to    5.1400000 Å, actual value:    2.4428892 Å

          :  Hamiltonian                  GFN2-xTB          :
 * total energy  :   -29.2591719 Eh     change       -0.6650680E-10 Eh
 * total energy  :   -33.9270143 Eh     change       -0.4667842E+01 Eh
 * total energy  :   -37.5393868 Eh     change       -0.3612373E+01 Eh
 * total energy  :   -39.7721786 Eh     change       -0.2232792E+01 Eh
 * total energy  :   -41.0505534 Eh     change       -0.1278375E+01 Eh
 * total energy  :   -41.5801264 Eh     change       -0.5295730E+00 Eh
 * total energy  :   -41.7411537 Eh     change       -0.1610273E+00 Eh
 * total energy  :   -41.8257417 Eh     change       -0.8458800E-01 Eh
 * total energy  :   -41.8712852 Eh     change       -0.4554351E-01 Eh
 * total energy  :   -41.8942855 Eh     change       -0.2300026E-01 Eh
 * total energy  :   -42.1019075 Eh     change       -0.3363325E-03 Eh
 * total energy  :   -42.1027763 Eh     change       -0.8688091E-03 Eh
 * total energy  :   -42.1028115 Eh     change       -0.3521879E-04 Eh
 * total energy  :   -42.1033723 Eh     change       -0.5607821E-03 Eh
 * total energy  :   -42.1036789 Eh     change       -0.3066091E-03 Eh
 * total energy  :   -42.1038687 Eh     change       -0.1898283E-03 Eh
 * total energy  :   -42.1039495 Eh     change       -0.8072631E-04 Eh
 * total energy  :   -42.1040065 Eh     change       -0.5701985E-04 Eh
 * total energy  :   -42.1040352 Eh     change       -0.2876743E-04 Eh
   *** GEOMETRY OPTIMIZATION CONVERGED AFTER 46 ITERATIONS ***

 final structure:
================
25
 xtb: 6.6.1 (8d0f1dd)
C            3.23309108556732        1.07646251595029       -0.03652725963643
N            2.29854999257352       -0.01699353442342       -0.03016324733532
C            2.58995122821612       -1.31469078885070       -0.00716104676842
N            1.44774262141533       -2.04101934916269        0.01536471102194
C            0.39611938142044       -1.17423654706033        0.00817243103794
C            0.92567637405883        0.10989776387004       -0.01943499247532
C            0.10262088888703        1.28089013317386       -0.04623638001677
O            0.45760595810317        2.43680076938359       -0.10417455865943
N           -1.29355079206034        0.93834779083496       -0.00232811321004
C           -2.17201088417750        1.95039305118800       -0.00498916111012
C           -1.83475270172468       -0.37973756185037        0.03584300491611
O           -3.01998986346022       -0.56367330205390        0.07460181194883
N           -0.92651503807324       -1.43495635835469        0.02244240640373
C           -1.43297367730433       -2.79514283024310        0.03211878538483
H            3.69617202801229        1.18511769727407        0.94586368634731
H            4.01401883497864        0.90190465446772       -0.77561216830869
H            2.69751120303249        1.99501732653016       -0.27334549056656
H            3.57713133121880       -1.73239782699255       -0.00819704741541
H           -3.26446423163492        5.16181192638168        0.08278875196685
H           -1.78421259208614        2.95075812075290       -0.03636706525122
H           -3.21952569683317        1.72388229840299        0.02324493334043
H           -1.12487223210676       -3.31100884471933        0.94179433328989
H           -1.08115684073588       -3.33530571406763       -0.84705635358523
H           -2.52037024360192       -2.74437597106963        0.00661609603365
H            1.39863538041507       -3.04950687776184        0.03391355054749

          :  Hamiltonian                  GFN2-xTB          :
         :: total energy             -42.104035244295 Eh    ::
         :: gradient norm              0.002620254537 Eh/a0 ::
         :: HOMO-LUMO gap              0.069308099306 eV    ::
         :: SCC energy               -42.625054894946 Eh    ::
         :: -> dispersion             -0.022590873333 Eh    ::
         :: repulsion energy           0.520945514545 Eh    ::

    * Orbital Energies and Occupations

         #    Occupation            Energy/Eh            Energy/eV
      -------------------------------------------------------------
         1        2.0000           -0.9102870             -24.7702
       ...           ...                  ...                  ...
        25        2.0000           -0.6705278             -18.2460
        26        2.0000           -0.6682813             -18.1849
        27        2.0000           -0.6619219             -18.0118
        28        1.9999           -0.6326066             -17.2141
        29        1.9999           -0.6290700             -17.1179
        30        1.9999           -0.6272306             -17.0678
        31        1.9998           -0.6181218             -16.8199
        32        1.9997           -0.6134319             -16.6923
        33        1.9997           -0.6123635             -16.6633
        34        1.9982           -0.5843950             -15.9022
        35        1.9942           -0.5656517             -15.3922
        36        1.9904           -0.5577109             -15.1761
        37        0.9793           -0.4725647             -12.8591 (HOMO)
        38        0.8992           -0.4700177             -12.7898 (LUMO)
        39        0.1189           -0.4295022             -11.6873
        40        0.0178           -0.3985561             -10.8453
        41        0.0032           -0.3711090             -10.0984
        42        0.0000           -0.2865684              -7.7979
        43        0.0000           -0.2071911              -5.6380
        44                         -0.1960589              -5.3350
        45                         -0.1499277              -4.0797
        46                         -0.1444054              -3.9295
        47                         -0.0779634              -2.1215
        48                         -0.0532605              -1.4493
       ...                                ...                  ...
        67                          0.5495791              14.9548
      -------------------------------------------------------------
                  HL-Gap            0.0025470 Eh            0.0693 eV

     #   Z          covCN         q      C6AA      α(0)
     1   6 C        3.691    -0.093    22.477     6.784
     2   7 N        2.830     0.077    19.899     6.625
     3   6 C        3.049     0.047    26.905     8.507
     4   7 N        2.791    -0.058    22.366     7.024
     5   6 C        3.041     0.106    25.631     8.304
     6   6 C        3.108    -0.024    28.444     8.738
     7   6 C        2.775     0.254    22.734     7.809
     8   8 O        0.857    -0.364    20.966     6.139
     9   7 N        2.741    -0.031    21.849     6.942
    10   6 C        2.816    -0.023    28.563     8.757
    11   6 C        2.738     0.308    21.760     7.637
    12   8 O        0.859    -0.351    20.727     6.104
    13   7 N        2.737    -0.049    22.195     6.997
    14   6 C        3.699    -0.073    22.075     6.720
    15   1 H        0.924     0.108     1.715     2.048
    16   1 H        0.925     0.104     1.751     2.069
    17   1 H        0.925     0.134     1.506     1.919
    18   1 H        0.926     0.123     1.588     1.970
    19   1 H        0.000     0.021     6.782     4.762
    20   1 H        0.926     0.133     1.515     1.925
    21   1 H        0.926     0.130     1.538     1.939
    22   1 H        0.924     0.084     1.935     2.176
    23   1 H        0.925     0.083     1.947     2.182
    24   1 H        0.925     0.127     1.557     1.951
    25   1 H        0.860     0.229     0.971     1.544

Wiberg/Mayer (AO) data.
largest (>0.10) Wiberg bond orders for each atom

     #   Z sym  total        # sym  WBO       # sym  WBO       # sym  WBO
 ---------------------------------------------------------------------------
     1   6 C    3.917 --     2 N    0.987    16 H    0.965    17 H    0.962
                            15 H    0.955
     2   7 N    3.648 --     3 C    1.378     6 C    1.146     1 C    0.987
     3   6 C    3.819 --     2 N    1.378     4 N    1.266    18 H    0.953
     4   7 N    3.578 --     3 C    1.266     5 C    1.194    25 H    0.919
     5   6 C    3.899 --     6 C    1.328     4 N    1.194    13 N    1.190
     6   6 C    3.909 --     5 C    1.328     2 N    1.146     7 C    1.117
     7   6 C    3.868 --     8 O    1.673     6 C    1.117     9 N    0.986
     8   8 O    1.955 --     7 C    1.673     9 N    0.108
     9   7 N    3.615 --    10 C    1.346    11 C    1.015     7 C    0.986
                             8 O    0.108
    10   6 C    3.347 --     9 N    1.346    21 H    0.960    20 H    0.957
    11   6 C    3.904 --    12 O    1.707    13 N    1.088     9 N    1.015
    12   8 O    2.019 --    11 C    1.707    13 N    0.135
    13   7 N    3.566 --     5 C    1.190    11 C    1.088    14 C    0.971
                            12 O    0.135
    14   6 C    3.924 --    23 H    0.972    22 H    0.971    13 N    0.971
                            24 H    0.965
    15   1 H    0.983 --     1 C    0.955
    16   1 H    0.986 --     1 C    0.965
    17   1 H    0.982 --     1 C    0.962
    18   1 H    0.984 --     3 C    0.953
    19   1 H    0.003
    20   1 H    0.982 --    10 C    0.957
    21   1 H    0.982 --    10 C    0.960
    22   1 H    0.991 --    14 C    0.971
    23   1 H    0.991 --    14 C    0.972
    24   1 H    0.983 --    14 C    0.965
    25   1 H    0.947 --     4 N    0.919
 ---------------------------------------------------------------------------

molecular dipole:
                 x           y           z       tot (Debye)
 q only:        2.337      -1.992       0.019
   full:        2.574      -2.441       0.035       9.018

           -------------------------------------------------
          | TOTAL ENERGY              -42.104035244295 Eh   |
          | GRADIENT NORM               0.002620254537 Eh/α |
          | HOMO-LUMO GAP               0.069308099306 eV   |
           -------------------------------------------------

 * finished run on 2024/06/05 at 19:57:59.771
