   * xtb version 6.6.1 (8d0f1dd) compiled by 'conda@1efc2f54142f' on 2023-08-01
          program call               : xtb xtbopt.xyz --opt crude --input .xc2 --gfn2

   ID    Z sym.   atoms
    1    6 C      1, 3, 5-7, 10, 11, 14
    2    7 N      2, 4, 9, 13
    3    8 O      8, 12
    4    1 H      15-25

          :  Hamiltonian                  GFN2-xTB          :
 * total energy  :   -42.1318369 Eh     change       -0.5044853E-11 Eh
   *** GEOMETRY OPTIMIZATION CONVERGED AFTER 1 ITERATIONS ***

 final structure:
================
25
 xtb: 6.6.1 (8d0f1dd)
C            3.24351573445804        1.23951157236277        0.01894334330665
N            2.27503682425657        0.18049881938701        0.00116574011510
C            2.51271756988994       -1.15370299230540       -0.00459834193319
N            1.41298962098930       -1.87289167203861       -0.00543038398994
C            0.39826321643428       -0.98387184445198        0.00086105583452
C            0.92016033661552        0.32004546364070        0.00578812200397
C            0.06609936147780        1.48315055337951       -0.00171782041183
O            0.43680270519516        2.63531412583628       -0.01178211188089
N           -1.28256211824014        1.12791830286384        0.00032298713402
C           -2.26055506624423        2.20132536295815       -0.00317473186706
C           -1.82009458153071       -0.15402447588350        0.00288093625980
O           -3.00939284176851       -0.33550736730776        0.00536127214220
N           -0.92501593324815       -1.22899098240938        0.00120315829155
C           -1.43171877511833       -2.57983476412056       -0.00147415260139
H            3.75401201601008        1.27015541892200        0.98419964282968
H            3.98805494189345        1.08275769530684       -0.76218904455247
H            2.73530592775195        2.18993763497662       -0.14141595011106
H            3.49892501431982       -1.57385411159717       -0.00905834329393
H           -1.72891209895433        3.15078270738808        0.00395418876055
H           -2.89232401512902        2.12722678364009       -0.89004810758324
H           -2.90545689944491        2.11998432781578        0.87344968600076
H           -1.06920433141554       -3.11032504427761        0.88044088283329
H           -1.08334390371988       -3.10210561994437       -0.89406756432187
H           -2.51992693673635       -2.54170255955750        0.00688618092952
H            0.84705574635820       -4.67355879298372       -0.02932902599462

          :  Hamiltonian                  GFN2-xTB          :
         :: total energy             -42.131836930794 Eh    ::
         :: gradient norm              0.002595773795 Eh/a0 ::
         :: HOMO-LUMO gap              0.713405598935 eV    ::
         :: SCC energy               -42.643190202635 Eh    ::
         :: -> dispersion             -0.022585270646 Eh    ::
         :: repulsion energy           0.511258313144 Eh    ::

    * Orbital Energies and Occupations

         #    Occupation            Energy/Eh            Energy/eV
      -------------------------------------------------------------
         1        2.0000           -0.8939528             -24.3257
       ...           ...                  ...                  ...
        25        1.9995           -0.6677116             -18.1694
        26        1.9992           -0.6589107             -17.9299
        27        1.9983           -0.6473098             -17.6142
        28        1.9975           -0.6413493             -17.4520
        29        1.9953           -0.6316229             -17.1873
        30        1.9889           -0.6178504             -16.8126
        31        1.9878           -0.6163349             -16.7713
        32        1.9772           -0.6063802             -16.5004
        33        1.9648           -0.5994023             -16.3106
        34        1.9165           -0.5853584             -15.9284
        35        1.8823           -0.5796265             -15.7724
        36        1.8773           -0.5789330             -15.7536
        37        1.5789           -0.5566625             -15.1476 (HOMO)
        38        0.8344           -0.5304454             -14.4342 (LUMO)
        39        0.0029           -0.4324020             -11.7663
        40        0.0002           -0.3909325             -10.6378
        41        0.0001           -0.3749780             -10.2037
        42        0.0000           -0.2963739              -8.0647
        43                         -0.2076654              -5.6509
        44                         -0.1596276              -4.3437
        45                         -0.1392366              -3.7888
        46                         -0.0802556              -2.1839
        47                         -0.0606821              -1.6512
        48                         -0.0399594              -1.0873
       ...                                ...                  ...
        67                          0.5336083              14.5202
      -------------------------------------------------------------
                  HL-Gap            0.0262172 Eh            0.7134 eV

     #   Z          covCN         q      C6AA      α(0)
     1   6 C        3.689    -0.082    22.273     6.754
     2   7 N        2.828     0.052    20.324     6.696
     3   6 C        3.186     0.099    25.386     8.222
     4   7 N        1.898    -0.206    26.298     7.603
     5   6 C        3.166     0.133    24.776     8.134
     6   6 C        3.119    -0.007    28.011     8.668
     7   6 C        2.764     0.274    22.371     7.746
     8   8 O        0.858    -0.330    20.323     6.044
     9   7 N        2.746    -0.068    22.564     7.055
    10   6 C        3.709    -0.062    21.846     6.680
    11   6 C        2.728     0.317    21.612     7.611
    12   8 O        0.860    -0.331    20.342     6.047
    13   7 N        2.739    -0.020    21.633     6.908
    14   6 C        3.700    -0.073    22.068     6.718
    15   1 H        0.924     0.111     1.690     2.033
    16   1 H        0.924     0.108     1.712     2.046
    17   1 H        0.925     0.126     1.563     1.955
    18   1 H        0.926     0.112     1.676     2.025
    19   1 H        0.925     0.123     1.588     1.971
    20   1 H        0.924     0.116     1.648     2.008
    21   1 H        0.924     0.116     1.646     2.006
    22   1 H        0.924     0.110     1.698     2.038
    23   1 H        0.924     0.110     1.697     2.037
    24   1 H        0.925     0.130     1.539     1.940
    25   1 H        0.000     0.142     3.611     3.475

Wiberg/Mayer (AO) data.
largest (>0.10) Wiberg bond orders for each atom

     #   Z sym  total        # sym  WBO       # sym  WBO       # sym  WBO
 ---------------------------------------------------------------------------
     1   6 C    3.902 --     2 N    0.995    17 H    0.959    16 H    0.956
                            15 H    0.947
     2   7 N    3.637 --     3 C    1.268     6 C    1.217     1 C    0.995
     3   6 C    3.865 --     4 N    1.486     2 N    1.268    18 H    0.954
     4   7 N    2.974 --     3 C    1.486     5 C    1.269
     5   6 C    3.898 --     4 N    1.269     6 C    1.254    13 N    1.207
     6   6 C    3.796 --     5 C    1.254     2 N    1.217     7 C    1.075
     7   6 C    3.946 --     8 O    1.673     9 N    1.100     6 C    1.075
     8   8 O    1.961 --     7 C    1.673     9 N    0.127
     9   7 N    3.500 --    11 C    1.106     7 C    1.100    10 C    0.979
                             8 O    0.127    12 O    0.117
    10   6 C    3.867 --     9 N    0.979    19 H    0.959    21 H    0.943
                            20 H    0.943
    11   6 C    3.951 --    12 O    1.685     9 N    1.106    13 N    1.069
    12   8 O    1.974 --    11 C    1.685     9 N    0.117    13 N    0.102
    13   7 N    3.483 --     5 C    1.207    11 C    1.069    14 C    0.983
                            12 O    0.102
    14   6 C    3.886 --    13 N    0.983    24 H    0.960    22 H    0.948
                            23 H    0.947
    15   1 H    0.973 --     1 C    0.947
    16   1 H    0.978 --     1 C    0.956
    17   1 H    0.978 --     1 C    0.959
    18   1 H    0.985 --     3 C    0.954
    19   1 H    0.978 --    10 C    0.959
    20   1 H    0.960 --    10 C    0.943
    21   1 H    0.960 --    10 C    0.943
    22   1 H    0.966 --    14 C    0.948
    23   1 H    0.966 --    14 C    0.947
    24   1 H    0.979 --    14 C    0.960
    25   1 H    0.028
 ---------------------------------------------------------------------------

molecular dipole:
                 x           y           z       tot (Debye)
 q only:        1.434      -1.497       0.007
   full:        1.703      -1.378       0.013       5.570

           -------------------------------------------------
          | TOTAL ENERGY              -42.131836930794 Eh   |
          | GRADIENT NORM               0.002595773795 Eh/α |
          | HOMO-LUMO GAP               0.713405598935 eV   |
           -------------------------------------------------

 * finished run on 2024/06/05 at 19:57:52.619
