   * xtb version 6.6.1 (8d0f1dd) compiled by 'conda@1efc2f54142f' on 2023-08-01
          program call               : xtb struc.xyz --opt loose --input .xc1 --gfn2

   ID    Z sym.   atoms
    1    6 C      1, 3, 5-7, 10, 11, 14
    2    7 N      2, 4, 9, 13
    3    8 O      8, 12
    4    1 H      15-25
constraining bond 8 11 to    5.7600000 Å, actual value:    3.5880572 Å

          :  Hamiltonian                  GFN2-xTB          :
 * total energy  :   -33.8370966 Eh     change       -0.2401990E-09 Eh
 * total energy  :   -37.3356555 Eh     change       -0.3498559E+01 Eh
 * total energy  :   -39.8909395 Eh     change       -0.2555284E+01 Eh
 * total energy  :   -41.3317254 Eh     change       -0.1440786E+01 Eh
 * total energy  :   -41.8154540 Eh     change       -0.4837286E+00 Eh
 * total energy  :   -41.8670473 Eh     change       -0.5159334E-01 Eh
 * total energy  :   -41.8813328 Eh     change       -0.1428544E-01 Eh
 * total energy  :   -41.9061163 Eh     change       -0.2478351E-01 Eh
 * total energy  :   -41.9157182 Eh     change       -0.9601902E-02 Eh
 * total energy  :   -41.9283890 Eh     change       -0.1267075E-01 Eh
 * total energy  :   -42.1519937 Eh     change       -0.2058723E-03 Eh
 * total energy  :   -42.1521750 Eh     change       -0.1813199E-03 Eh
 * total energy  :   -42.1522573 Eh     change       -0.8222159E-04 Eh
 * total energy  :   -42.1522401 Eh     change        0.1720157E-04 Eh
 * total energy  :   -42.1523393 Eh     change       -0.9927107E-04 Eh
 * total energy  :   -42.1523567 Eh     change       -0.1734756E-04 Eh
 * total energy  :   -42.1523064 Eh     change        0.5026689E-04 Eh
 * total energy  :   -42.1523663 Eh     change       -0.5989754E-04 Eh
 * total energy  :   -42.1523729 Eh     change       -0.6547657E-05 Eh
   *** GEOMETRY OPTIMIZATION CONVERGED AFTER 85 ITERATIONS ***

 final structure:
================
25
 xtb: 6.6.1 (8d0f1dd)
C            3.09036493839826        0.97342580965392        0.12204902020759
N            2.08440694245408       -0.03519199445455        0.33790608115989
C            2.36082922825015       -1.22624953351085        0.86684253089280
N            1.23854451235956       -1.95801911371223        0.90871914635983
C            0.20232483371084       -1.21147165664821        0.39465557769684
C            0.73552218843391        0.02990241562445        0.03934961186113
C            0.10580846314464        1.29376206122696       -0.45411611487816
O            0.81013154712993        2.25749206827920       -0.78392544304439
N           -1.21290020088322        1.27280661106124       -0.46227855986432
C           -1.97990465678921        2.40681457995704       -0.81225202862158
C           -1.44491234418351       -2.63189788905987        1.25821643900229
O           -1.14517294425892       -3.26368548480203        2.20612809970386
N           -1.08164599162022       -1.78174550451913        0.34098851704322
C           -1.96995719934477       -1.47781900427572       -0.77475319361066
H            3.68603431724529        1.10165476677975        1.02486078015936
H            3.74544616510406        0.67629760240640       -0.69865927655263
H            2.60660647206163        1.91452137110645       -0.14524835572895
H            3.32623580864416       -1.54725480510020        1.20400348363419
H           -1.35789448816319        3.22770486850557       -1.18792179412306
H           -2.71516695867126        2.12649493101422       -1.57193957321678
H           -2.52993775773869        2.75178449392151        0.06989503328914
H           -1.59902915128143       -1.95338876751029       -1.68408368360094
H           -1.98752891788337       -0.38966473652853       -0.90726002844084
H           -2.96696516946864       -1.84725464222048       -0.55008050974286
H            1.15919187745666       -2.89077990559362        1.29007585832061

          :  Hamiltonian                  GFN2-xTB          :
         :: total energy             -42.152372854253 Eh    ::
         :: gradient norm              0.001243469362 Eh/a0 ::
         :: HOMO-LUMO gap              1.518382434958 eV    ::
         :: SCC energy               -42.672285342362 Eh    ::
         :: -> dispersion             -0.021693970008 Eh    ::
         :: repulsion energy           0.519737713898 Eh    ::

    * Orbital Energies and Occupations

         #    Occupation            Energy/Eh            Energy/eV
      -------------------------------------------------------------
         1        2.0000           -0.9110099             -24.7898
       ...           ...                  ...                  ...
        25        1.9994           -0.6758367             -18.3905
        26        1.9992           -0.6703485             -18.2411
        27        1.9983           -0.6508440             -17.7104
        28        1.9967           -0.6359772             -17.3058
        29        1.9952           -0.6267226             -17.0540
        30        1.9936           -0.6201408             -16.8749
        31        1.9922           -0.6152055             -16.7406
        32        1.9898           -0.6089211             -16.5696
        33        1.9882           -0.6053850             -16.4734
        34        1.9521           -0.5716403             -15.5551
        35        1.8705           -0.5470224             -14.8852
        36        1.6741           -0.5224620             -14.2169
        37        1.6579           -0.5210778             -14.1792 (HOMO)
        38        0.6325           -0.4652782             -12.6609 (LUMO)
        39        0.1278           -0.4198270             -11.4241
        40        0.1188           -0.4179760             -11.3737
        41        0.0153           -0.3680844             -10.0161
        42        0.0008           -0.2986801              -8.1275
        43        0.0000           -0.2071106              -5.6358
        44        0.0000           -0.1877932              -5.1101
        45        0.0000           -0.1326419              -3.6094
        46                         -0.0725417              -1.9740
        47                         -0.0543044              -1.4777
        48                         -0.0388177              -1.0563
       ...                                ...                  ...
        67                          0.6908733              18.7996
      -------------------------------------------------------------
                  HL-Gap            0.0557995 Eh            1.5184 eV

     #   Z          covCN         q      C6AA      α(0)
     1   6 C        3.694    -0.096    22.527     6.791
     2   7 N        2.846     0.076    19.924     6.629
     3   6 C        3.013     0.051    26.847     8.499
     4   7 N        2.795    -0.061    22.418     7.032
     5   6 C        3.032     0.089    25.983     8.361
     6   6 C        3.063     0.007    27.793     8.645
     7   6 C        2.763     0.279    22.272     7.729
     8   8 O        0.858    -0.394    21.555     6.225
     9   7 N        1.831    -0.242    27.176     7.725
    10   6 C        3.699    -0.028    21.244     6.592
    11   6 C        1.818     0.240    25.603     8.176
    12   8 O        0.856    -0.194    17.969     5.683
    13   7 N        2.729     0.017    20.965     6.800
    14   6 C        3.703    -0.095    22.483     6.780
    15   1 H        0.925     0.102     1.767     2.079
    16   1 H        0.924     0.108     1.714     2.047
    17   1 H        0.924     0.155     1.362     1.825
    18   1 H        0.926     0.124     1.580     1.966
    19   1 H        0.924     0.101     1.775     2.084
    20   1 H        0.924     0.093     1.853     2.129
    21   1 H        0.924     0.100     1.785     2.089
    22   1 H        0.924     0.098     1.800     2.098
    23   1 H        0.924     0.134     1.505     1.918
    24   1 H        0.925     0.108     1.713     2.047
    25   1 H        0.860     0.230     0.966     1.540

Wiberg/Mayer (AO) data.
largest (>0.10) Wiberg bond orders for each atom

     #   Z sym  total        # sym  WBO       # sym  WBO       # sym  WBO
 ---------------------------------------------------------------------------
     1   6 C    3.881 --     2 N    0.985    15 H    0.961    16 H    0.952
                            17 H    0.931
     2   7 N    3.647 --     3 C    1.353     6 C    1.173     1 C    0.985
     3   6 C    3.803 --     2 N    1.353     4 N    1.296    18 H    0.952
     4   7 N    3.556 --     3 C    1.296     5 C    1.174    25 H    0.917
     5   6 C    3.800 --     6 C    1.400     4 N    1.174    13 N    1.029
     6   6 C    3.817 --     5 C    1.400     2 N    1.173     7 C    0.988
     7   6 C    3.905 --     8 O    1.506     9 N    1.349     6 C    0.988
     8   8 O    1.746 --     7 C    1.506     9 N    0.127
     9   7 N    2.660 --     7 C    1.349    10 C    1.070     8 O    0.127
    10   6 C    3.870 --     9 N    1.070    20 H    0.930    19 H    0.922
                            21 H    0.918
    11   6 C    3.347 --    12 O    1.924    13 N    1.348
    12   8 O    2.129 --    11 C    1.924    13 N    0.151
    13   7 N    3.548 --    11 C    1.348     5 C    1.029    14 C    0.950
                            12 O    0.151
    14   6 C    3.858 --    24 H    0.972    22 H    0.964    13 N    0.950
                            23 H    0.913
    15   1 H    0.982 --     1 C    0.961
    16   1 H    0.979 --     1 C    0.952
    17   1 H    0.970 --     1 C    0.931
    18   1 H    0.983 --     3 C    0.952
    19   1 H    0.927 --    10 C    0.922
    20   1 H    0.947 --    10 C    0.930
    21   1 H    0.937 --    10 C    0.918
    22   1 H    0.983 --    14 C    0.964
    23   1 H    0.976 --    14 C    0.913
    24   1 H    0.985 --    14 C    0.972
    25   1 H    0.946 --     4 N    0.917
 ---------------------------------------------------------------------------

molecular dipole:
                 x           y           z       tot (Debye)
 q only:        0.964      -1.809       0.292
   full:        1.078      -2.033       0.402       5.938

           -------------------------------------------------
          | TOTAL ENERGY              -42.152372854253 Eh   |
          | GRADIENT NORM               0.001243469362 Eh/α |
          | HOMO-LUMO GAP               1.518382434958 eV   |
           -------------------------------------------------

 * finished run on 2024/06/05 at 19:58:51.892
