   * xtb version 6.6.1 (8d0f1dd) compiled by 'conda@1efc2f54142f' on 2023-08-01
          program call               : xtb struc.xyz --opt loose --input .xc1 --gfn2

   ID    Z sym.   atoms
    1    7 N      1, 17
    2    6 C      2-6, 8, 9, 11-16, 18-23, 25, 26, 28-33
    3    8 O      7, 10, 24, 27
    4    1 H      34-72
constraining bond 23 53 to    3.7133300 Å, actual value:    3.3786295 Å

          :  Hamiltonian                  GFN2-xTB          :
 * total energy  :   -99.4241332 Eh     change       -0.4035485E-08 Eh
 * total energy  :   -99.4589980 Eh     change       -0.3486481E-01 Eh
 * total energy  :   -99.4879150 Eh     change       -0.2891696E-01 Eh
 * total energy  :   -99.5235382 Eh     change       -0.3562323E-01 Eh
 * total energy  :   -99.5985838 Eh     change       -0.7504557E-01 Eh
 * total energy  :   -99.7068443 Eh     change       -0.1082605E+00 Eh
 * total energy  :   -99.6803744 Eh     change        0.2646988E-01 Eh
 * total energy  :  -100.0801736 Eh     change       -0.3997991E+00 Eh
 * total energy  :  -100.3019383 Eh     change       -0.2217647E+00 Eh
 * total energy  :  -100.3269637 Eh     change       -0.2502540E-01 Eh
 * total energy  :  -100.7085148 Eh     change       -0.6799909E-04 Eh
 * total energy  :  -100.7085913 Eh     change       -0.7646196E-04 Eh
 * total energy  :  -100.7086506 Eh     change       -0.5928094E-04 Eh
 * total energy  :  -100.7087163 Eh     change       -0.6575833E-04 Eh
 * total energy  :  -100.7087764 Eh     change       -0.6007854E-04 Eh
 * total energy  :  -100.7088366 Eh     change       -0.6023247E-04 Eh
 * total energy  :  -100.7088773 Eh     change       -0.4063148E-04 Eh
 * total energy  :  -100.7089235 Eh     change       -0.4618136E-04 Eh
 * total energy  :  -100.7089506 Eh     change       -0.2715073E-04 Eh
   *** GEOMETRY OPTIMIZATION CONVERGED AFTER 68 ITERATIONS ***

 final structure:
================
72
 xtb: 6.6.1 (8d0f1dd)
N           -2.09476295565088        2.93142262119765        2.32035757946003
C           -1.97632933135468        2.23783210629094        1.28878594218757
C           -3.07858141627722        1.98187183391658        0.29816224551340
C           -3.50256412418944        0.52309151386222        0.37206672339601
C           -4.33337070094965       -0.00907192654047       -0.61626624084803
C           -4.76131749332879       -1.32532861814752       -0.57044247075220
O           -5.56086265665232       -1.91744797593870       -1.48157341793272
C           -6.08819431659498       -1.15152558995859       -2.53893989403576
C           -4.34845578631410       -2.15873050655660        0.50426876664104
O           -4.81047729200293       -3.42469219129924        0.46642870818527
C           -4.52221194764036       -4.29145895773180        1.53861269849164
C           -3.52832818976198       -1.62301605258934        1.48419863556531
C           -3.11095144238656       -0.29936225291910        1.41707516859018
C           -2.47519188989948        2.29508076284319       -1.09573051119751
C           -1.49102913910757        1.23329154470739       -1.62033875011583
C           -0.17196025390011        1.24864214537250       -0.94883334847264
N            0.48548811655359        0.17981945793293       -0.51248171169153
C            1.88788681096762        0.26200651602460       -0.18518052621056
C            2.76006828256666       -0.34711035426714       -1.30752974170643
C            4.20859397396889       -0.10620727369584       -1.04233633114597
C            4.84124972933231        1.07191737271439       -1.38057225775297
C            6.13921524898025        1.31885249273277       -1.37642695894441
C            7.10900437418267        0.13068947884906       -1.21748608501438
O            8.29605315114148        0.55794481746064       -0.57708222054964
C            8.17534428166929        1.08515753146410        0.72202829697864
C            6.37298920198104       -0.96527194658873       -0.40092731007525
O            7.24890525138823       -1.83455682543398        0.10947536237586
C            6.78721825324858       -2.98429007884607        0.78449747309859
C            5.01218028966520       -1.04958616549471       -0.34282447041377
C           -0.12159872577678       -1.12889632696279       -0.46533336056569
C           -4.34090005581913        2.86377708999494        0.53817070485569
C           -5.02672028967555        2.51527145635993        1.85704120870442
C           -4.04473684358616        4.36012973304965        0.49306432826610
H           -4.66191177708357        0.62106850444784       -1.42589439686489
H           -6.68549328315724       -0.31299903465506       -2.16863245408165
H           -6.72920815574630       -1.82981870166947       -3.09862343041608
H           -5.29803159535885       -0.77690405506919       -3.19802755585246
H           -4.90557485563358       -3.89884966702402        2.48495772652598
H           -5.02922427539980       -5.22515122379615        1.30342191343717
H           -3.44695693479541       -4.47636532425214        1.62813504090051
H           -3.21394665851674       -2.22613317087569        2.32036295348656
H           -2.49560394842126        0.09030970450829        2.21318595769556
H           -3.28693029405613        2.38808248565606       -1.81626723756840
H           -1.96601189612705        3.25843821705685       -1.04944536987028
H           -1.95463190302405        0.24947525331939       -1.57721806542426
H           -1.31117282636034        1.47233476315528       -2.67677904347924
H           -1.02511812585155        1.76999598194318        0.96740168205101
H            0.37475215183603        2.18033988337323       -0.95186560077711
H            2.07332982491634       -0.26952917636933        0.75231687892375
H            2.17004570840550        1.30801383349933       -0.05247829547432
H            2.48560914383634        0.13275795712190       -2.24967835693191
H            2.56356331472989       -1.41719698600238       -1.38437912467160
H            7.32813051780332       -0.17684919553396       -1.90810269449587
H            6.58821194351252        2.29070638057167       -1.48654467360641
H            7.70251371246786        0.37500937864513        1.40724652477563
H            7.60060102300966        2.01777034217892        0.72737700968086
H            9.19208452482778        1.28366596518258        1.05312266153553
H            7.68003518344651       -3.52554562768459        1.08932313598201
H            6.20184358756240       -2.71627193233861        1.66875657014032
H            6.18546572104188       -3.61406482719400        0.12307055857113
H            4.53113344693879       -1.87751885089249        0.15553836979077
H           -0.22333415518980       -1.55821966519215       -1.46482707439167
H           -1.10986023918189       -1.07305603182134       -0.00406743476995
H            0.50115999974596       -1.78919775623401        0.13372387473888
H           -5.03820820650014        2.63091560583601       -0.27496102100152
H           -4.36762960153421        2.73921973390125        2.68955871577574
H           -5.29902618983657        1.46335689190141        1.89407394228103
H           -5.93233418272186        3.10663199631594        1.96300207313474
H           -3.33965291981269        4.62856741517996        1.27371164811977
H           -3.64808120222171        4.66818488795670       -0.47063385305544
H           -4.96601348193603        4.91058919052719        0.66468164942414
H           -1.27365961339691        3.06213094503096        2.90279340349772

          :  Hamiltonian                  GFN2-xTB          :
         :: total energy            -100.708950614592 Eh    ::
         :: gradient norm              0.002945327751 Eh/a0 ::
         :: HOMO-LUMO gap              0.710699259551 eV    ::
         :: SCC energy              -100.672815972216 Eh    ::
         :: -> dispersion             -0.075491556763 Eh    ::
         :: repulsion energy           1.491481151851 Eh    ::

    * Orbital Energies and Occupations

         #    Occupation            Energy/Eh            Energy/eV
      -------------------------------------------------------------
         1        2.0000           -0.8267004             -22.4957
       ...           ...                  ...                  ...
        78        1.9983           -0.5289082             -14.3923
        79        1.9981           -0.5278556             -14.3637
        80        1.9977           -0.5246060             -14.2753
        81        1.9974           -0.5225013             -14.2180
        82        1.9958           -0.5148721             -14.0104
        83        1.9950           -0.5121512             -13.9363
        84        1.9941           -0.5095087             -13.8644
        85        1.9862           -0.4959833             -13.4964
        86        1.9810           -0.4909078             -13.3583
        87        1.9798           -0.4899355             -13.3318
        88        1.9365           -0.4714185             -12.8280
        89        1.8726           -0.4598630             -12.5135
        90        1.3513           -0.4289283             -11.6717 (HOMO)
        91        0.5717           -0.4028105             -10.9610 (LUMO)
        92        0.3297           -0.3916183             -10.6565
        93        0.0142           -0.3390483              -9.2260
        94        0.0035           -0.3169692              -8.6252
        95        0.0029           -0.3139668              -8.5435
        96        0.0016           -0.3043707              -8.2823
        97        0.0000           -0.2344573              -6.3799
        98        0.0000           -0.1912900              -5.2053
        99                         -0.1359590              -3.6996
       100                         -0.0914721              -2.4891
       101                         -0.0689486              -1.8762
       ...                                ...                  ...
       171                          1.0919623              29.7138
      -------------------------------------------------------------
                  HL-Gap            0.0261177 Eh            0.7107 eV

     #   Z          covCN         q      C6AA      α(0)
     1   7 N        1.774    -0.268    27.774     7.804
     2   6 C        2.827     0.102    25.742     8.314
     3   6 C        3.907     0.006    20.412     6.422
     4   6 C        2.974     0.002    27.971     8.675
     5   6 C        2.920    -0.080    30.012     8.984
     6   6 C        2.862     0.129    25.168     8.223
     7   8 O        1.706    -0.230    17.816     5.699
     8   6 C        3.644     0.028    20.447     6.500
     9   6 C        2.864     0.128    25.187     8.226
    10   8 O        1.706    -0.229    17.796     5.696
    11   6 C        3.645     0.027    20.455     6.500
    12   6 C        2.914    -0.075    29.861     8.961
    13   6 C        2.921    -0.053    29.326     8.881
    14   6 C        3.812    -0.065    21.734     6.636
    15   6 C        3.802    -0.069    21.820     6.651
    16   6 C        2.843     0.006    27.874     8.652
    17   7 N        2.729     0.010    21.088     6.820
    18   6 C        3.755    -0.015    20.902     6.519
    19   6 C        3.806    -0.066    21.757     6.640
    20   6 C        2.967     0.016    27.651     8.625
    21   6 C        1.996    -0.086    33.383     9.331
    22   6 C        2.897    -0.051    29.260     8.869
    23   6 C        3.749     0.094    19.092     6.232
    24   8 O        1.700    -0.279    18.629     5.827
    25   6 C        3.637     0.033    20.380     6.494
    26   6 C        2.847     0.127    25.203     8.228
    27   8 O        1.705    -0.209    17.481     5.645
    28   6 C        3.645     0.023    20.528     6.512
    29   6 C        2.915    -0.087    30.174     9.008
    30   6 C        3.700    -0.070    22.009     6.709
    31   6 C        3.853    -0.007    20.667     6.466
    32   6 C        3.756    -0.119    22.831     6.813
    33   6 C        3.755    -0.118    22.825     6.812
    34   1 H        0.926     0.052     2.294     2.368
    35   1 H        0.924     0.054     2.271     2.357
    36   1 H        0.925     0.081     1.967     2.193
    37   1 H        0.924     0.047     2.360     2.402
    38   1 H        0.924     0.055     2.255     2.348
    39   1 H        0.925     0.081     1.968     2.194
    40   1 H        0.924     0.048     2.348     2.397
    41   1 H        0.926     0.052     2.292     2.368
    42   1 H        0.926     0.040     2.452     2.449
    43   1 H        0.925     0.060     2.199     2.319
    44   1 H        0.924     0.054     2.271     2.357
    45   1 H        0.925     0.065     2.137     2.286
    46   1 H        0.923     0.080     1.978     2.199
    47   1 H        0.922     0.006     2.958     2.690
    48   1 H        0.926     0.070     2.083     2.257
    49   1 H        0.924     0.066     2.134     2.285
    50   1 H        0.924     0.073     2.056     2.242
    51   1 H        0.924     0.063     2.169     2.303
    52   1 H        0.924     0.055     2.261     2.352
    53   1 H        0.930     0.125     1.574     1.962
    54   1 H        0.926     0.076     2.023     2.224
    55   1 H        0.924     0.038     2.481     2.463
    56   1 H        0.924     0.043     2.409     2.427
    57   1 H        0.925     0.077     2.005     2.215
    58   1 H        0.925     0.088     1.900     2.155
    59   1 H        0.924     0.055     2.253     2.347
    60   1 H        0.924     0.058     2.221     2.330
    61   1 H        0.926     0.050     2.324     2.384
    62   1 H        0.924     0.075     2.033     2.230
    63   1 H        0.924     0.080     1.976     2.198
    64   1 H        0.925     0.078     2.004     2.214
    65   1 H        0.924     0.037     2.487     2.466
    66   1 H        0.925     0.069     2.094     2.263
    67   1 H        0.925     0.036     2.509     2.477
    68   1 H        0.925     0.051     2.302     2.373
    69   1 H        0.925     0.061     2.191     2.315
    70   1 H        0.925     0.035     2.519     2.482
    71   1 H        0.925     0.055     2.264     2.353
    72   1 H        0.860     0.157     1.353     1.822

Wiberg/Mayer (AO) data.
largest (>0.10) Wiberg bond orders for each atom

     #   Z sym  total        # sym  WBO       # sym  WBO       # sym  WBO
 ---------------------------------------------------------------------------
     1   7 N    3.039 --     2 C    1.957    72 H    0.942
     2   6 C    3.929 --     1 N    1.957     3 C    0.994    47 H    0.901
     3   6 C    3.976 --     2 C    0.994     4 C    0.970    14 C    0.958
                            31 C    0.941
     4   6 C    3.949 --    13 C    1.413     5 C    1.368     3 C    0.970
     5   6 C    3.962 --     6 C    1.401     4 C    1.368    34 H    0.958
     6   6 C    3.906 --     5 C    1.401     9 C    1.222     7 O    1.099
     7   8 O    2.254 --     6 C    1.099     8 C    0.978
     8   6 C    3.932 --     7 O    0.978    36 H    0.977    37 H    0.974
                            35 H    0.973
     9   6 C    3.902 --    12 C    1.393     6 C    1.222    10 O    1.101
    10   8 O    2.252 --     9 C    1.101    11 C    0.978
    11   6 C    3.931 --    10 O    0.978    39 H    0.977    40 H    0.974
                            38 H    0.973
    12   6 C    3.963 --    13 C    1.402     9 C    1.393    41 H    0.964
    13   6 C    3.955 --     4 C    1.413    12 C    1.402    42 H    0.963
    14   6 C    3.972 --    15 C    0.980    44 H    0.972    43 H    0.969
                             3 C    0.958
    15   6 C    3.986 --    16 C    1.059    14 C    0.980    45 H    0.962
                            46 H    0.927
    16   6 C    3.587 --    17 N    1.396    15 C    1.059    48 H    0.957
    17   7 N    3.477 --    16 C    1.396    30 C    0.998    18 C    0.991
    18   6 C    3.943 --    17 N    0.991    50 H    0.967    49 H    0.964
                            19 C    0.955
    19   6 C    3.970 --    20 C    1.018    52 H    0.971    51 H    0.967
                            18 C    0.955
    20   6 C    3.685 --    21 C    1.365    29 C    1.221    19 C    1.018
    21   6 C    3.279 --    22 C    1.769    20 C    1.365
    22   6 C    3.743 --    21 C    1.769    54 H    0.952    23 C    0.914
    23   6 C    3.868 --    24 O    0.989    26 C    0.941    53 H    0.935
                            22 C    0.914
    24   8 O    2.090 --    25 C    0.991    23 C    0.989
    25   6 C    3.935 --    24 O    0.991    57 H    0.976    55 H    0.975
                            56 H    0.971
    26   6 C    3.752 --    29 C    1.531    27 O    1.151    23 C    0.941
    27   8 O    2.280 --    26 C    1.151    28 C    0.967
    28   6 C    3.926 --    58 H    0.976    59 H    0.974    60 H    0.973
                            27 O    0.967
    29   6 C    3.902 --    26 C    1.531    20 C    1.221    61 H    0.952
    30   6 C    3.958 --    17 N    0.998    64 H    0.977    62 H    0.965
                            63 H    0.962
    31   6 C    3.972 --    33 C    1.009    32 C    1.008    65 H    0.960
                             3 C    0.941
    32   6 C    3.978 --    31 C    1.008    67 H    0.982    68 H    0.981
                            66 H    0.974
    33   6 C    3.983 --    31 C    1.009    70 H    0.983    71 H    0.980
                            69 H    0.977
    34   1 H    0.996 --     5 C    0.958
    35   1 H    0.993 --     8 C    0.973
    36   1 H    0.993 --     8 C    0.977
    37   1 H    0.994 --     8 C    0.974
    38   1 H    0.993 --    11 C    0.973
    39   1 H    0.993 --    11 C    0.977
    40   1 H    0.993 --    11 C    0.974
    41   1 H    0.996 --    12 C    0.964
    42   1 H    0.998 --    13 C    0.963
    43   1 H    0.995 --    14 C    0.969
    44   1 H    0.996 --    14 C    0.972
    45   1 H    0.995 --    15 C    0.962
    46   1 H    0.970 --    15 C    0.927
    47   1 H    0.986 --     2 C    0.901
    48   1 H    0.995 --    16 C    0.957
    49   1 H    0.991 --    18 C    0.964
    50   1 H    0.994 --    18 C    0.967
    51   1 H    0.990 --    19 C    0.967
    52   1 H    0.994 --    19 C    0.971
    53   1 H    0.967 --    23 C    0.935
    54   1 H    0.979 --    22 C    0.952
    55   1 H    0.995 --    25 C    0.975
    56   1 H    0.991 --    25 C    0.971
    57   1 H    0.993 --    25 C    0.976
    58   1 H    0.992 --    28 C    0.976
    59   1 H    0.993 --    28 C    0.974
    60   1 H    0.992 --    28 C    0.973
    61   1 H    0.989 --    29 C    0.952
    62   1 H    0.984 --    30 C    0.965
    63   1 H    0.988 --    30 C    0.962
    64   1 H    0.993 --    30 C    0.977
    65   1 H    0.992 --    31 C    0.960
    66   1 H    0.991 --    32 C    0.974
    67   1 H    0.997 --    32 C    0.982
    68   1 H    0.994 --    32 C    0.981
    69   1 H    0.993 --    33 C    0.977
    70   1 H    0.997 --    33 C    0.983
    71   1 H    0.994 --    33 C    0.980
    72   1 H    0.970 --     1 N    0.942
 ---------------------------------------------------------------------------

molecular dipole:
                 x           y           z       tot (Debye)
 q only:        0.459      -0.555      -0.310
   full:        0.773      -0.840      -0.269       2.980

           -------------------------------------------------
          | TOTAL ENERGY             -100.708950614592 Eh   |
          | GRADIENT NORM               0.002945327751 Eh/α |
          | HOMO-LUMO GAP               0.710699259551 eV   |
           -------------------------------------------------

 * finished run on 2024/04/06 at 11:17:09.747
