   * xtb version 6.6.1 (8d0f1dd) compiled by 'conda@1efc2f54142f' on 2023-08-01
          program call               : xtb xtbopt.xyz --opt crude --input .xc2 --gfn2

   ID    Z sym.   atoms
    1    7 N      1, 17
    2    6 C      2-6, 8, 9, 11-16, 18-23, 25, 26, 28-33
    3    8 O      7, 10, 24, 27
    4    1 H      34-72
########################################################################
[WARNING] Please study the warnings concerning your input carefully
-1- readin_getIntValue: could not parse ''
########################################################################

          :  Hamiltonian                  GFN2-xTB          :
 * total energy  :   -99.1800454 Eh     change       -0.1459455E-10 Eh
 * total energy  :   -99.2905817 Eh     change       -0.1105362E+00 Eh
 * total energy  :   -99.2922740 Eh     change       -0.1692353E-02 Eh
 * total energy  :   -99.2933025 Eh     change       -0.1028473E-02 Eh
 * total energy  :   -99.2934107 Eh     change       -0.1082565E-03 Eh
   *** GEOMETRY OPTIMIZATION CONVERGED AFTER 5 ITERATIONS ***

 final structure:
================
72
 xtb: 6.6.1 (8d0f1dd)
N           -2.09392685739084        2.93458631767889        2.31875568738994
C           -1.97562187082303        2.23996138569671        1.28789775500063
C           -3.07795032881096        1.98264656528078        0.29770308882606
C           -3.50121584013907        0.52368862209207        0.37204217672263
C           -4.33188969984228       -0.00883136681886       -0.61619426893673
C           -4.76025515159627       -1.32487806655020       -0.56968506454964
O           -5.56071381518282       -1.91685459931517       -1.48032658406359
C           -6.08943931993346       -1.15027478111333       -2.53652998965024
C           -4.34729744948448       -2.15794947246445        0.50515147796355
O           -4.80968423883719       -3.42387479533559        0.46793940963375
C           -4.52090608081313       -4.29037239498563        1.54011223839369
C           -3.52701830497863       -1.62202539951598        1.48481245693598
C           -3.10983860871104       -0.29827644859017        1.41744741117491
C           -2.47450636450781        2.29600113007923       -1.09618634640476
C           -1.49083000165351        1.23400973874848       -1.62085951730097
C           -0.17272233441753        1.24710954654674       -0.94753628713184
N            0.48247970076491        0.17669289663242       -0.51101540557393
C            1.88461334073780        0.25591137112633       -0.18371352855531
C            2.75613270719772       -0.35365970461912       -1.30600301962981
C            4.20512707415935       -0.10881281010265       -1.04263215921774
C            4.82768557065657        1.07645177522670       -1.38167284205573
C            6.12756089832694        1.32943946752411       -1.35602086980341
C            7.08841950997520        0.16508476445260       -1.14415710014755
O            8.28725667310986        0.57075841132817       -0.55756383746461
C            8.18902442252745        1.09927375684663        0.74742936821245
C            6.37190075079073       -0.95660958942586       -0.38623631215834
O            7.24452170571639       -1.82596305203271        0.13053314176848
C            6.78020244874615       -2.98766286533868        0.78465125250382
C            5.00924953086125       -1.05509808176467       -0.35208413714678
C           -0.12690412518533       -1.13097075850180       -0.46694595537690
C           -4.34090935328255        2.86353143324657        0.53736434850337
C           -5.02539792640097        2.51608693559810        1.85721945558396
C           -4.04616587389621        4.36006789429868        0.48950556131650
H           -4.66001767160532        0.62092065529111       -1.42627295082987
H           -6.68709319434756       -0.31263058601887       -2.16477226936725
H           -6.73034032909344       -1.82853227593881       -3.09633774016634
H           -5.30021393830530       -0.77425653746970       -3.19592245921441
H           -4.90187012544576       -3.89667038787327        2.48701450243036
H           -5.02981199205364       -5.22341470806230        1.30641125931417
H           -3.44572538468554       -4.47692812454843        1.62782097239441
H           -3.21248788626365       -2.22498715353606        2.32103680024320
H           -2.49481762619601        0.09170166228681        2.21366081753718
H           -3.28623561705891        2.38951211078228       -1.81664375303580
H           -1.96492533105184        3.25914017465646       -1.04953842861342
H           -1.95534767719563        0.25058330971197       -1.57923551321112
H           -1.30943725354340        1.47384407624746       -2.67687038339547
H           -1.02476011157481        1.77068538307469        0.96715812566045
H            0.37586768902506        2.17772214685195       -0.94920172504660
H            2.06946411665519       -0.27648802325787        0.75347444563702
H            2.16884092664551        1.30141828023212       -0.05042070491216
H            2.48016326574404        0.12438363604679       -2.24835899902680
H            2.56190828765844       -1.42419610973028       -1.38117856840639
H            7.39811617052949       -0.25472289131904       -2.11598034445069
H            6.57310315578132        2.30140157777162       -1.48281780053291
H            7.74269598700278        0.38135222386763        1.44277542457661
H            7.59927971469943        2.02243982841408        0.76351001045806
H            9.20924993679708        1.31492809057267        1.05764383022509
H            7.67353588862606       -3.52607049325380        1.09480028953126
H            6.18185563855449       -2.73489610162429        1.66488699408411
H            6.19263298632134       -3.61425713972490        0.10805304379391
H            4.52641373881671       -1.89414953682692        0.12618602994250
H           -0.22927001466684       -1.55797213634516       -1.46734922630219
H           -1.11504223265299       -1.07431149899618       -0.00553001823622
H            0.49458503406602       -1.79378388054165        0.13067939935423
H           -5.03862880564088        2.62866313710663       -0.27485665210968
H           -4.36580346908814        2.74136809347414        2.68896067334356
H           -5.29685767896174        1.46398326648820        1.89551809476922
H           -5.93140701580318        3.10684147768906        1.96327525397283
H           -3.33976701973737        4.63030632361618        1.26835021288274
H           -3.65159040097824        4.66682697470281       -0.47547802452619
H           -4.96757558600006        4.91002680648583        0.66193869836459
H           -1.27315136566154        3.06517004627569        2.90167392072610

          :  Hamiltonian                  GFN2-xTB          :
         :: total energy             -99.293410739258 Eh    ::
         :: gradient norm              0.003282938634 Eh/a0 ::
         :: HOMO-LUMO gap              0.651464082162 eV    ::
         :: SCC energy              -100.649308140506 Eh    ::
         :: -> dispersion             -0.075457621149 Eh    ::
         :: repulsion energy           1.354603609931 Eh    ::

    * Orbital Energies and Occupations

         #    Occupation            Energy/Eh            Energy/eV
      -------------------------------------------------------------
         1        2.0000           -0.8261761             -22.4814
       ...           ...                  ...                  ...
        78        1.9983           -0.5285882             -14.3836
        79        1.9982           -0.5275818             -14.3562
        80        1.9977           -0.5240881             -14.2612
        81        1.9974           -0.5221636             -14.2088
        82        1.9958           -0.5145510             -14.0016
        83        1.9951           -0.5118230             -13.9274
        84        1.9942           -0.5091873             -13.8557
        85        1.9866           -0.4959197             -13.4947
        86        1.9812           -0.4905567             -13.3487
        87        1.9805           -0.4899474             -13.3321
        88        1.9370           -0.4710512             -12.8180
        89        1.8738           -0.4595329             -12.5045
        90        1.3165           -0.4271972             -11.6246 (HOMO)
        91        0.5961           -0.4032564             -10.9732 (LUMO)
        92        0.3367           -0.3915276             -10.6540
        93        0.0143           -0.3386571              -9.2153
        94        0.0036           -0.3166247              -8.6158
        95        0.0029           -0.3136061              -8.5337
        96        0.0017           -0.3047117              -8.2916
        97        0.0000           -0.2347822              -6.3887
        98        0.0000           -0.1909300              -5.1955
        99                         -0.1352491              -3.6803
       100                         -0.0852510              -2.3198
       101                         -0.0683623              -1.8602
       ...                                ...                  ...
       171                          0.5735563              15.6073
      -------------------------------------------------------------
                  HL-Gap            0.0239409 Eh            0.6515 eV

     #   Z          covCN         q      C6AA      α(0)
     1   7 N        1.774    -0.268    27.778     7.805
     2   6 C        2.827     0.102    25.742     8.314
     3   6 C        3.907     0.006    20.413     6.422
     4   6 C        2.974     0.002    27.972     8.675
     5   6 C        2.920    -0.080    30.013     8.984
     6   6 C        2.862     0.129    25.169     8.223
     7   8 O        1.706    -0.230    17.820     5.700
     8   6 C        3.644     0.028    20.446     6.499
     9   6 C        2.864     0.128    25.188     8.227
    10   8 O        1.706    -0.229    17.799     5.696
    11   6 C        3.645     0.027    20.454     6.500
    12   6 C        2.914    -0.075    29.862     8.961
    13   6 C        2.921    -0.053    29.327     8.881
    14   6 C        3.812    -0.065    21.733     6.636
    15   6 C        3.802    -0.069    21.820     6.650
    16   6 C        2.843     0.006    27.878     8.653
    17   7 N        2.729     0.010    21.089     6.821
    18   6 C        3.755    -0.015    20.901     6.519
    19   6 C        3.806    -0.066    21.763     6.641
    20   6 C        2.967     0.017    27.636     8.623
    21   6 C        1.996    -0.088    33.459     9.341
    22   6 C        2.899    -0.047    29.177     8.857
    23   6 C        3.757     0.114    18.768     6.177
    24   8 O        1.702    -0.268    18.450     5.799
    25   6 C        3.644     0.032    20.369     6.487
    26   6 C        2.848     0.131    25.125     8.215
    27   8 O        1.705    -0.211    17.500     5.648
    28   6 C        3.644     0.023    20.529     6.512
    29   6 C        2.914    -0.086    30.162     9.006
    30   6 C        3.700    -0.070    22.009     6.709
    31   6 C        3.853    -0.007    20.667     6.466
    32   6 C        3.756    -0.119    22.831     6.813
    33   6 C        3.755    -0.118    22.825     6.812
    34   1 H        0.926     0.052     2.294     2.369
    35   1 H        0.924     0.054     2.272     2.357
    36   1 H        0.925     0.081     1.968     2.194
    37   1 H        0.924     0.047     2.361     2.403
    38   1 H        0.924     0.055     2.257     2.349
    39   1 H        0.925     0.081     1.969     2.195
    40   1 H        0.924     0.048     2.350     2.397
    41   1 H        0.926     0.052     2.294     2.368
    42   1 H        0.926     0.040     2.453     2.449
    43   1 H        0.925     0.060     2.200     2.319
    44   1 H        0.924     0.054     2.272     2.357
    45   1 H        0.925     0.065     2.137     2.286
    46   1 H        0.923     0.080     1.979     2.200
    47   1 H        0.922     0.006     2.959     2.690
    48   1 H        0.926     0.070     2.084     2.258
    49   1 H        0.924     0.065     2.137     2.286
    50   1 H        0.924     0.073     2.055     2.242
    51   1 H        0.924     0.063     2.164     2.300
    52   1 H        0.924     0.055     2.263     2.352
    53   1 H        0.923     0.091     1.873     2.140
    54   1 H        0.926     0.075     2.029     2.227
    55   1 H        0.924     0.039     2.460     2.453
    56   1 H        0.924     0.044     2.402     2.423
    57   1 H        0.925     0.078     1.999     2.211
    58   1 H        0.925     0.088     1.899     2.155
    59   1 H        0.924     0.056     2.251     2.346
    60   1 H        0.924     0.058     2.217     2.329
    61   1 H        0.926     0.050     2.318     2.381
    62   1 H        0.924     0.075     2.034     2.230
    63   1 H        0.924     0.080     1.975     2.198
    64   1 H        0.925     0.077     2.005     2.215
    65   1 H        0.924     0.037     2.488     2.467
    66   1 H        0.925     0.069     2.095     2.263
    67   1 H        0.925     0.036     2.510     2.477
    68   1 H        0.925     0.051     2.303     2.373
    69   1 H        0.925     0.061     2.192     2.315
    70   1 H        0.925     0.035     2.520     2.482
    71   1 H        0.925     0.054     2.265     2.353
    72   1 H        0.860     0.157     1.354     1.823

Wiberg/Mayer (AO) data.
largest (>0.10) Wiberg bond orders for each atom

     #   Z sym  total        # sym  WBO       # sym  WBO       # sym  WBO
 ---------------------------------------------------------------------------
     1   7 N    3.039 --     2 C    1.957    72 H    0.942
     2   6 C    3.929 --     1 N    1.957     3 C    0.994    47 H    0.901
     3   6 C    3.976 --     2 C    0.994     4 C    0.970    14 C    0.958
                            31 C    0.941
     4   6 C    3.950 --    13 C    1.413     5 C    1.368     3 C    0.970
     5   6 C    3.963 --     6 C    1.401     4 C    1.368    34 H    0.958
     6   6 C    3.906 --     5 C    1.401     9 C    1.222     7 O    1.099
     7   8 O    2.254 --     6 C    1.099     8 C    0.978
     8   6 C    3.932 --     7 O    0.978    36 H    0.977    37 H    0.974
                            35 H    0.973
     9   6 C    3.902 --    12 C    1.393     6 C    1.222    10 O    1.101
    10   8 O    2.252 --     9 C    1.101    11 C    0.978
    11   6 C    3.931 --    10 O    0.978    39 H    0.977    40 H    0.974
                            38 H    0.973
    12   6 C    3.963 --    13 C    1.402     9 C    1.393    41 H    0.964
    13   6 C    3.955 --     4 C    1.413    12 C    1.402    42 H    0.963
    14   6 C    3.972 --    15 C    0.980    44 H    0.972    43 H    0.969
                             3 C    0.958
    15   6 C    3.986 --    16 C    1.059    14 C    0.980    45 H    0.962
                            46 H    0.927
    16   6 C    3.586 --    17 N    1.395    15 C    1.059    48 H    0.957
    17   7 N    3.476 --    16 C    1.395    30 C    0.998    18 C    0.991
    18   6 C    3.943 --    17 N    0.991    50 H    0.967    49 H    0.964
                            19 C    0.955
    19   6 C    3.970 --    20 C    1.018    52 H    0.971    51 H    0.967
                            18 C    0.955
    20   6 C    3.684 --    21 C    1.353    29 C    1.233    19 C    1.018
    21   6 C    3.245 --    22 C    1.747    20 C    1.353
    22   6 C    3.737 --    21 C    1.747    54 H    0.952    23 C    0.929
    23   6 C    3.879 --    24 O    1.005    26 C    0.957    22 C    0.929
                            53 H    0.905
    24   8 O    2.099 --    23 C    1.005    25 C    0.985
    25   6 C    3.935 --    24 O    0.985    57 H    0.977    55 H    0.975
                            56 H    0.972
    26   6 C    3.753 --    29 C    1.519    27 O    1.149    23 C    0.957
    27   8 O    2.278 --    26 C    1.149    28 C    0.967
    28   6 C    3.926 --    58 H    0.976    59 H    0.974    60 H    0.973
                            27 O    0.967
    29   6 C    3.903 --    26 C    1.519    20 C    1.233    61 H    0.953
    30   6 C    3.958 --    17 N    0.998    64 H    0.977    62 H    0.965
                            63 H    0.962
    31   6 C    3.972 --    33 C    1.009    32 C    1.008    65 H    0.960
                             3 C    0.941
    32   6 C    3.978 --    31 C    1.008    67 H    0.982    68 H    0.981
                            66 H    0.974
    33   6 C    3.983 --    31 C    1.009    70 H    0.983    71 H    0.980
                            69 H    0.977
    34   1 H    0.996 --     5 C    0.958
    35   1 H    0.993 --     8 C    0.973
    36   1 H    0.993 --     8 C    0.977
    37   1 H    0.994 --     8 C    0.974
    38   1 H    0.993 --    11 C    0.973
    39   1 H    0.993 --    11 C    0.977
    40   1 H    0.993 --    11 C    0.974
    41   1 H    0.996 --    12 C    0.964
    42   1 H    0.998 --    13 C    0.963
    43   1 H    0.995 --    14 C    0.969
    44   1 H    0.996 --    14 C    0.972
    45   1 H    0.995 --    15 C    0.962
    46   1 H    0.970 --    15 C    0.927
    47   1 H    0.987 --     2 C    0.901
    48   1 H    0.995 --    16 C    0.957
    49   1 H    0.991 --    18 C    0.964
    50   1 H    0.994 --    18 C    0.967
    51   1 H    0.990 --    19 C    0.967
    52   1 H    0.994 --    19 C    0.971
    53   1 H    0.952 --    23 C    0.905
    54   1 H    0.979 --    22 C    0.952
    55   1 H    0.995 --    25 C    0.975
    56   1 H    0.992 --    25 C    0.972
    57   1 H    0.993 --    25 C    0.977
    58   1 H    0.992 --    28 C    0.976
    59   1 H    0.993 --    28 C    0.974
    60   1 H    0.992 --    28 C    0.973
    61   1 H    0.989 --    29 C    0.953
    62   1 H    0.984 --    30 C    0.965
    63   1 H    0.988 --    30 C    0.962
    64   1 H    0.993 --    30 C    0.977
    65   1 H    0.992 --    31 C    0.960
    66   1 H    0.991 --    32 C    0.974
    67   1 H    0.997 --    32 C    0.982
    68   1 H    0.994 --    32 C    0.981
    69   1 H    0.993 --    33 C    0.977
    70   1 H    0.997 --    33 C    0.983
    71   1 H    0.994 --    33 C    0.980
    72   1 H    0.970 --     1 N    0.942
 ---------------------------------------------------------------------------

molecular dipole:
                 x           y           z       tot (Debye)
 q only:        0.536      -0.546      -0.275
   full:        0.868      -0.841      -0.254       3.139

           -------------------------------------------------
          | TOTAL ENERGY              -99.293410739258 Eh   |
          | GRADIENT NORM               0.003282938634 Eh/α |
          | HOMO-LUMO GAP               0.651464082162 eV   |
           -------------------------------------------------

 * finished run on 2024/04/06 at 11:17:10.864
