   * xtb version 6.6.1 (8d0f1dd) compiled by 'conda@1efc2f54142f' on 2023-08-01
          program call               : xtb xtbopt.xyz --opt crude --input .xc2 --gfn2

   ID    Z sym.   atoms
    1    6 C      1, 3, 5-7, 10, 11, 14
    2    7 N      2, 4, 9, 13
    3    8 O      8, 12
    4    1 H      15-25
########################################################################
[WARNING] Please study the warnings concerning your input carefully
-1- readin_getIntValue: could not parse ''
########################################################################

          :  Hamiltonian                  GFN2-xTB          :
 * total energy  :   -41.9281209 Eh     change       -0.2110312E-11 Eh
   *** GEOMETRY OPTIMIZATION CONVERGED AFTER 1 ITERATIONS ***

 final structure:
================
25
 xtb: 6.6.1 (8d0f1dd)
C            3.17903562537209        1.29221822574523       -0.59547732132521
N            2.71257557228716        0.28778009548511        0.33996777229142
C            3.43782067080445       -0.12453175760824        1.27815551522906
N            0.95637600099626       -2.35445377285756       -0.96200072521943
C            1.06724867728586       -1.22126252257000       -0.58817482186202
C            1.28560376306532       -0.10300703815250        0.07481742564532
C            0.35538748268042        0.91469922403901        0.48481616450326
O            0.67012636207521        1.93553036509654        1.04397408994768
N           -1.06956851194416        0.77426647315566        0.16464231040555
C           -1.82383162425300        2.01017066774955        0.39991614666703
C           -1.76192848114531       -0.23599298775207       -0.24843174783239
O           -3.00959937508580       -0.41466391288620       -0.63397538291813
N           -1.96032325573131       -1.48459922367153       -0.73366959707174
C           -2.16790742709146       -2.63397278281944        0.10825267926461
H            2.62410214511252        2.21870732151580       -0.44195704105257
H            4.23505399080442        1.47879949357773       -0.41489190430557
H            3.03336333230780        0.94957050019923       -1.61996379287496
H            3.09459303063075       -0.86080754246471        1.99184166387036
H           -1.33515384844566        2.82838487979900       -0.12758377031476
H           -2.84496949626743        1.89074888281639        0.04679140665041
H           -1.81678111715887        2.24077130704948        1.46541798395162
H           -2.50346305572174       -2.38619508359526        1.11699389265953
H           -1.21627260252556       -3.16315943268363        0.14963119445504
H           -2.90587245727376       -3.26575865251459       -0.38380760403506
H            0.92481611329894       -2.75500418505873       -1.88411291883403

          :  Hamiltonian                  GFN2-xTB          :
         :: total energy             -41.928120929730 Eh    ::
         :: gradient norm              0.009704369792 Eh/a0 ::
         :: HOMO-LUMO gap              1.327876574641 eV    ::
         :: SCC energy               -42.477656996929 Eh    ::
         :: -> dispersion             -0.021307556853 Eh    ::
         :: repulsion energy           0.549313049394 Eh    ::

    * Orbital Energies and Occupations

         #    Occupation            Energy/Eh            Energy/eV
      -------------------------------------------------------------
         1        2.0000           -0.9563055             -26.0224
       ...           ...                  ...                  ...
        25        2.0000           -0.6649645             -18.0946
        26        2.0000           -0.6622904             -18.0218
        27        1.9999           -0.6487666             -17.6538
        28        1.9999           -0.6451269             -17.5548
        29        1.9998           -0.6372539             -17.3406
        30        1.9998           -0.6336269             -17.2419
        31        1.9994           -0.6160149             -16.7626
        32        1.9994           -0.6148594             -16.7312
        33        1.9986           -0.6017374             -16.3741
        34        1.9969           -0.5894288             -16.0392
        35        1.9954           -0.5830462             -15.8655
        36        1.9823           -0.5616788             -15.2841
        37        1.6306           -0.5105192             -13.8919 (HOMO)
        38        0.3368           -0.4617207             -12.5641 (LUMO)
        39        0.0368           -0.4240544             -11.5391
        40        0.0135           -0.4079399             -11.1006
        41        0.0085           -0.4006311             -10.9017
        42        0.0024           -0.3806753             -10.3587
        43        0.0000           -0.3138236              -8.5396
        44        0.0000           -0.2427451              -6.6054
        45                         -0.2197742              -5.9804
        46                         -0.1402777              -3.8172
        47                         -0.1014154              -2.7597
        48                         -0.0910048              -2.4764
       ...                                ...                  ...
        67                          0.9304838              25.3198
      -------------------------------------------------------------
                  HL-Gap            0.0487986 Eh            1.3279 eV

     #   Z          covCN         q      C6AA      α(0)
     1   6 C        3.717    -0.083    22.204     6.732
     2   7 N        2.729     0.112    19.327     6.529
     3   6 C        1.869    -0.070    33.038     9.284
     4   7 N        1.772    -0.165    25.336     7.453
     5   6 C        1.900     0.110    28.398     8.606
     6   6 C        2.883    -0.037    28.911     8.815
     7   6 C        2.761     0.264    22.554     7.777
     8   8 O        0.859    -0.342    20.555     6.079
     9   7 N        2.726    -0.033    21.892     6.949
    10   6 C        3.726    -0.064    21.830     6.671
    11   6 C        2.721     0.285    22.176     7.709
    12   8 O        1.736    -0.182    17.046     5.575
    13   7 N        2.699    -0.022    21.675     6.915
    14   6 C        3.689    -0.065    21.943     6.704
    15   1 H        0.924     0.107     1.726     2.055
    16   1 H        0.925     0.115     1.653     2.011
    17   1 H        0.925     0.083     1.950     2.184
    18   1 H        0.925     0.096     1.818     2.109
    19   1 H        0.925     0.117     1.640     2.003
    20   1 H        0.925     0.103     1.757     2.073
    21   1 H        0.925     0.120     1.611     1.985
    22   1 H        0.924     0.079     1.986     2.204
    23   1 H        0.925     0.109     1.708     2.044
    24   1 H        0.925     0.120     1.617     1.989
    25   1 H        0.860     0.244     0.907     1.492

Wiberg/Mayer (AO) data.
largest (>0.10) Wiberg bond orders for each atom

     #   Z sym  total        # sym  WBO       # sym  WBO       # sym  WBO
 ---------------------------------------------------------------------------
     1   6 C    3.926 --     2 N    0.975    17 H    0.968    16 H    0.968
                            15 H    0.956
     2   7 N    3.715 --     3 C    1.822     1 C    0.975     6 C    0.852
     3   6 C    2.963 --     2 N    1.822    18 H    0.935
     4   7 N    3.335 --     5 C    2.142    25 H    0.889     6 C    0.136
     5   6 C    3.859 --     4 N    2.142     6 C    1.556
     6   6 C    3.857 --     5 C    1.556     7 C    1.116     2 N    0.852
                             4 N    0.136
     7   6 C    3.864 --     8 O    1.716     6 C    1.116     9 N    0.917
     8   8 O    2.027 --     7 C    1.716
     9   7 N    3.575 --    11 C    1.437    10 C    0.944     7 C    0.917
    10   6 C    3.903 --    20 H    0.973    19 H    0.963    21 H    0.959
                             9 N    0.944
    11   6 C    3.711 --     9 N    1.437    13 N    1.091    12 O    1.083
    12   8 O    2.127 --    11 C    1.083    13 N    0.858
    13   7 N    3.063 --    11 C    1.091    14 C    0.993    12 O    0.858
    14   6 C    3.924 --    13 N    0.993    22 H    0.973    24 H    0.963
                            23 H    0.945
    15   1 H    0.987 --     1 C    0.956
    16   1 H    0.985 --     1 C    0.968
    17   1 H    0.992 --     1 C    0.968
    18   1 H    0.963 --     3 C    0.935
    19   1 H    0.984 --    10 C    0.963
    20   1 H    0.988 --    10 C    0.973
    21   1 H    0.982 --    10 C    0.959
    22   1 H    0.992 --    14 C    0.973
    23   1 H    0.988 --    14 C    0.945
    24   1 H    0.984 --    14 C    0.963
    25   1 H    0.931 --     4 N    0.889
 ---------------------------------------------------------------------------

molecular dipole:
                 x           y           z       tot (Debye)
 q only:        0.293      -1.075      -0.735
   full:       -0.113      -1.258      -0.782       3.777

           -------------------------------------------------
          | TOTAL ENERGY              -41.928120929730 Eh   |
          | GRADIENT NORM               0.009704369792 Eh/α |
          | HOMO-LUMO GAP               1.327876574641 eV   |
           -------------------------------------------------

 * finished run on 2024/06/05 at 20:00:09.941
