   * xtb version 6.6.1 (8d0f1dd) compiled by 'conda@1efc2f54142f' on 2023-08-01
          program call               : xtb xtbopt.xyz --opt crude --input .xc2 --gfn2

   ID    Z sym.   atoms
    1    7 N      1, 17
    2    6 C      2-6, 8, 9, 11-16, 18-23, 25, 26, 28-33
    3    8 O      7, 10, 24, 27
    4    1 H      34-72

          :  Hamiltonian                  GFN2-xTB          :
 * total energy  :   -99.2751818 Eh     change       -0.8158452E-10 Eh
   *** GEOMETRY OPTIMIZATION CONVERGED AFTER 1 ITERATIONS ***

 final structure:
================
72
 xtb: 6.6.1 (8d0f1dd)
N           -1.93758215387830        2.86957879792030        2.27475238692640
C           -1.86375591640401        2.16037431959560        1.25020058943045
C           -2.98836518650144        1.93840796839657        0.27780288617109
C           -3.43393117888679        0.48514484904759        0.33789597203512
C           -4.32694707550464       -0.00536856788139       -0.61702899431731
C           -4.78648980792531       -1.31107620059190       -0.57582212999154
O           -5.65678289005354       -1.85862699892845       -1.44917068870355
C           -6.25431140979932       -1.04411649589252       -2.43049223048597
C           -4.33296230389827       -2.18048348630376        0.45284542600751
O           -4.82917242531685       -3.43343752094721        0.41492332292200
C           -4.50818929679807       -4.32853021697360        1.45435150478674
C           -3.44456980718115       -1.68830900493729        1.39552212175680
C           -3.00427028943355       -0.37167843531879        1.33928325059503
C           -2.40622713543988        2.26238934907338       -1.12274118840354
C           -1.45104536252613        1.19159344501716       -1.67919238308949
C           -0.13024673515388        1.16284737957617       -1.01159234682641
N            0.51761111175792        0.06199802938942       -0.64215152001360
C            1.89947020166504        0.12769436773082       -0.23110109265819
C            2.85343186992512       -0.29330595860061       -1.36744123195615
C            4.28075241537807       -0.16302235360842       -0.91684325256666
C            4.97323699072654        1.02825610739399       -1.10176337357040
C            6.28133901777085        1.15769278170637       -0.68007827887385
C            6.92386930706628        0.08953190708691       -0.05785834731325
O            8.21118624583963        0.08213132228628        0.36987572572769
C            9.00483700744386        1.10876606363425        0.37862344951964
C            6.22361697659441       -1.12997349865288        0.15336220279904
O            6.92043968337734       -2.09688053816160        0.77782158618389
C            6.30111244998244       -3.33452703174056        1.04799523842439
C            4.90965347082648       -1.22909173424759       -0.27911923160741
C           -0.08665381306816       -1.24577722689742       -0.72666569158651
C           -4.23052420184218        2.83671274642438        0.55514067603728
C           -4.88107289255423        2.49392593227038        1.89317932470043
C           -3.91653086194958        4.32912233189851        0.49971243778665
H           -4.68104728700579        0.64993768231291       -1.39531932114652
H           -6.79730003571095       -0.20755016200749       -1.98054427902219
H           -6.95692183715791       -1.68833533963294       -2.95526532060405
H           -5.51554407556078       -0.66212308641375       -3.14254877961231
H           -4.81705275884077       -3.93807409401509        2.42849999272830
H           -5.06371704982610       -5.23874809886161        1.23767551075734
H           -3.43709767254227       -4.55430786427624        1.47351924321939
H           -3.09655814913121       -2.31963914737850        2.19688971235709
H           -2.33964533414499       -0.01620887989398        2.11147318256994
H           -3.23036248425247        2.37679009011984       -1.82588837145216
H           -1.88159150936369        3.21707071839428       -1.07293217978961
H           -1.93728856150584        0.21816905763435       -1.64905122068545
H           -1.27607670263288        1.44490988681119       -2.73323304531435
H           -0.93701788478368        1.65043083803860        0.92005356431831
H            0.42115668684942        2.08962550216894       -0.95343291176283
H            2.04950656194748       -0.52839021450716        0.63057574646547
H            2.14115116904470        1.14891959031015        0.07053776220150
H            2.67569683822936        0.35080042974158       -2.23000351245564
H            2.64504590109439       -1.32392699693262       -1.65671708617767
H            4.49205204845616        1.85803011286266       -1.59525953646217
H            6.80302664761676        2.09823750339150       -0.85035903737647
H            7.71739285764565        3.72271136827117       -0.91155210265838
H            8.71186087527546        2.10110644428786        0.06897100588520
H           10.00594572501987        0.90351052296922        0.71587332783063
H            7.05643137081550       -3.93026803110631        1.55685440408037
H            5.43417641661301       -3.21163172507540        1.70432398592142
H            5.99933135411891       -3.84234046020015        0.12769128537803
H            4.36803371143073       -2.15083101881957       -0.13618797373466
H           -0.23520636667925       -1.54777448510088       -1.76560641762684
H           -1.05344701742020       -1.25284139939981       -0.21751361966846
H            0.56249680444561       -1.97173903209675       -0.24362704607992
H           -4.95508842247967        2.61438831768579       -0.23644484698137
H           -4.19942230496494        2.71817334540722        2.70714912852496
H           -5.15389860015603        1.44236717275088        1.93978152874882
H           -5.78233920952091        3.08715531503702        2.02206084122588
H           -3.16728499693054        4.58571697197475        1.24190830481537
H           -3.56847438166795        4.63439258070806       -0.48338447818464
H           -4.81977164052995        4.89101664173056        0.72157101511858
H           -1.10556109302455        2.97344703682607        2.84650026739654

          :  Hamiltonian                  GFN2-xTB          :
         :: total energy             -99.275181836234 Eh    ::
         :: gradient norm              0.004049676301 Eh/a0 ::
         :: HOMO-LUMO gap              0.515597548849 eV    ::
         :: SCC energy              -100.649052663529 Eh    ::
         :: -> dispersion             -0.075925941919 Eh    ::
         :: repulsion energy           1.372635992740 Eh    ::

    * Orbital Energies and Occupations

         #    Occupation            Energy/Eh            Energy/eV
      -------------------------------------------------------------
         1        2.0000           -0.8485618             -23.0905
       ...           ...                  ...                  ...
        78        1.9984           -0.5305709             -14.4376
        79        1.9982           -0.5291268             -14.3983
        80        1.9982           -0.5282959             -14.3757
        81        1.9975           -0.5231742             -14.2363
        82        1.9958           -0.5153061             -14.0222
        83        1.9951           -0.5126618             -13.9502
        84        1.9942           -0.5100129             -13.8782
        85        1.9940           -0.5096638             -13.8687
        86        1.9810           -0.4912070             -13.3664
        87        1.9730           -0.4855738             -13.2131
        88        1.9363           -0.4717014             -12.8356
        89        1.8726           -0.4602103             -12.5230
        90        1.2133           -0.4245111             -11.5515 (HOMO)
        91        0.6358           -0.4055632             -11.0359 (LUMO)
        92        0.3942           -0.3954088             -10.7596
        93        0.0141           -0.3393455              -9.2341
        94        0.0049           -0.3225704              -8.7776
        95        0.0040           -0.3192095              -8.6861
        96        0.0035           -0.3173736              -8.6362
        97        0.0029           -0.3142669              -8.5516
        98        0.0000           -0.1995085              -5.4289
        99        0.0000           -0.1916729              -5.2157
       100                         -0.1383722              -3.7653
       101                         -0.0725127              -1.9732
       ...                                ...                  ...
       171                          0.5714220              15.5492
      -------------------------------------------------------------
                  HL-Gap            0.0189479 Eh            0.5156 eV

     #   Z          covCN         q      C6AA      α(0)
     1   7 N        1.774    -0.267    27.758     7.802
     2   6 C        2.827     0.102    25.740     8.313
     3   6 C        3.908     0.006    20.412     6.422
     4   6 C        2.974     0.002    27.976     8.676
     5   6 C        2.920    -0.080    30.004     8.983
     6   6 C        2.862     0.129    25.165     8.223
     7   8 O        1.706    -0.230    17.817     5.699
     8   6 C        3.644     0.028    20.449     6.500
     9   6 C        2.864     0.128    25.187     8.226
    10   8 O        1.706    -0.229    17.796     5.696
    11   6 C        3.645     0.027    20.455     6.500
    12   6 C        2.914    -0.075    29.866     8.962
    13   6 C        2.921    -0.053    29.327     8.881
    14   6 C        3.813    -0.065    21.733     6.636
    15   6 C        3.802    -0.069    21.825     6.651
    16   6 C        2.843     0.006    27.880     8.653
    17   7 N        2.729     0.009    21.097     6.822
    18   6 C        3.755    -0.016    20.921     6.522
    19   6 C        3.808    -0.072    21.871     6.657
    20   6 C        2.969     0.007    27.853     8.657
    21   6 C        2.921    -0.046    29.132     8.851
    22   6 C        2.911    -0.054    29.330     8.881
    23   6 C        2.872     0.104    25.696     8.310
    24   8 O        1.710    -0.089    15.673     5.345
    25   6 C        2.735     0.039    27.097     8.523
    26   6 C        2.860     0.140    24.950     8.187
    27   8 O        1.706    -0.229    17.791     5.695
    28   6 C        3.644     0.025    20.490     6.506
    29   6 C        2.919    -0.080    29.992     8.981
    30   6 C        3.699    -0.070    22.015     6.710
    31   6 C        3.853    -0.007    20.673     6.467
    32   6 C        3.756    -0.119    22.828     6.812
    33   6 C        3.755    -0.119    22.831     6.813
    34   1 H        0.926     0.052     2.294     2.368
    35   1 H        0.924     0.054     2.271     2.357
    36   1 H        0.925     0.081     1.966     2.192
    37   1 H        0.924     0.047     2.353     2.399
    38   1 H        0.924     0.055     2.257     2.350
    39   1 H        0.925     0.081     1.967     2.193
    40   1 H        0.924     0.048     2.348     2.396
    41   1 H        0.926     0.052     2.298     2.371
    42   1 H        0.926     0.039     2.468     2.456
    43   1 H        0.925     0.061     2.193     2.316
    44   1 H        0.924     0.054     2.266     2.354
    45   1 H        0.925     0.066     2.126     2.280
    46   1 H        0.923     0.080     1.978     2.199
    47   1 H        0.922     0.006     2.957     2.689
    48   1 H        0.926     0.070     2.087     2.259
    49   1 H        0.924     0.067     2.119     2.276
    50   1 H        0.924     0.069     2.098     2.265
    51   1 H        0.924     0.059     2.209     2.324
    52   1 H        0.924     0.058     2.217     2.328
    53   1 H        0.926     0.057     2.240     2.340
    54   1 H        0.925     0.091     1.873     2.140
    55   1 H        0.000    -0.206    28.072     9.688
    56   1 H        0.926     0.094     1.838     2.120
    57   1 H        0.926     0.103     1.758     2.074
    58   1 H        0.925     0.084     1.939     2.177
    59   1 H        0.924     0.051     2.312     2.378
    60   1 H        0.924     0.055     2.259     2.351
    61   1 H        0.926     0.052     2.297     2.370
    62   1 H        0.924     0.076     2.021     2.223
    63   1 H        0.924     0.080     1.980     2.200
    64   1 H        0.925     0.079     1.993     2.208
    65   1 H        0.924     0.037     2.484     2.465
    66   1 H        0.925     0.069     2.096     2.264
    67   1 H        0.925     0.035     2.514     2.479
    68   1 H        0.925     0.051     2.303     2.373
    69   1 H        0.925     0.061     2.191     2.315
    70   1 H        0.925     0.035     2.516     2.480
    71   1 H        0.925     0.055     2.260     2.351
    72   1 H        0.860     0.157     1.351     1.821

Wiberg/Mayer (AO) data.
largest (>0.10) Wiberg bond orders for each atom

     #   Z sym  total        # sym  WBO       # sym  WBO       # sym  WBO
 ---------------------------------------------------------------------------
     1   7 N    3.041 --     2 C    1.958    72 H    0.941
     2   6 C    3.929 --     1 N    1.958     3 C    0.995    47 H    0.899
     3   6 C    3.976 --     2 C    0.995     4 C    0.970    14 C    0.957
                            31 C    0.942
     4   6 C    3.949 --    13 C    1.414     5 C    1.368     3 C    0.970
     5   6 C    3.962 --     6 C    1.401     4 C    1.368    34 H    0.958
     6   6 C    3.906 --     5 C    1.401     9 C    1.222     7 O    1.099
     7   8 O    2.254 --     6 C    1.099     8 C    0.978
     8   6 C    3.932 --     7 O    0.978    36 H    0.977    35 H    0.974
                            37 H    0.973
     9   6 C    3.902 --    12 C    1.392     6 C    1.222    10 O    1.101
    10   8 O    2.252 --     9 C    1.101    11 C    0.977
    11   6 C    3.931 --    10 O    0.977    39 H    0.977    40 H    0.974
                            38 H    0.974
    12   6 C    3.963 --    13 C    1.403     9 C    1.392    41 H    0.964
    13   6 C    3.955 --     4 C    1.414    12 C    1.403    42 H    0.963
    14   6 C    3.972 --    15 C    0.982    44 H    0.972    43 H    0.968
                             3 C    0.957
    15   6 C    3.986 --    16 C    1.060    14 C    0.982    45 H    0.961
                            46 H    0.927
    16   6 C    3.584 --    17 N    1.393    15 C    1.060    48 H    0.957
    17   7 N    3.473 --    16 C    1.393    30 C    0.998    18 C    0.990
    18   6 C    3.956 --    17 N    0.990    50 H    0.968    19 C    0.965
                            49 H    0.964
    19   6 C    3.976 --    20 C    1.010    51 H    0.971    52 H    0.971
                            18 C    0.965
    20   6 C    3.915 --    21 C    1.388    29 C    1.388    19 C    1.010
    21   6 C    3.970 --    22 C    1.448    20 C    1.388    53 H    0.967
    22   6 C    3.876 --    21 C    1.448    23 C    1.354    54 H    0.917
    23   6 C    3.887 --    22 C    1.354    26 C    1.227    24 O    1.050
    24   8 O    2.444 --    25 C    1.305    23 C    1.050
    25   6 C    3.354 --    24 O    1.305    57 H    0.963    56 H    0.947
    26   6 C    3.891 --    29 C    1.388    23 C    1.227    27 O    1.112
    27   8 O    2.272 --    26 C    1.112    28 C    0.974
    28   6 C    3.930 --    58 H    0.977    59 H    0.975    60 H    0.974
                            27 O    0.974
    29   6 C    3.961 --    20 C    1.388    26 C    1.388    61 H    0.962
    30   6 C    3.958 --    17 N    0.998    64 H    0.978    62 H    0.966
                            63 H    0.962
    31   6 C    3.972 --    33 C    1.009    32 C    1.008    65 H    0.960
                             3 C    0.942
    32   6 C    3.978 --    31 C    1.008    67 H    0.982    68 H    0.981
                            66 H    0.974
    33   6 C    3.982 --    31 C    1.009    70 H    0.983    71 H    0.980
                            69 H    0.977
    34   1 H    0.996 --     5 C    0.958
    35   1 H    0.993 --     8 C    0.974
    36   1 H    0.993 --     8 C    0.977
    37   1 H    0.994 --     8 C    0.973
    38   1 H    0.993 --    11 C    0.974
    39   1 H    0.993 --    11 C    0.977
    40   1 H    0.993 --    11 C    0.974
    41   1 H    0.996 --    12 C    0.964
    42   1 H    0.998 --    13 C    0.963
    43   1 H    0.995 --    14 C    0.968
    44   1 H    0.996 --    14 C    0.972
    45   1 H    0.995 --    15 C    0.961
    46   1 H    0.969 --    15 C    0.927
    47   1 H    0.986 --     2 C    0.899
    48   1 H    0.995 --    16 C    0.957
    49   1 H    0.991 --    18 C    0.964
    50   1 H    0.994 --    18 C    0.968
    51   1 H    0.995 --    19 C    0.971
    52   1 H    0.995 --    19 C    0.971
    53   1 H    0.996 --    21 C    0.967
    54   1 H    0.991 --    22 C    0.917
    55   1 H    0.064
    56   1 H    0.991 --    25 C    0.947
    57   1 H    0.987 --    25 C    0.963
    58   1 H    0.992 --    28 C    0.977
    59   1 H    0.995 --    28 C    0.975
    60   1 H    0.994 --    28 C    0.974
    61   1 H    0.996 --    29 C    0.962
    62   1 H    0.985 --    30 C    0.966
    63   1 H    0.987 --    30 C    0.962
    64   1 H    0.994 --    30 C    0.978
    65   1 H    0.992 --    31 C    0.960
    66   1 H    0.991 --    32 C    0.974
    67   1 H    0.997 --    32 C    0.982
    68   1 H    0.994 --    32 C    0.981
    69   1 H    0.993 --    33 C    0.977
    70   1 H    0.997 --    33 C    0.983
    71   1 H    0.994 --    33 C    0.980
    72   1 H    0.970 --     1 N    0.941
 ---------------------------------------------------------------------------

molecular dipole:
                 x           y           z       tot (Debye)
 q only:        0.634      -1.273      -0.350
   full:        0.985      -1.354      -0.465       4.417

           -------------------------------------------------
          | TOTAL ENERGY              -99.275181836234 Eh   |
          | GRADIENT NORM               0.004049676301 Eh/α |
          | HOMO-LUMO GAP               0.515597548849 eV   |
           -------------------------------------------------

 * finished run on 2024/04/06 at 11:14:30.734
