   * xtb version 6.6.1 (8d0f1dd) compiled by 'conda@1efc2f54142f' on 2023-08-01
          program call               : xtb xtbopt.xyz --opt crude --input .xc2 --gfn2

   ID    Z sym.   atoms
    1    6 C      1, 3, 5-7, 10, 11, 14
    2    7 N      2, 4, 9, 13
    3    8 O      8, 12
    4    1 H      15-25
########################################################################
[WARNING] Please study the warnings concerning your input carefully
-1- readin_getIntValue: could not parse ''
########################################################################

          :  Hamiltonian                  GFN2-xTB          :
 * total energy  :   -41.9937303 Eh     change       -0.9947598E-12 Eh
 * total energy  :   -41.9985098 Eh     change       -0.4779492E-02 Eh
 * total energy  :   -42.0025638 Eh     change       -0.4054032E-02 Eh
 * total energy  :   -42.0041327 Eh     change       -0.1568862E-02 Eh
 * total energy  :   -42.0052624 Eh     change       -0.1129667E-02 Eh
 * total energy  :   -42.0063119 Eh     change       -0.1049569E-02 Eh
 * total energy  :   -42.0072006 Eh     change       -0.8887162E-03 Eh
 * total energy  :   -42.0079600 Eh     change       -0.7593419E-03 Eh
 * total energy  :   -42.0085824 Eh     change       -0.6224489E-03 Eh
 * total energy  :   -42.0091255 Eh     change       -0.5430612E-03 Eh
 * total energy  :   -42.0103418 Eh     change       -0.1957009E-03 Eh
 * total energy  :   -42.0106101 Eh     change       -0.2683537E-03 Eh
 * total energy  :   -42.0108884 Eh     change       -0.2782583E-03 Eh
 * total energy  :   -42.0112453 Eh     change       -0.3569412E-03 Eh
 * total energy  :   -42.0118494 Eh     change       -0.6040469E-03 Eh
 * total energy  :   -42.0119971 Eh     change       -0.1477535E-03 Eh
 * total energy  :   -42.0124922 Eh     change       -0.4950979E-03 Eh
 * total energy  :   -42.0127843 Eh     change       -0.2920848E-03 Eh
 * total energy  :   -42.0130271 Eh     change       -0.2428461E-03 Eh
   *** GEOMETRY OPTIMIZATION CONVERGED AFTER 22 ITERATIONS ***

 final structure:
================
25
 xtb: 6.6.1 (8d0f1dd)
C            3.49033088658305        0.94216778303488        0.56636104093909
N            2.23565042783977        0.34694524412904        0.16004258317420
C            2.16822975697531       -0.51924530588807       -0.83907710740112
N            1.13915257569076       -1.33521504016675       -1.14352356308263
C            0.12024815188493       -1.92625737124542       -0.46769957177364
C            1.12455193541024        0.73528300146581        0.90168880263525
C           -0.04648745073131        1.12357569574486        0.27989012071290
O            0.63480291913252        2.19693906281043        0.53418444304547
N           -1.24954636341934        0.86593119873022       -0.14790225018363
C           -2.14724431713414        1.95664735709792       -0.52709127863145
C           -1.83283196322535       -0.41044327259414       -0.00001341283253
O           -3.02518835447124       -0.53400335604440        0.00452930721751
N           -0.97766816469894       -1.53777256278016        0.13447364201561
C           -1.68448195383143       -2.64516678467456        0.79943451461081
H            3.74845954310821        0.59350410632526        1.56724822187418
H            4.28266261185194        0.67664832564338       -0.12803206358455
H            3.37669833188497        2.02597237977141        0.60140673597544
H            3.08480340020006       -0.69193138275154       -1.38944374088863
H           -1.62959429402549        2.90262332673936       -0.38880788656509
H           -2.43689703107679        1.83063533714394       -1.57032804286719
H           -3.04280391710062        1.92201310474556        0.09198618721155
H           -1.88209504137175       -2.36901614484646        1.83438634573625
H           -1.05830651105423       -3.53180174331964        0.76300583985067
H           -2.63369149203892       -2.83767621221535        0.30167340395694
H            1.40167782772306       -1.96211820525885       -1.90722065324605

          :  Hamiltonian                  GFN2-xTB          :
         :: total energy             -42.013027135446 Eh    ::
         :: gradient norm              0.006820211770 Eh/a0 ::
         :: HOMO-LUMO gap              1.449560322431 eV    ::
         :: SCC energy               -42.514992909751 Eh    ::
         :: -> dispersion             -0.022319793394 Eh    ::
         :: repulsion energy           0.501758124950 Eh    ::

    * Orbital Energies and Occupations

         #    Occupation            Energy/Eh            Energy/eV
      -------------------------------------------------------------
         1        2.0000           -0.9060303             -24.6543
       ...           ...                  ...                  ...
        25        2.0000           -0.6713226             -18.2676
        26        2.0000           -0.6589318             -17.9304
        27        2.0000           -0.6537088             -17.7883
        28        1.9999           -0.6380335             -17.3618
        29        1.9998           -0.6304571             -17.1556
        30        1.9997           -0.6211046             -16.9011
        31        1.9996           -0.6197555             -16.8644
        32        1.9994           -0.6111517             -16.6303
        33        1.9986           -0.5989829             -16.2992
        34        1.9986           -0.5986085             -16.2890
        35        1.9982           -0.5943608             -16.1734
        36        1.9407           -0.5386249             -14.6567
        37        1.6786           -0.5095735             -13.8662 (HOMO)
        38        0.3060           -0.4563031             -12.4166 (LUMO)
        39        0.0690           -0.4306408             -11.7183
        40        0.0111           -0.4012679             -10.9191
        41        0.0009           -0.3606165              -9.8129
        42        0.0000           -0.3085043              -8.3948
        43                         -0.2121951              -5.7741
        44                         -0.1832367              -4.9861
        45                         -0.1362012              -3.7062
        46                         -0.1193376              -3.2473
        47                         -0.0924222              -2.5149
        48                         -0.0609558              -1.6587
       ...                                ...                  ...
        67                          0.5881463              16.0043
      -------------------------------------------------------------
                  HL-Gap            0.0532704 Eh            1.4496 eV

     #   Z          covCN         q      C6AA      α(0)
     1   6 C        3.711    -0.077    22.107     6.719
     2   7 N        2.735     0.042    20.507     6.726
     3   6 C        2.781     0.054    26.766     8.474
     4   7 N        2.682    -0.059    22.388     7.027
     5   6 C        1.871    -0.034    32.037     9.142
     6   6 C        2.722    -0.017    28.411     8.726
     7   6 C        2.791     0.251    22.785     7.819
     8   8 O        1.650    -0.269    18.486     5.804
     9   7 N        2.729    -0.039    21.992     6.965
    10   6 C        3.706    -0.061    21.829     6.679
    11   6 C        2.731     0.305    21.814     7.646
    12   8 O        0.859    -0.324    20.219     6.029
    13   7 N        2.728     0.009    21.108     6.824
    14   6 C        3.747    -0.080    22.100     6.705
    15   1 H        0.924     0.110     1.700     2.039
    16   1 H        0.925     0.089     1.890     2.150
    17   1 H        0.924     0.111     1.688     2.031
    18   1 H        0.925     0.099     1.797     2.096
    19   1 H        0.925     0.105     1.744     2.065
    20   1 H        0.925     0.099     1.794     2.095
    21   1 H        0.925     0.114     1.661     2.016
    22   1 H        0.925     0.100     1.781     2.087
    23   1 H        0.925     0.108     1.712     2.046
    24   1 H        0.925     0.119     1.622     1.992
    25   1 H        0.860     0.245     0.902     1.488

Wiberg/Mayer (AO) data.
largest (>0.10) Wiberg bond orders for each atom

     #   Z sym  total        # sym  WBO       # sym  WBO       # sym  WBO
 ---------------------------------------------------------------------------
     1   6 C    3.925 --     2 N    0.978    16 H    0.975    17 H    0.963
                            15 H    0.957
     2   7 N    3.567 --     3 C    1.354     6 C    1.055     1 C    0.978
     3   6 C    3.842 --     2 N    1.354     4 N    1.263    18 H    0.945
                             5 C    0.124
     4   7 N    3.550 --     3 C    1.263     5 C    1.211    25 H    0.895
     5   6 C    2.990 --    13 N    1.456     4 N    1.211     3 C    0.124
     6   6 C    3.199 --     7 C    1.180     2 N    1.055     8 O    0.759
     7   6 C    3.840 --     9 N    1.344     8 O    1.211     6 C    1.180
     8   8 O    2.165 --     7 C    1.211     6 C    0.759
     9   7 N    3.601 --     7 C    1.344    11 C    1.016    10 C    0.948
    10   6 C    3.911 --    19 H    0.975    20 H    0.968    21 H    0.963
                             9 N    0.948
    11   6 C    3.869 --    12 O    1.738     9 N    1.016    13 N    1.005
    12   8 O    2.036 --    11 C    1.738
    13   7 N    3.604 --     5 C    1.456    11 C    1.005    14 C    0.951
    14   6 C    3.906 --    23 H    0.973    22 H    0.968    24 H    0.959
                            13 N    0.951
    15   1 H    0.979 --     1 C    0.957
    16   1 H    0.991 --     1 C    0.975
    17   1 H    0.982 --     1 C    0.963
    18   1 H    0.987 --     3 C    0.945
    19   1 H    0.988 --    10 C    0.975
    20   1 H    0.989 --    10 C    0.968
    21   1 H    0.985 --    10 C    0.963
    22   1 H    0.988 --    14 C    0.968
    23   1 H    0.988 --    14 C    0.973
    24   1 H    0.980 --    14 C    0.959
    25   1 H    0.932 --     4 N    0.895
 ---------------------------------------------------------------------------

molecular dipole:
                 x           y           z       tot (Debye)
 q only:        1.582      -1.179      -0.708
   full:        1.777      -0.798      -1.135       5.729

           -------------------------------------------------
          | TOTAL ENERGY              -42.013027135446 Eh   |
          | GRADIENT NORM               0.006820211770 Eh/α |
          | HOMO-LUMO GAP               1.449560322431 eV   |
           -------------------------------------------------

 * finished run on 2024/06/05 at 20:00:10.105
