   * xtb version 6.6.1 (8d0f1dd) compiled by 'conda@1efc2f54142f' on 2023-08-01
          program call               : xtb struc.xyz --opt loose --input .xc1 --gfn2

   ID    Z sym.   atoms
    1    6 C      1, 3, 5-7, 10, 11, 14
    2    7 N      2, 4, 9, 13
    3    8 O      8, 12
    4    1 H      15-25
constraining bond 8 15 to    5.6333300 Å, actual value:    3.6386098 Å

          :  Hamiltonian                  GFN2-xTB          :
 * total energy  :   -49.3523279 Eh     change       -0.6650680E-10 Eh
 * total energy  :   -55.6061226 Eh     change       -0.6253795E+01 Eh
 * total energy  :   -63.7839058 Eh     change       -0.8177783E+01 Eh
 * total energy  :   -73.9296018 Eh     change       -0.1014570E+02 Eh
 * total energy  :   -85.8852321 Eh     change       -0.1195563E+02 Eh
 * total energy  :   -66.5852439 Eh     change        0.1929999E+02 Eh
 * total energy  :   -82.6888569 Eh     change       -0.1610361E+02 Eh
 * total energy  :   -83.2481956 Eh     change       -0.5593388E+00 Eh
 * total energy  :   -86.1085952 Eh     change       -0.2860400E+01 Eh
 * total energy  :   -76.0518089 Eh     change        0.1005679E+02 Eh
 * total energy  :   -89.1730967 Eh     change       -0.8459995E-04 Eh
 * total energy  :   -89.1731655 Eh     change       -0.6886525E-04 Eh
 * total energy  :   -89.1732258 Eh     change       -0.6027456E-04 Eh
 * total energy  :   -89.1732454 Eh     change       -0.1954856E-04 Eh
 * total energy  :   -89.1733195 Eh     change       -0.7409654E-04 Eh
 * total energy  :   -89.1733655 Eh     change       -0.4603123E-04 Eh
 * total energy  :   -89.1729682 Eh     change        0.3973095E-03 Eh
 * total energy  :   -89.1733847 Eh     change       -0.4165447E-03 Eh
 * total energy  :   -89.1733957 Eh     change       -0.1100136E-04 Eh
   *** GEOMETRY OPTIMIZATION CONVERGED AFTER 124 ITERATIONS ***

 final structure:
================
25
 xtb: 6.6.1 (8d0f1dd)
C            3.23219942462672        0.96656416976382        0.09729436731702
N            2.31574077123607       -0.00462135831850        0.04201578072090
C            2.55474888983169       -1.34772428556443        0.00222655517845
N            1.36339337693388       -2.02455539660090       -0.04035911445567
C            0.36051566575151       -1.13241311391729       -0.03221247401382
C            0.92378989709602        0.15967020158838        0.01905638812472
C            0.09296750616258        1.25814554405771        0.03384173770577
O            2.86265081359206        2.26727791529386        0.12559564971070
N           -1.25329233898820        1.03344831843813       -0.00632860779525
C           -2.16318753537223        2.16229572877597        0.03661482203726
C           -1.84891058970965       -0.22306844107569       -0.05053897917930
O           -3.04018230430029       -0.36808936129981       -0.07955378427642
N           -0.98129730221538       -1.32791765935234       -0.06449094281459
C           -1.54506160726163       -2.66090054631064       -0.11297539906755
H            3.08237193929343        2.57270414772830        0.16851184149108
H            4.27449940563730        0.68692298384053        0.10807058889140
H            0.43134215210826        2.27659666913525        0.07381871294499
H            3.51808899049105       -1.80440684174001        0.01482354623050
H           -1.69308193105449        3.03352103577667       -0.41165894714587
H           -3.06971200614185        1.90703669483280       -0.51068566848738
H           -2.44134404861115        2.38669080654436        1.06815227148326
H           -1.22251825366496       -3.24166545743098        0.75182948924646
H           -1.25056160629593       -3.16673486971454       -1.03344248204733
H           -2.62926186752203       -2.56150238101264       -0.09314055814017
H            1.28653407247622       -3.02903596183915       -0.07529317576073

          :  Hamiltonian                  GFN2-xTB          :
         :: total energy             -89.173395736487 Eh    ::
         :: gradient norm              0.002974484885 Eh/a0 ::
         :: HOMO-LUMO gap              1.161965988010 eV    ::
         :: SCC energy               -42.750833133376 Eh    ::
         :: -> dispersion             -0.022595701423 Eh    ::
         :: repulsion energy           2.878137297001 Eh    ::

    * Orbital Energies and Occupations

         #    Occupation            Energy/Eh            Energy/eV
      -------------------------------------------------------------
         1        2.0000           -0.9024631             -24.5573
       ...           ...                  ...                  ...
        25        2.0000           -0.6637777             -18.0623
        26        2.0000           -0.6578679             -17.9015
        27        2.0000           -0.6412046             -17.4481
        28        2.0000           -0.6391878             -17.3932
        29        2.0000           -0.6360848             -17.3087
        30        1.9999           -0.6175775             -16.8051
        31        1.9999           -0.6137415             -16.7008
        32        1.9999           -0.6111098             -16.6291
        33        1.9999           -0.6057506             -16.4833
        34        1.9995           -0.5846041             -15.9079
        35        1.9980           -0.5627406             -15.3130
        36        1.9945           -0.5466034             -14.8738
        37        1.5815           -0.4742490             -12.9050 (HOMO)
        38        0.4061           -0.4315476             -11.7430 (LUMO)
        39        0.0176           -0.3783522             -10.2955
        40        0.0032           -0.3515056              -9.5650
        41        0.0000           -0.2834879              -7.7141
        42        0.0000           -0.1947129              -5.2984
        43                         -0.1699262              -4.6239
        44                         -0.1265556              -3.4438
        45                         -0.1127146              -3.0671
        46                         -0.0770578              -2.0969
        47                         -0.0583759              -1.5885
        48                         -0.0255325              -0.6948
       ...                                ...                  ...
        67                          6.1002197             165.9954
      -------------------------------------------------------------
                  HL-Gap            0.0427015 Eh            1.1620 eV

     #   Z          covCN         q      C6AA      α(0)
     1   6 C        2.787     0.090    25.992     8.351
     2   7 N        2.798     0.069    20.048     6.650
     3   6 C        3.014    -0.013    28.328     8.731
     4   7 N        2.765    -0.058    22.353     7.022
     5   6 C        3.020     0.101    25.747     8.323
     6   6 C        3.071     0.014    27.628     8.618
     7   6 C        2.852    -0.004    28.126     8.692
     8   8 O        1.664    -0.369    20.249     6.075
     9   7 N        2.745    -0.023    21.687     6.916
    10   6 C        3.707    -0.073    22.041     6.711
    11   6 C        2.725     0.312    21.697     7.625
    12   8 O        0.859    -0.375    21.179     6.170
    13   7 N        2.737    -0.056    22.324     7.017
    14   6 C        3.698    -0.071    22.028     6.713
    15   1 H        0.885     0.368     0.541     1.151
    16   1 H        0.926     0.082     1.954     2.186
    17   1 H        0.926     0.108     1.718     2.049
    18   1 H        0.927     0.101     1.779     2.086
    19   1 H        0.925     0.088     1.895     2.152
    20   1 H        0.925     0.114     1.665     2.018
    21   1 H        0.924     0.094     1.839     2.120
    22   1 H        0.924     0.079     1.987     2.205
    23   1 H        0.924     0.080     1.974     2.197
    24   1 H        0.925     0.123     1.590     1.972
    25   1 H        0.860     0.219     1.016     1.579

Wiberg/Mayer (AO) data.
largest (>0.10) Wiberg bond orders for each atom

     #   Z sym  total        # sym  WBO       # sym  WBO       # sym  WBO
 ---------------------------------------------------------------------------
     1   6 C    3.564 --     2 N    1.275     8 O    1.120    16 H    0.950
                             3 C    0.120
     2   7 N    3.694 --     1 C    1.275     3 C    1.197     6 C    1.059
     3   6 C    3.632 --     2 N    1.197     4 N    1.187    18 H    0.961
                             1 C    0.120
     4   7 N    3.548 --     5 C    1.253     3 C    1.187    25 H    0.924
     5   6 C    3.845 --     4 N    1.253     6 C    1.223    13 N    1.175
     6   6 C    3.909 --     7 C    1.394     5 C    1.223     2 N    1.059
     7   6 C    3.699 --     6 C    1.394     9 N    1.209    17 H    0.953
     8   8 O    2.111 --     1 C    1.120    15 H    0.858
     9   7 N    3.530 --     7 C    1.209    11 C    1.098    10 C    0.981
                            12 O    0.127
    10   6 C    3.928 --     9 N    0.981    19 H    0.975    20 H    0.966
                            21 H    0.962
    11   6 C    3.946 --    12 O    1.697     9 N    1.098    13 N    1.058
    12   8 O    2.050 --    11 C    1.697    13 N    0.131     9 N    0.127
    13   7 N    3.488 --     5 C    1.175    11 C    1.058    14 C    0.979
                            12 O    0.131
    14   6 C    3.931 --    13 N    0.979    22 H    0.971    23 H    0.970
                            24 H    0.965
    15   1 H    0.865 --     8 O    0.858
    16   1 H    0.992 --     1 C    0.950
    17   1 H    0.987 --     7 C    0.953
    18   1 H    0.989 --     3 C    0.961
    19   1 H    0.990 --    10 C    0.975
    20   1 H    0.984 --    10 C    0.966
    21   1 H    0.982 --    10 C    0.962
    22   1 H    0.989 --    14 C    0.971
    23   1 H    0.988 --    14 C    0.970
    24   1 H    0.984 --    14 C    0.965
    25   1 H    0.951 --     4 N    0.924
 ---------------------------------------------------------------------------

molecular dipole:
                 x           y           z       tot (Debye)
 q only:        2.191      -0.556       0.043
   full:        2.723      -0.560       0.082       7.069

           -------------------------------------------------
          | TOTAL ENERGY              -89.173395736487 Eh   |
          | GRADIENT NORM               0.002974484885 Eh/α |
          | HOMO-LUMO GAP               1.161965988010 eV   |
           -------------------------------------------------

 * finished run on 2024/06/05 at 19:58:12.186
