   * xtb version 6.6.1 (8d0f1dd) compiled by 'conda@1efc2f54142f' on 2023-08-01
          program call               : xtb xtbopt.xyz --opt crude --input .xc2 --gfn2

   ID    Z sym.   atoms
    1    7 N      1, 17
    2    6 C      2-6, 8, 9, 11-16, 18-23, 25, 26, 28-33
    3    8 O      7, 10, 24, 27
    4    1 H      34-72

          :  Hamiltonian                  GFN2-xTB          :
 * total energy  :   -99.2500238 Eh     change       -0.4067147E-10 Eh
   *** GEOMETRY OPTIMIZATION CONVERGED AFTER 1 ITERATIONS ***

 final structure:
================
72
 xtb: 6.6.1 (8d0f1dd)
N           -1.74491388038276        2.89297443527542        2.17076478944611
C           -1.70620356228507        2.17593557997904        1.15118883625464
C           -2.85752262489419        1.97695601863266        0.20139934982957
C           -3.36309475493141        0.54714517944470        0.30104449371818
C           -4.27273917340137        0.06305088049150       -0.64158487683381
C           -4.75999517688257       -1.23270629166007       -0.57865170523762
O           -5.63477085510318       -1.78035288652357       -1.44496723282910
C           -6.19866509038463       -0.98338664911365       -2.46038239739794
C           -4.32452750225857       -2.09460384438083        0.46594394686334
O           -4.83674920110806       -3.33967356919145        0.44229037065406
C           -4.52482119421589       -4.23042687755649        1.48843790702505
C           -3.43105364567906       -1.60272590511747        1.40519066114421
C           -2.95847038992836       -0.29911730423141        1.32283736147694
C           -2.28519230085041        2.24760887763297       -1.21521353381477
C           -1.42828589343075        1.10562644019695       -1.79402732633474
C           -0.12803840258644        0.93638619206009       -1.11386696705808
N            0.38268901679717       -0.20107024533682       -0.70716153928943
C            1.72771562544014       -0.23680468863232       -0.17941471589094
C            2.72756352870545       -0.80912245735531       -1.19635467676973
C            4.12428529484860       -0.45246941988215       -0.77745752792732
C            4.60200331364105        0.82489671894841       -0.86557299865230
C            5.84493595164876        1.25485355715741       -0.52799704367799
C            6.74338093966085        0.30656966584635       -0.02450921668751
O            8.00964462549332        0.55231639231894        0.33729403366081
C            8.54575379042889        1.84368523592469        0.15864302730639
C            6.29923483970603       -1.03891967698479        0.12891568968682
O            7.22076935792368       -1.87802936859318        0.64377194030827
C            6.88656324710102       -3.22993721982122        0.85439623303215
C            5.01029892893566       -1.39566951943334       -0.24309110158650
C           -0.31854783023817       -1.46122977600717       -0.80924999835548
C           -4.05215126810262        2.93846435047585        0.48212168022762
C           -4.71675210818613        2.62729541705062        1.82097734782100
C           -3.66048552105221        4.41207466451518        0.43115590159167
H           -4.61534093885457        0.71384433818937       -1.42903866779765
H           -6.73870667020612       -0.12756033698754       -2.04502146127038
H           -6.89910149665477       -1.63162316261263       -2.98321040852520
H           -5.43880110970903       -0.63148610493180       -3.16571131967103
H           -4.83199756276784       -3.83085416816045        2.45908878530304
H           -5.08705560862964       -5.13772612071825        1.27698512246162
H           -3.45564509628589       -4.46445195049621        1.51075530784905
H           -3.09966029149706       -2.22635918559468        2.21938355612603
H           -2.28222663646752        0.05555740842958        2.08480211470927
H           -3.11249614136294        2.42532433998635       -1.90184412679986
H           -1.68383792829045        3.15669110932110       -1.17998582804154
H           -2.00288622975497        0.18045697316905       -1.81000381718730
H           -1.20636841843631        1.38355996132331       -2.83196936863318
H           -0.79927298029678        1.64249111702446        0.81363073840632
H            0.50967011278237        1.81111786174396       -1.00333846350798
H            1.74159624283448       -0.82754990885514        0.73963353304105
H            2.02931918235999        0.80054817163777        0.05955087411478
H            2.52731409106304       -0.35767306190765       -2.17052627026095
H            2.61981766462105       -1.89116018728766       -1.28298244234993
H            1.96490160146032        2.56241488589551        0.09487479197522
H            6.13464980890569        2.28669852727566       -0.63917239464636
H            8.01714136635765        2.58402052813834        0.76651606729440
H            8.51883585706418        2.14379857368565       -0.89322214827000
H            9.58078337541836        1.77920565455096        0.48957966095146
H            7.77775161941423       -3.68631061381645        1.28084267427318
H            6.05549555963492       -3.33169718254876        1.55928917247082
H            6.63667865171481       -3.73321493378077       -0.08462795044934
H            4.67644229498879       -2.41677920091103       -0.14223006534335
H           -0.43256972725899       -1.76106285623641       -1.85268015627971
H           -1.30696418614232       -1.38986401504193       -0.35088609965594
H            0.25021266932588       -2.22764685088712       -0.28921719205714
H           -4.78875471904314        2.75574616420175       -0.30906057063406
H           -4.00975764801449        2.77590941415142        2.63101003695121
H           -5.08128952999344        1.60327759783974        1.85244277920689
H           -5.56029708131859        3.29545470317472        1.97238946095742
H           -2.93498363479509        4.63592854139098        1.20741909709448
H           -3.24743599014128        4.69067236629392       -0.53441592013805
H           -4.54290305738881        5.02227944049425        0.60535799880060
H           -0.89759990205926        2.99256777922091        2.71998703042794

          :  Hamiltonian                  GFN2-xTB          :
         :: total energy             -99.250023790461 Eh    ::
         :: gradient norm              0.001541998939 Eh/a0 ::
         :: HOMO-LUMO gap              0.388944470932 eV    ::
         :: SCC energy              -100.619851799744 Eh    ::
         :: -> dispersion             -0.078718622360 Eh    ::
         :: repulsion energy           1.368419105644 Eh    ::

    * Orbital Energies and Occupations

         #    Occupation            Energy/Eh            Energy/eV
      -------------------------------------------------------------
         1        2.0000           -0.8169215             -22.2296
       ...           ...                  ...                  ...
        78        1.9977           -0.5346623             -14.5489
        79        1.9976           -0.5340959             -14.5335
        80        1.9971           -0.5312967             -14.4573
        81        1.9965           -0.5280287             -14.3684
        82        1.9939           -0.5193755             -14.1329
        83        1.9927           -0.5163961             -14.0519
        84        1.9915           -0.5140024             -13.9867
        85        1.9765           -0.4978089             -13.5461
        86        1.9725           -0.4952509             -13.4765
        87        1.8999           -0.4742197             -12.9042
        88        1.8433           -0.4666364             -12.6978
        89        1.7874           -0.4613254             -12.5533
        90        1.3688           -0.4398660             -11.9694 (HOMO)
        91        0.9357           -0.4255725             -11.5804 (LUMO)
        92        0.2435           -0.3963250             -10.7846
        93        0.0088           -0.3416973              -9.2981
        94        0.0029           -0.3242527              -8.8234
        95        0.0026           -0.3224612              -8.7746
        96        0.0024           -0.3210901              -8.7373
        97        0.0011           -0.3087689              -8.4020
        98        0.0000           -0.1987315              -5.4078
        99        0.0000           -0.1911597              -5.2017
       100                         -0.1360096              -3.7010
       101                         -0.0728794              -1.9832
       ...                                ...                  ...
       171                          0.5635120              15.3339
      -------------------------------------------------------------
                  HL-Gap            0.0142934 Eh            0.3889 eV

     #   Z          covCN         q      C6AA      α(0)
     1   7 N        1.774    -0.254    27.442     7.757
     2   6 C        2.827     0.103    25.721     8.310
     3   6 C        3.907     0.007    20.407     6.421
     4   6 C        2.973     0.004    27.936     8.670
     5   6 C        2.920    -0.080    30.002     8.982
     6   6 C        2.861     0.130    25.152     8.221
     7   8 O        1.706    -0.226    17.756     5.689
     8   6 C        3.644     0.026    20.474     6.504
     9   6 C        2.864     0.129    25.172     8.224
    10   8 O        1.706    -0.225    17.730     5.685
    11   6 C        3.645     0.025    20.481     6.504
    12   6 C        2.913    -0.074    29.845     8.958
    13   6 C        2.921    -0.052    29.289     8.875
    14   6 C        3.812    -0.065    21.734     6.636
    15   6 C        3.802    -0.070    21.838     6.653
    16   6 C        2.848     0.023    27.476     8.591
    17   7 N        2.729     0.035    20.638     6.747
    18   6 C        3.760    -0.028    21.123     6.552
    19   6 C        3.807    -0.063    21.700     6.631
    20   6 C        2.964     0.019    27.591     8.616
    21   6 C        2.027    -0.050    32.363     9.188
    22   6 C        2.908    -0.054    29.330     8.880
    23   6 C        2.876     0.140    24.956     8.189
    24   8 O        1.706    -0.207    17.446     5.639
    25   6 C        3.645     0.022    20.532     6.512
    26   6 C        2.859     0.130    25.149     8.220
    27   8 O        1.706    -0.220    17.651     5.672
    28   6 C        3.644     0.025    20.499     6.508
    29   6 C        2.932    -0.074    29.859     8.962
    30   6 C        3.700    -0.075    22.103     6.723
    31   6 C        3.853    -0.007    20.661     6.465
    32   6 C        3.756    -0.119    22.834     6.813
    33   6 C        3.755    -0.120    22.855     6.817
    34   1 H        0.926     0.054     2.267     2.354
    35   1 H        0.924     0.056     2.244     2.342
    36   1 H        0.925     0.083     1.944     2.180
    37   1 H        0.924     0.049     2.333     2.389
    38   1 H        0.924     0.058     2.227     2.334
    39   1 H        0.925     0.083     1.945     2.181
    40   1 H        0.924     0.050     2.323     2.384
    41   1 H        0.926     0.055     2.259     2.350
    42   1 H        0.926     0.043     2.408     2.427
    43   1 H        0.925     0.063     2.162     2.299
    44   1 H        0.924     0.062     2.179     2.308
    45   1 H        0.925     0.066     2.126     2.280
    46   1 H        0.924     0.090     1.882     2.145
    47   1 H        0.922     0.019     2.744     2.591
    48   1 H        0.925     0.112     1.681     2.027
    49   1 H        0.924     0.067     2.122     2.278
    50   1 H        0.922     0.110     1.695     2.036
    51   1 H        0.924     0.065     2.144     2.290
    52   1 H        0.924     0.053     2.280     2.361
    53   1 H        0.000    -0.317    64.137    14.644
    54   1 H        0.926     0.082     1.959     2.189
    55   1 H        0.924     0.062     2.174     2.306
    56   1 H        0.924     0.061     2.182     2.310
    57   1 H        0.925     0.087     1.905     2.158
    58   1 H        0.925     0.086     1.922     2.168
    59   1 H        0.924     0.053     2.279     2.361
    60   1 H        0.924     0.056     2.252     2.347
    61   1 H        0.926     0.063     2.169     2.303
    62   1 H        0.924     0.081     1.974     2.197
    63   1 H        0.924     0.081     1.967     2.193
    64   1 H        0.925     0.084     1.943     2.180
    65   1 H        0.924     0.039     2.456     2.451
    66   1 H        0.925     0.070     2.083     2.257
    67   1 H        0.925     0.036     2.501     2.473
    68   1 H        0.925     0.055     2.264     2.353
    69   1 H        0.925     0.066     2.130     2.282
    70   1 H        0.925     0.038     2.473     2.459
    71   1 H        0.925     0.056     2.241     2.341
    72   1 H        0.860     0.169     1.281     1.773

Wiberg/Mayer (AO) data.
largest (>0.10) Wiberg bond orders for each atom

     #   Z sym  total        # sym  WBO       # sym  WBO       # sym  WBO
 ---------------------------------------------------------------------------
     1   7 N    3.041 --     2 C    1.965    72 H    0.936
     2   6 C    3.934 --     1 N    1.965     3 C    0.991    47 H    0.898
     3   6 C    3.971 --     2 C    0.991     4 C    0.972    14 C    0.957
                            31 C    0.939
     4   6 C    3.943 --    13 C    1.408     5 C    1.369     3 C    0.972
     5   6 C    3.959 --     6 C    1.398     4 C    1.369    34 H    0.958
     6   6 C    3.900 --     5 C    1.398     9 C    1.217     7 O    1.104
     7   8 O    2.254 --     6 C    1.104     8 C    0.977
     8   6 C    3.929 --     7 O    0.977    36 H    0.976    35 H    0.973
                            37 H    0.973
     9   6 C    3.895 --    12 C    1.388     6 C    1.217    10 O    1.106
    10   8 O    2.252 --     9 C    1.106    11 C    0.976
    11   6 C    3.929 --    39 H    0.976    10 O    0.976    40 H    0.973
                            38 H    0.973
    12   6 C    3.959 --    13 C    1.405     9 C    1.388    41 H    0.963
    13   6 C    3.948 --     4 C    1.408    12 C    1.405    42 H    0.962
    14   6 C    3.973 --    15 C    0.977    44 H    0.971    43 H    0.968
                             3 C    0.957
    15   6 C    3.986 --    16 C    1.063    14 C    0.977    45 H    0.960
                            46 H    0.924
    16   6 C    3.678 --    17 N    1.491    15 C    1.063    48 H    0.924
    17   7 N    3.563 --    16 C    1.491    30 C    0.992    18 C    0.981
    18   6 C    3.895 --    17 N    0.981    19 C    0.968    49 H    0.962
                            50 H    0.907
    19   6 C    3.970 --    20 C    1.002    52 H    0.973    18 C    0.968
                            51 H    0.965
    20   6 C    3.894 --    21 C    1.414    29 C    1.333    19 C    1.002
    21   6 C    3.071 --    22 C    1.475    20 C    1.414
    22   6 C    3.926 --    21 C    1.475    23 C    1.314    54 H    0.943
    23   6 C    3.832 --    22 C    1.314    26 C    1.217    24 O    1.123
    24   8 O    2.259 --    23 C    1.123    25 C    0.970
    25   6 C    3.919 --    57 H    0.975    56 H    0.971    24 O    0.970
                            55 H    0.970
    26   6 C    3.884 --    29 C    1.392    23 C    1.217    27 O    1.105
    27   8 O    2.241 --    26 C    1.105    28 C    0.976
    28   6 C    3.927 --    27 O    0.976    58 H    0.976    59 H    0.972
                            60 H    0.972
    29   6 C    3.900 --    26 C    1.392    20 C    1.333    61 H    0.951
    30   6 C    3.951 --    17 N    0.992    64 H    0.978    62 H    0.965
                            63 H    0.960
    31   6 C    3.967 --    33 C    1.009    32 C    1.008    65 H    0.958
                             3 C    0.939
    32   6 C    3.973 --    31 C    1.008    67 H    0.981    68 H    0.980
                            66 H    0.972
    33   6 C    3.976 --    31 C    1.009    70 H    0.982    71 H    0.979
                            69 H    0.973
    34   1 H    0.996 --     5 C    0.958
    35   1 H    0.992 --     8 C    0.973
    36   1 H    0.992 --     8 C    0.976
    37   1 H    0.993 --     8 C    0.973
    38   1 H    0.992 --    11 C    0.973
    39   1 H    0.992 --    11 C    0.976
    40   1 H    0.992 --    11 C    0.973
    41   1 H    0.995 --    12 C    0.963
    42   1 H    0.997 --    13 C    0.962
    43   1 H    0.994 --    14 C    0.968
    44   1 H    0.995 --    14 C    0.971
    45   1 H    0.994 --    15 C    0.960
    46   1 H    0.976 --    15 C    0.924
    47   1 H    0.979 --     2 C    0.898
    48   1 H    0.987 --    16 C    0.924
    49   1 H    0.990 --    18 C    0.962
    50   1 H    0.988 --    18 C    0.907
    51   1 H    0.992 --    19 C    0.965
    52   1 H    0.994 --    19 C    0.973
    53   1 H    0.105
    54   1 H    0.975 --    22 C    0.943
    55   1 H    0.989 --    25 C    0.970
    56   1 H    0.989 --    25 C    0.971
    57   1 H    0.991 --    25 C    0.975
    58   1 H    0.992 --    28 C    0.976
    59   1 H    0.991 --    28 C    0.972
    60   1 H    0.991 --    28 C    0.972
    61   1 H    0.983 --    29 C    0.951
    62   1 H    0.986 --    30 C    0.965
    63   1 H    0.989 --    30 C    0.960
    64   1 H    0.993 --    30 C    0.978
    65   1 H    0.989 --    31 C    0.958
    66   1 H    0.989 --    32 C    0.972
    67   1 H    0.996 --    32 C    0.981
    68   1 H    0.993 --    32 C    0.980
    69   1 H    0.990 --    33 C    0.973
    70   1 H    0.996 --    33 C    0.982
    71   1 H    0.992 --    33 C    0.979
    72   1 H    0.964 --     1 N    0.936
 ---------------------------------------------------------------------------

molecular dipole:
                 x           y           z       tot (Debye)
 q only:        0.255      -1.285      -0.927
   full:        0.585      -1.449      -1.024       4.747

           -------------------------------------------------
          | TOTAL ENERGY              -99.250023790461 Eh   |
          | GRADIENT NORM               0.001541998939 Eh/α |
          | HOMO-LUMO GAP               0.388944470932 eV   |
           -------------------------------------------------

 * finished run on 2024/04/06 at 11:14:17.407
