   * xtb version 6.6.1 (8d0f1dd) compiled by 'conda@1efc2f54142f' on 2023-08-01
          program call               : xtb struc.xyz --opt loose --input .xc1 --gfn2

   ID    Z sym.   atoms
    1    6 C      1, 3, 5-7, 10, 11, 14
    2    7 N      2, 4, 9, 13
    3    8 O      8, 12
    4    1 H      15-25
constraining bond 5 11 to    5.0000000 Å, actual value:    2.3692066 Å

          :  Hamiltonian                  GFN2-xTB          :
 * total energy  :   -29.9022510 Eh     change       -0.2401990E-09 Eh
 * total energy  :   -34.2042446 Eh     change       -0.4301994E+01 Eh
 * total energy  :   -37.2346996 Eh     change       -0.3030455E+01 Eh
 * total energy  :   -39.4479859 Eh     change       -0.2213286E+01 Eh
 * total energy  :   -40.8111249 Eh     change       -0.1363139E+01 Eh
 * total energy  :   -41.3599980 Eh     change       -0.5488731E+00 Eh
 * total energy  :   -41.4962209 Eh     change       -0.1362229E+00 Eh
 * total energy  :   -41.5590986 Eh     change       -0.6287770E-01 Eh
 * total energy  :   -41.6146361 Eh     change       -0.5553752E-01 Eh
 * total energy  :   -41.6555107 Eh     change       -0.4087456E-01 Eh
 * total energy  :   -42.0872902 Eh     change       -0.3357776E-04 Eh
 * total energy  :   -42.0873175 Eh     change       -0.2734761E-04 Eh
 * total energy  :   -42.0873436 Eh     change       -0.2604589E-04 Eh
 * total energy  :   -42.0873746 Eh     change       -0.3096256E-04 Eh
 * total energy  :   -42.0874166 Eh     change       -0.4199456E-04 Eh
 * total energy  :   -42.0874579 Eh     change       -0.4139717E-04 Eh
 * total energy  :   -42.0873872 Eh     change        0.7074871E-04 Eh
 * total energy  :   -42.0875000 Eh     change       -0.1128231E-03 Eh
 * total energy  :   -42.0875197 Eh     change       -0.1964349E-04 Eh
   *** GEOMETRY OPTIMIZATION CONVERGED AFTER 39 ITERATIONS ***

 final structure:
================
25
 xtb: 6.6.1 (8d0f1dd)
C            3.31470973536996        1.13461456408130        0.00898539383433
N            2.35553556371414        0.06189575959652       -0.00061810989329
C            2.67483325304315       -1.23043156550276       -0.00248518797165
N            1.55924874825153       -1.97468938610844        0.00971015396544
C            0.44231191839314       -1.12738025079747        0.02016937644189
C            0.99153706636162        0.18518035806290        0.01320534273359
C            0.25399469261758        1.45386887055120        0.00300941211700
O            0.84043750706777        2.54453608281453       -0.06398840360445
N           -1.05900351874400        1.30153365625186        0.06894133136944
C           -1.98679933182435        2.34320633265755        0.07846191898521
C           -4.37508537226157        0.14913917115172       -0.37437347971916
O           -4.30320177634431       -0.96543602502178       -0.22811751488315
N           -0.79652533063458       -1.45898097018820        0.03265755794651
C           -1.33868555134116       -2.75887250088899        0.04176282396731
H            3.83899969044074        1.16322623524163        0.96595460305710
H            4.04379858180505        0.99539217049874       -0.78928893802956
H            2.78750905856127        2.08054262708279       -0.13285861871306
H            3.67696384552714       -1.61500234533130       -0.00890440033101
H           -1.51453924551001        3.32795878054133       -0.05386011726087
H           -2.72398216007704        2.17648571800520       -0.71747835981233
H           -2.53685372608894        2.33238639523328        1.02727165887284
H           -1.01618158720173       -3.33570826208308        0.91720483002396
H           -1.07818590824457       -3.31904586757653       -0.86469250730748
H           -2.42479812051000       -2.66292650669673        0.07969830860549
H            1.53439348172915       -2.98325449997501        0.00080454350571

          :  Hamiltonian                  GFN2-xTB          :
         :: total energy             -42.087519672064 Eh    ::
         :: gradient norm              0.002719461676 Eh/a0 ::
         :: HOMO-LUMO gap              0.338291846763 eV    ::
         :: SCC energy               -42.619951469234 Eh    ::
         :: -> dispersion             -0.020070391473 Eh    ::
         :: repulsion energy           0.532319674402 Eh    ::

    * Orbital Energies and Occupations

         #    Occupation            Energy/Eh            Energy/eV
      -------------------------------------------------------------
         1        2.0000           -0.8955108             -24.3681
       ...           ...                  ...                  ...
        25        1.9978           -0.6565434             -17.8655
        26        1.9977           -0.6547355             -17.8163
        27        1.9943           -0.6335421             -17.2396
        28        1.9926           -0.6271205             -17.0648
        29        1.9910           -0.6225210             -16.9397
        30        1.9882           -0.6160338             -16.7631
        31        1.9831           -0.6075327             -16.5318
        32        1.9779           -0.6010901             -16.3565
        33        1.9299           -0.5730675             -15.5940
        34        1.8402           -0.5523631             -15.0306
        35        1.7325           -0.5386978             -14.6587
        36        1.6422           -0.5305172             -14.4361
        37        1.5224           -0.5218532             -14.2003 (HOMO)
        38        1.3076           -0.5094212             -13.8621 (LUMO)
        39        0.0641           -0.4133838             -11.2487
        40        0.0175           -0.3819826             -10.3943
        41        0.0174           -0.3818083             -10.3895
        42        0.0089           -0.3658956              -9.9565
        43        0.0003           -0.2862231              -7.7885
        44        0.0000           -0.1798376              -4.8936
        45        0.0000           -0.1459418              -3.9713
        46                         -0.0735339              -2.0010
        47                         -0.0690271              -1.8783
        48                         -0.0212080              -0.5771
       ...                                ...                  ...
        67                          0.7149097              19.4537
      -------------------------------------------------------------
                  HL-Gap            0.0124320 Eh            0.3383 eV

     #   Z          covCN         q      C6AA      α(0)
     1   6 C        3.693    -0.094    22.477     6.784
     2   7 N        2.821     0.081    19.836     6.615
     3   6 C        3.001     0.061    26.622     8.464
     4   7 N        2.784    -0.083    22.847     7.099
     5   6 C        2.961     0.143    24.896     8.184
     6   6 C        3.088     0.003    27.846     8.650
     7   6 C        2.760     0.282    22.229     7.721
     8   8 O        0.858    -0.374    21.171     6.169
     9   7 N        1.837    -0.166    25.384     7.466
    10   6 C        3.694    -0.040    21.461     6.628
    11   6 C        0.856     0.070    33.062     9.595
    12   8 O        0.856    -0.033    15.563     5.289
    13   7 N        1.825    -0.161    25.272     7.449
    14   6 C        3.694    -0.043    21.526     6.638
    15   1 H        0.924     0.108     1.716     2.049
    16   1 H        0.925     0.104     1.745     2.066
    17   1 H        0.924     0.149     1.397     1.849
    18   1 H        0.926     0.117     1.638     2.001
    19   1 H        0.923     0.122     1.597     1.976
    20   1 H        0.924     0.128     1.553     1.949
    21   1 H        0.924     0.121     1.604     1.980
    22   1 H        0.924     0.085     1.927     2.171
    23   1 H        0.924     0.087     1.913     2.163
    24   1 H        0.924     0.113     1.672     2.022
    25   1 H        0.860     0.219     1.012     1.576

Wiberg/Mayer (AO) data.
largest (>0.10) Wiberg bond orders for each atom

     #   Z sym  total        # sym  WBO       # sym  WBO       # sym  WBO
 ---------------------------------------------------------------------------
     1   6 C    3.881 --     2 N    0.987    16 H    0.958    15 H    0.951
                            17 H    0.935
     2   7 N    3.668 --     3 C    1.347     6 C    1.196     1 C    0.987
     3   6 C    3.770 --     2 N    1.347     4 N    1.307    18 H    0.952
     4   7 N    3.496 --     3 C    1.307     5 C    1.075    25 H    0.924
     5   6 C    3.926 --    13 N    1.510     6 C    1.207     4 N    1.075
     6   6 C    3.661 --     5 C    1.207     2 N    1.196     7 C    1.033
     7   6 C    3.907 --     8 O    1.494     9 N    1.311     6 C    1.033
     8   8 O    1.704 --     7 C    1.494     9 N    0.103
     9   7 N    2.569 --     7 C    1.311    10 C    1.107     8 O    0.103
    10   6 C    3.836 --     9 N    1.107    21 H    0.901    19 H    0.899
                            20 H    0.897
    11   6 C    2.592 --    12 O    2.582
    12   8 O    2.586 --    11 C    2.582
    13   7 N    2.703 --     5 C    1.510    14 C    1.065
    14   6 C    3.895 --    13 N    1.065    24 H    0.942    22 H    0.928
                            23 H    0.927
    15   1 H    0.978 --     1 C    0.951
    16   1 H    0.980 --     1 C    0.958
    17   1 H    0.970 --     1 C    0.935
    18   1 H    0.983 --     3 C    0.952
    19   1 H    0.903 --    10 C    0.899
    20   1 H    0.920 --    10 C    0.897
    21   1 H    0.920 --    10 C    0.901
    22   1 H    0.943 --    14 C    0.928
    23   1 H    0.942 --    14 C    0.927
    24   1 H    0.954 --    14 C    0.942
    25   1 H    0.951 --     4 N    0.924
 ---------------------------------------------------------------------------

molecular dipole:
                 x           y           z       tot (Debye)
 q only:        1.396      -1.580       0.047
   full:        1.723      -2.296       0.088       7.299

           -------------------------------------------------
          | TOTAL ENERGY              -42.087519672064 Eh   |
          | GRADIENT NORM               0.002719461676 Eh/α |
          | HOMO-LUMO GAP               0.338291846763 eV   |
           -------------------------------------------------

 * finished run on 2024/06/05 at 19:58:46.594
