   * xtb version 6.6.1 (8d0f1dd) compiled by 'conda@1efc2f54142f' on 2023-08-01
          program call               : xtb struc.xyz --opt loose --input .xc1 --gfn2

   ID    Z sym.   atoms
    1    7 N      1, 17
    2    6 C      2-6, 8, 9, 11-16, 18-23, 25, 26, 28-33
    3    8 O      7, 10, 24, 27
    4    1 H      34-72
constraining bond 9 42 to    3.7133300 Å, actual value:    3.3768467 Å

          :  Hamiltonian                  GFN2-xTB          :
 * total energy  :   -99.4243469 Eh     change       -0.4035485E-08 Eh
 * total energy  :   -99.4600482 Eh     change       -0.3570126E-01 Eh
 * total energy  :   -99.4896714 Eh     change       -0.2962324E-01 Eh
 * total energy  :   -99.5295565 Eh     change       -0.3988514E-01 Eh
 * total energy  :   -99.6230958 Eh     change       -0.9353924E-01 Eh
 * total energy  :   -99.7755718 Eh     change       -0.1524760E+00 Eh
 * total energy  :  -100.0565006 Eh     change       -0.2809288E+00 Eh
 * total energy  :  -100.3393810 Eh     change       -0.2828804E+00 Eh
 * total energy  :  -100.3462646 Eh     change       -0.6883572E-02 Eh
 * total energy  :  -100.4669725 Eh     change       -0.1207079E+00 Eh
 * total energy  :  -100.8355003 Eh     change       -0.9423167E-04 Eh
 * total energy  :  -100.8356048 Eh     change       -0.1045183E-03 Eh
 * total energy  :  -100.8357158 Eh     change       -0.1109497E-03 Eh
 * total energy  :  -100.8358476 Eh     change       -0.1317892E-03 Eh
 * total energy  :  -100.8359443 Eh     change       -0.9672871E-04 Eh
 * total energy  :  -100.8360438 Eh     change       -0.9945509E-04 Eh
 * total energy  :  -100.8360993 Eh     change       -0.5552637E-04 Eh
 * total energy  :  -100.8361521 Eh     change       -0.5285303E-04 Eh
 * total energy  :  -100.8361972 Eh     change       -0.4511124E-04 Eh
   *** GEOMETRY OPTIMIZATION CONVERGED AFTER 148 ITERATIONS ***

 final structure:
================
72
 xtb: 6.6.1 (8d0f1dd)
N           -0.89934604029197        1.62792049934744        1.01683331760963
C           -2.31399092174218        1.58387587489744        1.19625067387887
C           -3.15117187377792        2.06018948900430       -0.04241279640099
C           -3.89652090967046        0.75275335904979        0.05587961798091
C           -4.97707824571835        0.05039390900113       -0.44472410536248
C           -5.15295225760216       -1.22473196931994        0.05636758226077
O           -6.17261091629419       -2.04334522819823       -0.21503167847791
C           -7.22337638182005       -1.60311169347771       -1.05393550480750
C           -4.10872354660317       -1.93604818726912        0.92488423376858
O           -3.23264331423639       -2.63443054373237       -0.02563089841728
C           -3.65976252511906       -3.93541508999378       -0.34953193559358
C           -3.16694939078542       -0.97025863615450        1.61669914551407
C           -3.07312360065899        0.26386630927786        1.10154554834855
C           -2.26496240149445        2.10286013271497       -1.29373833678622
C           -1.30008648659200        0.91882335444743       -1.30627594078910
C           -0.27731128560161        1.06557897788400       -0.17476174511770
N            0.44895147197778       -0.14028652101685        0.16726577075416
C            1.87313639825871       -0.04764257103050        0.31486298875493
C            2.66437599432755       -0.30737474215448       -0.99285881165311
C            4.12620509973476       -0.10355221070373       -0.74449844984562
C            4.73505598538416        1.11465787842416       -1.01542296164585
C            6.07755864466327        1.31679614434158       -0.74069608996730
C            6.84391749051858        0.30557220506222       -0.17515579016902
O            8.14713717618976        0.39161299770804        0.14329109000584
C            8.84230499706636        1.59138438072614       -0.10756004097210
C            6.22948635275747       -0.94811330630278        0.10929158435129
O            7.04211420419294       -1.87204818720477        0.65460581193595
C            6.52764669220327       -3.14281950800988        0.97531765935711
C            4.88537302070735       -1.12642780804024       -0.18053279309871
C           -0.07755104260610       -1.44527477186772       -0.13006979935393
C           -3.99643163893729        3.33589759606183        0.12214790043133
C           -5.05580035901756        3.17887551025782        1.21336611514175
C           -3.12815720863334        4.55661379401394        0.42214065639308
H           -5.66009862730511        0.48281677779082       -1.15867179615297
H           -7.69779648228149       -0.70665382403230       -0.64737536015049
H           -7.94382586231482       -2.41796489730122       -1.07760202429835
H           -6.86320348125898       -1.40138115404883       -2.06558038533155
H           -4.66038242432183       -3.93446711526364       -0.79144485503050
H           -2.94299629353625       -4.30761416771833       -1.07914869501686
H           -3.65618450692628       -4.58932424536047        0.52761609448459
H           -2.55094266314799       -1.36707757245853        2.40674433582927
H           -4.44135434052141       -2.45680823313236        1.41085480741206
H           -2.89711510953946        2.07358807273712       -2.18225627456766
H           -1.69420665819968        3.03084906311051       -1.30442863815564
H           -1.86746744728018       -0.00433284453867       -1.19885205428567
H           -0.76734613043103        0.88110688575946       -2.25733552360073
H           -2.55157043680548        2.11957900841291        2.11674217632103
H            0.46943870280104        1.81270775924933       -0.49214984450502
H            2.19539125475039       -0.77811644773528        1.06453623129413
H            2.12595708324940        0.94874655385095        0.68582881498983
H            2.31080439159919        0.37964834525309       -1.76369210375512
H            2.47512570538022       -1.32967654889425       -1.32284747245201
H            4.16183358653128        1.91685053442875       -1.45449195588232
H            6.52231775520204        2.27128307355649       -0.97037147920331
H            8.41194122326191        2.42780235467020        0.45150695195921
H            8.85316393879215        1.83162474968604       -1.17503973904017
H            9.86095189942062        1.41522153761472        0.23323901050982
H            7.36223877024594       -3.69763364368896        1.39966600819166
H            5.72461157201454       -3.07411987360422        1.71583695368659
H            6.16185299314555       -3.66371550939293        0.08524753225423
H            4.41167022972052       -2.07390840316544        0.02333428451796
H           -0.00479940142570       -1.69781717298679       -1.19470916880631
H           -1.12220880739312       -1.51769662292677        0.16694984031838
H            0.48858763785354       -2.18395692949802        0.43656624934723
H           -4.51394292589708        3.49914829501633       -0.83039432095989
H           -4.59785849873937        3.06356509929703        2.19270595945800
H           -5.68853983918828        2.31437045317900        1.02814600673057
H           -5.68698395440844        4.06328255626798        1.24115385276237
H           -2.51663229639501        4.38695312543928        1.30501046488719
H           -2.47300215199594        4.79780839486471       -0.40949118790490
H           -3.76427275443165        5.41842454962282        0.60501047527114
H           -0.38135323402305        1.39423610068417        1.85253965343922

          :  Hamiltonian                  GFN2-xTB          :
         :: total energy            -100.836197254995 Eh    ::
         :: gradient norm              0.003655320834 Eh/a0 ::
         :: HOMO-LUMO gap              0.945655078606 eV    ::
         :: SCC energy              -100.758035053523 Eh    ::
         :: -> dispersion             -0.076664146932 Eh    ::
         :: repulsion energy           1.450693669658 Eh    ::

    * Orbital Energies and Occupations

         #    Occupation            Energy/Eh            Energy/eV
      -------------------------------------------------------------
         1        2.0000           -0.8343873             -22.7048
       ...           ...                  ...                  ...
        78        1.9974           -0.5288932             -14.3919
        79        1.9971           -0.5275797             -14.3562
        80        1.9965           -0.5245595             -14.2740
        81        1.9949           -0.5184177             -14.1069
        82        1.9942           -0.5164303             -14.0528
        83        1.9922           -0.5117295             -13.9249
        84        1.9899           -0.5076000             -13.8125
        85        1.9814           -0.4978870             -13.5482
        86        1.9742           -0.4926281             -13.4051
        87        1.9661           -0.4882733             -13.2866
        88        1.8863           -0.4684432             -12.7470
        89        1.8173           -0.4603395             -12.5265
        90        1.6811           -0.4502843             -12.2529 (HOMO)
        91        0.7399           -0.4155321             -11.3072 (LUMO)
        92        0.0025           -0.3180725              -8.6552
        93        0.0017           -0.3115757              -8.4784
        94        0.0014           -0.3092409              -8.4149
        95        0.0000           -0.2470030              -6.7213
        96        0.0000           -0.1869279              -5.0866
        97                         -0.1110926              -3.0230
        98                         -0.0995880              -2.7099
        99                         -0.0889510              -2.4205
       100                         -0.0838413              -2.2814
       101                         -0.0766305              -2.0852
       ...                                ...                  ...
       171                          1.1217959              30.5256
      -------------------------------------------------------------
                  HL-Gap            0.0347522 Eh            0.9457 eV

     #   Z          covCN         q      C6AA      α(0)
     1   7 N        2.682    -0.212    25.612     7.516
     2   6 C        4.040     0.041    19.811     6.323
     3   6 C        4.141     0.010    20.326     6.403
     4   6 C        3.242     0.007    26.925     8.411
     5   6 C        2.895    -0.069    29.716     8.938
     6   6 C        2.867     0.137    24.999     8.196
     7   8 O        1.705    -0.214    17.548     5.656
     8   6 C        3.644     0.020    20.577     6.520
     9   6 C        3.748     0.088    19.180     6.246
    10   8 O        1.694    -0.330    19.526     5.966
    11   6 C        3.637     0.036    20.336     6.488
    12   6 C        2.896    -0.056    29.393     8.889
    13   6 C        3.192    -0.009    27.743     8.590
    14   6 C        3.809    -0.060    21.653     6.624
    15   6 C        3.805    -0.071    21.849     6.654
    16   6 C        3.728     0.097    19.080     6.236
    17   7 N        2.728    -0.121    23.636     7.221
    18   6 C        3.749    -0.004    20.706     6.490
    19   6 C        3.806    -0.072    21.868     6.657
    20   6 C        2.968     0.009    27.806     8.649
    21   6 C        2.922    -0.044    29.093     8.845
    22   6 C        2.913    -0.065    29.622     8.925
    23   6 C        2.864     0.135    25.041     8.203
    24   8 O        1.706    -0.215    17.573     5.660
    25   6 C        3.645     0.023    20.516     6.510
    26   6 C        2.862     0.136    25.035     8.201
    27   8 O        1.706    -0.218    17.625     5.668
    28   6 C        3.645     0.025    20.484     6.505
    29   6 C        2.919    -0.077    29.912     8.969
    30   6 C        3.693    -0.054    21.727     6.669
    31   6 C        3.850    -0.014    20.784     6.484
    32   6 C        3.755    -0.112    22.697     6.793
    33   6 C        3.756    -0.114    22.745     6.800
    34   1 H        0.926     0.059     2.209     2.324
    35   1 H        0.924     0.064     2.150     2.293
    36   1 H        0.925     0.087     1.912     2.162
    37   1 H        0.924     0.065     2.141     2.288
    38   1 H        0.924     0.048     2.345     2.395
    39   1 H        0.925     0.069     2.101     2.267
    40   1 H        0.924     0.042     2.422     2.434
    41   1 H        0.926     0.059     2.205     2.322
    42   1 H        0.930     0.102     1.768     2.079
    43   1 H        0.924     0.052     2.291     2.367
    44   1 H        0.925     0.060     2.199     2.319
    45   1 H        0.925     0.061     2.193     2.316
    46   1 H        0.924     0.049     2.338     2.391
    47   1 H        0.924     0.061     2.182     2.310
    48   1 H        0.923     0.051     2.304     2.374
    49   1 H        0.924     0.053     2.281     2.362
    50   1 H        0.924     0.051     2.309     2.376
    51   1 H        0.924     0.049     2.327     2.385
    52   1 H        0.924     0.056     2.250     2.346
    53   1 H        0.926     0.052     2.300     2.371
    54   1 H        0.926     0.061     2.187     2.313
    55   1 H        0.924     0.058     2.228     2.334
    56   1 H        0.924     0.059     2.212     2.326
    57   1 H        0.925     0.084     1.935     2.175
    58   1 H        0.925     0.084     1.942     2.179
    59   1 H        0.924     0.053     2.284     2.363
    60   1 H        0.924     0.056     2.247     2.344
    61   1 H        0.926     0.053     2.282     2.363
    62   1 H        0.924     0.048     2.339     2.392
    63   1 H        0.925     0.077     2.008     2.216
    64   1 H        0.925     0.059     2.211     2.325
    65   1 H        0.924     0.046     2.374     2.410
    66   1 H        0.925     0.040     2.446     2.446
    67   1 H        0.925     0.036     2.497     2.471
    68   1 H        0.925     0.054     2.273     2.358
    69   1 H        0.925     0.047     2.358     2.401
    70   1 H        0.925     0.043     2.407     2.426
    71   1 H        0.925     0.055     2.255     2.348
    72   1 H        0.860     0.162     1.324     1.803

Wiberg/Mayer (AO) data.
largest (>0.10) Wiberg bond orders for each atom

     #   Z sym  total        # sym  WBO       # sym  WBO       # sym  WBO
 ---------------------------------------------------------------------------
     1   7 N    3.072 --     2 C    1.030    16 C    0.982    72 H    0.943
     2   6 C    3.958 --     1 N    1.030    47 H    0.945    13 C    0.944
                             3 C    0.941
     3   6 C    3.963 --     4 C    0.991    14 C    0.969    31 C    0.958
                             2 C    0.941
     4   6 C    3.682 --     5 C    1.378    13 C    1.192     3 C    0.991
     5   6 C    3.957 --     6 C    1.431     4 C    1.378    34 H    0.956
     6   6 C    3.687 --     5 C    1.431     7 O    1.160     9 C    0.973
     7   8 O    2.268 --     6 C    1.160     8 C    0.962
     8   6 C    3.921 --    36 H    0.977    35 H    0.972    37 H    0.972
                             7 O    0.962
     9   6 C    3.942 --    12 C    0.998     6 C    0.973    42 H    0.967
                            10 O    0.908
    10   8 O    2.008 --    11 C    0.993     9 C    0.908
    11   6 C    3.935 --    10 O    0.993    40 H    0.976    38 H    0.973
                            39 H    0.971
    12   6 C    3.770 --    13 C    1.670     9 C    0.998    41 H    0.964
    13   6 C    3.933 --    12 C    1.670     4 C    1.192     2 C    0.944
    14   6 C    3.972 --    15 C    1.005    43 H    0.971     3 C    0.969
                            44 H    0.965
    15   6 C    3.979 --    14 C    1.005    16 C    0.985    46 H    0.974
                            45 H    0.964
    16   6 C    3.961 --    17 N    0.988    15 C    0.985     1 N    0.982
                            48 H    0.945
    17   7 N    3.125 --    18 C    1.019    30 C    1.016    16 C    0.988
    18   6 C    3.961 --    17 N    1.019    50 H    0.969    49 H    0.964
                            19 C    0.949
    19   6 C    3.962 --    20 C    1.019    51 H    0.972    52 H    0.968
                            18 C    0.949
    20   6 C    3.925 --    21 C    1.389    29 C    1.379    19 C    1.019
    21   6 C    3.925 --    22 C    1.425    20 C    1.389    53 H    0.967
    22   6 C    3.948 --    21 C    1.425    23 C    1.373    54 H    0.962
    23   6 C    3.870 --    22 C    1.373    26 C    1.208    24 O    1.117
    24   8 O    2.247 --    23 C    1.117    25 C    0.975
    25   6 C    3.925 --    57 H    0.976    24 O    0.975    55 H    0.971
                            56 H    0.971
    26   6 C    3.880 --    29 C    1.391    23 C    1.208    27 O    1.111
    27   8 O    2.249 --    26 C    1.111    28 C    0.977
    28   6 C    3.928 --    27 O    0.977    58 H    0.976    59 H    0.972
                            60 H    0.972
    29   6 C    3.949 --    26 C    1.391    20 C    1.379    61 H    0.961
    30   6 C    3.955 --    17 N    1.016    64 H    0.976    63 H    0.960
                            62 H    0.959
    31   6 C    3.969 --    32 C    1.007    33 C    1.006    65 H    0.960
                             3 C    0.958
    32   6 C    3.986 --    31 C    1.007    68 H    0.983    66 H    0.982
                            67 H    0.982
    33   6 C    3.985 --    31 C    1.006    69 H    0.983    71 H    0.980
                            70 H    0.980
    34   1 H    0.994 --     5 C    0.956
    35   1 H    0.990 --     8 C    0.972
    36   1 H    0.992 --     8 C    0.977
    37   1 H    0.990 --     8 C    0.972
    38   1 H    0.993 --    11 C    0.973
    39   1 H    0.991 --    11 C    0.971
    40   1 H    0.994 --    11 C    0.976
    41   1 H    0.994 --    12 C    0.964
    42   1 H    0.984 --     9 C    0.967
    43   1 H    0.995 --    14 C    0.971
    44   1 H    0.993 --    14 C    0.965
    45   1 H    0.995 --    15 C    0.964
    46   1 H    0.996 --    15 C    0.974
    47   1 H    0.990 --     2 C    0.945
    48   1 H    0.984 --    16 C    0.945
    49   1 H    0.989 --    18 C    0.964
    50   1 H    0.995 --    18 C    0.969
    51   1 H    0.995 --    19 C    0.972
    52   1 H    0.994 --    19 C    0.968
    53   1 H    0.996 --    21 C    0.967
    54   1 H    0.994 --    22 C    0.962
    55   1 H    0.989 --    25 C    0.971
    56   1 H    0.989 --    25 C    0.971
    57   1 H    0.992 --    25 C    0.976
    58   1 H    0.992 --    28 C    0.976
    59   1 H    0.991 --    28 C    0.972
    60   1 H    0.990 --    28 C    0.972
    61   1 H    0.995 --    29 C    0.961
    62   1 H    0.972 --    30 C    0.959
    63   1 H    0.986 --    30 C    0.960
    64   1 H    0.993 --    30 C    0.976
    65   1 H    0.992 --    31 C    0.960
    66   1 H    0.996 --    32 C    0.982
    67   1 H    0.997 --    32 C    0.982
    68   1 H    0.995 --    32 C    0.983
    69   1 H    0.996 --    33 C    0.983
    70   1 H    0.996 --    33 C    0.980
    71   1 H    0.993 --    33 C    0.980
    72   1 H    0.972 --     1 N    0.943
 ---------------------------------------------------------------------------

molecular dipole:
                 x           y           z       tot (Debye)
 q only:       -0.464       0.061      -0.142
   full:       -0.709      -0.252      -0.210       1.986

           -------------------------------------------------
          | TOTAL ENERGY             -100.836197254995 Eh   |
          | GRADIENT NORM               0.003655320834 Eh/α |
          | HOMO-LUMO GAP               0.945655078606 eV   |
           -------------------------------------------------

 * finished run on 2024/04/06 at 11:16:34.954
