   * xtb version 6.6.1 (8d0f1dd) compiled by 'conda@1efc2f54142f' on 2023-08-01
          program call               : xtb xtbopt.xyz --opt crude --input .xc2 --gfn2

   ID    Z sym.   atoms
    1    7 N      1, 17
    2    6 C      2-6, 8, 9, 11-16, 18-23, 25, 26, 28-33
    3    8 O      7, 10, 24, 27
    4    1 H      34-72
########################################################################
[WARNING] Please study the warnings concerning your input carefully
-1- readin_getIntValue: could not parse ''
########################################################################

          :  Hamiltonian                  GFN2-xTB          :
 * total energy  :   -99.3062651 Eh     change       -0.7659651E-11 Eh
 * total energy  :   -99.4161746 Eh     change       -0.1099096E+00 Eh
 * total energy  :   -99.4179317 Eh     change       -0.1757059E-02 Eh
 * total energy  :   -99.4188273 Eh     change       -0.8956130E-03 Eh
 * total energy  :   -99.4189828 Eh     change       -0.1554340E-03 Eh
   *** GEOMETRY OPTIMIZATION CONVERGED AFTER 5 ITERATIONS ***

 final structure:
================
72
 xtb: 6.6.1 (8d0f1dd)
N           -0.89817858652003        1.63075419185673        1.02149474192339
C           -2.31300115061098        1.59257780014186        1.19664383291509
C           -3.14714261626966        2.06797154127336       -0.04523156221166
C           -3.89173138824528        0.75849416703083        0.05125700664601
C           -4.97111495469599        0.05516071769189       -0.45245385690328
C           -5.13817826194887       -1.22751026424801        0.03843896472129
O           -6.15796159704555       -2.04496885527623       -0.22947213174405
C           -7.21500422024258       -1.60309729731784       -1.06064335974510
C           -4.07630384596533       -1.91658085976492        0.88103482252800
O           -3.22180316323638       -2.65723130205961       -0.01445249266089
C           -3.67353001985626       -3.94788298620976       -0.34900462374527
C           -3.15640468852043       -0.96986490999310        1.60323059602670
C           -3.07180466228970        0.27180467717421        1.09984926481555
C           -2.25930779336934        2.10888013060722       -1.29494905215982
C           -1.29618642631590        0.92347537996366       -1.30427973371323
C           -0.27547856618876        1.06894585428105       -0.17176853887519
N            0.44872227211477       -0.13907600261711        0.16907207502394
C            1.87337072543295       -0.04913934770786        0.31823267814728
C            2.66305952600009       -0.29722070627811       -0.99133953019982
C            4.12569402510241       -0.09772888138049       -0.74216935136389
C            4.73563136505355        1.11995251913991       -1.01181060614437
C            6.07864735000846        1.32016579520655       -0.73849284520253
C            6.84432303559305        0.30678429690690       -0.17640206445599
O            8.14837101036862        0.39008926538537        0.13759442779941
C            8.84367639824705        1.59018895198623       -0.11155737259460
C            6.22842602772284       -0.94626570141133        0.10793318190969
O            7.04125132469127       -1.87133557058295        0.65084584776032
C            6.52773374517218       -3.14297074361915        0.97003695370412
C            4.88368495622123       -1.12277336598209       -0.18002784910332
C           -0.07921888747347       -1.44357800640663       -0.12783726342169
C           -3.99350195471454        3.34378921334111        0.11808410909864
C           -5.05441837943840        3.18420381996740        1.20771187635200
C           -3.12680305885401        4.56469673883597        0.41883255606165
H           -5.65906361231089        0.49263301739298       -1.15902331722534
H           -7.69031793327679       -0.71034188118282       -0.64721884881724
H           -7.93287049435109       -2.42055828655755       -1.08485408072347
H           -6.86028294154146       -1.39589065400376       -2.07338374480148
H           -4.66956249068869       -3.92721500982106       -0.80017405403895
H           -2.95591487672400       -4.33555466776746       -1.06991328616890
H           -3.69381118322868       -4.59634782495318        0.53392899248446
H           -2.54229702264928       -1.36866654791704        2.39269926756467
H           -4.55447923743503       -2.62601539410980        1.56681215038887
H           -2.89065119788366        2.07889901518502       -2.18422942786460
H           -1.68712406498655        3.03594492700708       -1.30746852766474
H           -1.86497910426840        0.00122983017685       -1.19629687409491
H           -0.76178615504582        0.88266918753699       -2.25431842636496
H           -2.55086603055027        2.13244663743574        2.11482587070922
H            0.47283200473274        1.81506745187613       -0.48576541928476
H            2.19376553271199       -0.78728204976174        1.06011396365942
H            2.12661350452183        0.94263087692657        0.69956815871264
H            2.31065793210907        0.39798420015108       -1.75445780653650
H            2.47169919187359       -1.31551249660488       -1.33106757763487
H            4.16211773940022        1.92287777829491       -1.44900665080360
H            6.52468318984509        2.27414053642315       -0.96742849509365
H            8.41526729166048        2.42505351630661        0.45114783374769
H            8.85136401875409        1.83367202670473       -1.17810743036904
H            9.86296948388063        1.41257239004278        0.22587113578778
H            7.36372592634550       -3.69823721517767        1.39103250778650
H            5.72668501910184       -3.07653361418160        1.71288510045455
H            6.15998138898122       -3.66188087804049        0.07959849526477
H            4.40928773975888       -2.06989970689470        0.02368385292173
H           -0.01234463054069       -1.69564844491230       -1.19332049800188
H           -1.12306750529483       -1.51700221402487        0.17500933597494
H            0.49058703646483       -2.18255545472651        0.43447090187840
H           -4.51030655632906        3.50648034226377       -0.83497052888729
H           -4.59784990825217        3.07177823380242        2.18789983903569
H           -5.68259877616446        2.31672583544399        1.02199094872193
H           -5.68913835286395        4.06613588291217        1.23345346223211
H           -2.51260901001716        4.39468543486774        1.29927282686943
H           -2.47469437444454        4.81067002137890       -0.41404354544723
H           -3.76313386678762        5.42552925133426        0.60746614216225
H           -0.38148961745392        1.38874520972618        1.85618189487173

          :  Hamiltonian                  GFN2-xTB          :
         :: total energy             -99.418982755238 Eh    ::
         :: gradient norm              0.004104769739 Eh/a0 ::
         :: HOMO-LUMO gap              0.949948054876 eV    ::
         :: SCC energy              -100.733552499327 Eh    ::
         :: -> dispersion             -0.076678867512 Eh    ::
         :: repulsion energy           1.313505663458 Eh    ::

    * Orbital Energies and Occupations

         #    Occupation            Energy/Eh            Energy/eV
      -------------------------------------------------------------
         1        2.0000           -0.8341920             -22.6995
       ...           ...                  ...                  ...
        78        1.9974           -0.5289111             -14.3924
        79        1.9971           -0.5276186             -14.3572
        80        1.9966           -0.5246829             -14.2773
        81        1.9949           -0.5183950             -14.1062
        82        1.9942           -0.5165116             -14.0550
        83        1.9923           -0.5119494             -13.9309
        84        1.9897           -0.5072076             -13.8018
        85        1.9811           -0.4976193             -13.5409
        86        1.9743           -0.4926893             -13.4068
        87        1.9662           -0.4882583             -13.2862
        88        1.8874           -0.4685607             -12.7502
        89        1.8177           -0.4603379             -12.5264
        90        1.6823           -0.4503241             -12.2539 (HOMO)
        91        0.7374           -0.4154142             -11.3040 (LUMO)
        92        0.0026           -0.3185777              -8.6689
        93        0.0017           -0.3115577              -8.4779
        94        0.0014           -0.3091704              -8.4130
        95        0.0000           -0.2466815              -6.7125
        96        0.0000           -0.1868473              -5.0844
        97                         -0.1116717              -3.0387
        98                         -0.0971280              -2.6430
        99                         -0.0891576              -2.4261
       100                         -0.0838845              -2.2826
       101                         -0.0704996              -1.9184
       ...                                ...                  ...
       171                          0.6334466              17.2370
      -------------------------------------------------------------
                  HL-Gap            0.0349099 Eh            0.9499 eV

     #   Z          covCN         q      C6AA      α(0)
     1   7 N        2.682    -0.212    25.628     7.519
     2   6 C        4.038     0.041    19.805     6.322
     3   6 C        4.140     0.010    20.325     6.403
     4   6 C        3.239     0.007    26.960     8.420
     5   6 C        2.896    -0.069    29.728     8.939
     6   6 C        2.867     0.140    24.941     8.186
     7   8 O        1.705    -0.212    17.530     5.653
     8   6 C        3.644     0.020    20.580     6.521
     9   6 C        3.753     0.108    18.868     6.194
    10   8 O        1.699    -0.316    19.270     5.927
    11   6 C        3.638     0.034    20.362     6.491
    12   6 C        2.897    -0.053    29.305     8.876
    13   6 C        3.194    -0.010    27.735     8.587
    14   6 C        3.809    -0.060    21.650     6.623
    15   6 C        3.805    -0.070    21.838     6.653
    16   6 C        3.728     0.097    19.081     6.236
    17   7 N        2.728    -0.122    23.652     7.223
    18   6 C        3.749    -0.003    20.704     6.490
    19   6 C        3.807    -0.072    21.868     6.657
    20   6 C        2.969     0.009    27.809     8.650
    21   6 C        2.922    -0.044    29.093     8.845
    22   6 C        2.913    -0.065    29.624     8.925
    23   6 C        2.864     0.135    25.040     8.202
    24   8 O        1.706    -0.215    17.571     5.659
    25   6 C        3.645     0.023    20.516     6.510
    26   6 C        2.862     0.136    25.036     8.201
    27   8 O        1.706    -0.218    17.626     5.668
    28   6 C        3.645     0.025    20.485     6.505
    29   6 C        2.919    -0.077    29.911     8.969
    30   6 C        3.693    -0.053    21.719     6.668
    31   6 C        3.850    -0.014    20.782     6.484
    32   6 C        3.755    -0.112    22.696     6.793
    33   6 C        3.756    -0.114    22.743     6.800
    34   1 H        0.926     0.059     2.211     2.325
    35   1 H        0.924     0.065     2.142     2.289
    36   1 H        0.925     0.087     1.906     2.159
    37   1 H        0.924     0.065     2.140     2.288
    38   1 H        0.924     0.049     2.327     2.385
    39   1 H        0.925     0.070     2.091     2.261
    40   1 H        0.924     0.044     2.402     2.424
    41   1 H        0.926     0.061     2.189     2.314
    42   1 H        0.924     0.059     2.210     2.325
    43   1 H        0.924     0.052     2.294     2.369
    44   1 H        0.925     0.060     2.200     2.319
    45   1 H        0.925     0.060     2.205     2.322
    46   1 H        0.924     0.048     2.340     2.392
    47   1 H        0.924     0.062     2.181     2.309
    48   1 H        0.923     0.052     2.301     2.372
    49   1 H        0.924     0.053     2.280     2.361
    50   1 H        0.924     0.051     2.309     2.376
    51   1 H        0.924     0.049     2.327     2.386
    52   1 H        0.924     0.056     2.250     2.346
    53   1 H        0.926     0.052     2.300     2.372
    54   1 H        0.926     0.061     2.187     2.313
    55   1 H        0.924     0.058     2.227     2.334
    56   1 H        0.924     0.059     2.211     2.325
    57   1 H        0.925     0.084     1.934     2.175
    58   1 H        0.925     0.084     1.942     2.179
    59   1 H        0.924     0.053     2.283     2.363
    60   1 H        0.924     0.056     2.247     2.344
    61   1 H        0.926     0.053     2.283     2.363
    62   1 H        0.924     0.048     2.344     2.394
    63   1 H        0.925     0.076     2.017     2.221
    64   1 H        0.925     0.059     2.210     2.325
    65   1 H        0.924     0.046     2.375     2.410
    66   1 H        0.925     0.040     2.446     2.446
    67   1 H        0.925     0.036     2.497     2.471
    68   1 H        0.925     0.054     2.273     2.358
    69   1 H        0.925     0.047     2.358     2.401
    70   1 H        0.925     0.043     2.408     2.426
    71   1 H        0.925     0.055     2.255     2.349
    72   1 H        0.860     0.162     1.323     1.802

Wiberg/Mayer (AO) data.
largest (>0.10) Wiberg bond orders for each atom

     #   Z sym  total        # sym  WBO       # sym  WBO       # sym  WBO
 ---------------------------------------------------------------------------
     1   7 N    3.072 --     2 C    1.030    16 C    0.981    72 H    0.943
     2   6 C    3.958 --     1 N    1.030    47 H    0.945    13 C    0.944
                             3 C    0.941
     3   6 C    3.963 --     4 C    0.991    14 C    0.970    31 C    0.958
                             2 C    0.941
     4   6 C    3.683 --     5 C    1.378    13 C    1.194     3 C    0.991
     5   6 C    3.957 --     6 C    1.428     4 C    1.378    34 H    0.956
     6   6 C    3.689 --     5 C    1.428     7 O    1.162     9 C    0.976
     7   8 O    2.270 --     6 C    1.162     8 C    0.961
     8   6 C    3.921 --    36 H    0.977    35 H    0.972    37 H    0.972
                             7 O    0.961
     9   6 C    3.946 --    12 C    1.001     6 C    0.976    42 H    0.946
                            10 O    0.930
    10   8 O    2.031 --    11 C    0.988     9 C    0.930
    11   6 C    3.933 --    10 O    0.988    40 H    0.975    38 H    0.973
                            39 H    0.973
    12   6 C    3.769 --    13 C    1.665     9 C    1.001    41 H    0.964
    13   6 C    3.933 --    12 C    1.665     4 C    1.194     2 C    0.944
    14   6 C    3.972 --    15 C    1.005    43 H    0.971     3 C    0.970
                            44 H    0.965
    15   6 C    3.980 --    14 C    1.005    16 C    0.986    46 H    0.974
                            45 H    0.964
    16   6 C    3.961 --    17 N    0.988    15 C    0.986     1 N    0.981
                            48 H    0.945
    17   7 N    3.125 --    18 C    1.019    30 C    1.016    16 C    0.988
    18   6 C    3.962 --    17 N    1.019    50 H    0.969    49 H    0.964
                            19 C    0.950
    19   6 C    3.962 --    20 C    1.019    51 H    0.972    52 H    0.968
                            18 C    0.950
    20   6 C    3.925 --    21 C    1.389    29 C    1.379    19 C    1.019
    21   6 C    3.926 --    22 C    1.425    20 C    1.389    53 H    0.967
    22   6 C    3.948 --    21 C    1.425    23 C    1.373    54 H    0.962
    23   6 C    3.870 --    22 C    1.373    26 C    1.207    24 O    1.117
    24   8 O    2.247 --    23 C    1.117    25 C    0.975
    25   6 C    3.925 --    57 H    0.976    24 O    0.975    55 H    0.971
                            56 H    0.971
    26   6 C    3.880 --    29 C    1.391    23 C    1.207    27 O    1.111
    27   8 O    2.249 --    26 C    1.111    28 C    0.977
    28   6 C    3.928 --    27 O    0.977    58 H    0.976    59 H    0.972
                            60 H    0.972
    29   6 C    3.949 --    26 C    1.391    20 C    1.379    61 H    0.962
    30   6 C    3.956 --    17 N    1.016    64 H    0.976    62 H    0.960
                            63 H    0.959
    31   6 C    3.970 --    32 C    1.007    33 C    1.007    65 H    0.960
                             3 C    0.958
    32   6 C    3.986 --    31 C    1.007    68 H    0.983    66 H    0.982
                            67 H    0.982
    33   6 C    3.985 --    31 C    1.007    69 H    0.982    70 H    0.980
                            71 H    0.980
    34   1 H    0.994 --     5 C    0.956
    35   1 H    0.990 --     8 C    0.972
    36   1 H    0.992 --     8 C    0.977
    37   1 H    0.990 --     8 C    0.972
    38   1 H    0.993 --    11 C    0.973
    39   1 H    0.991 --    11 C    0.973
    40   1 H    0.994 --    11 C    0.975
    41   1 H    0.994 --    12 C    0.964
    42   1 H    0.983 --     9 C    0.946
    43   1 H    0.995 --    14 C    0.971
    44   1 H    0.993 --    14 C    0.965
    45   1 H    0.995 --    15 C    0.964
    46   1 H    0.996 --    15 C    0.974
    47   1 H    0.990 --     2 C    0.945
    48   1 H    0.984 --    16 C    0.945
    49   1 H    0.989 --    18 C    0.964
    50   1 H    0.995 --    18 C    0.969
    51   1 H    0.995 --    19 C    0.972
    52   1 H    0.994 --    19 C    0.968
    53   1 H    0.996 --    21 C    0.967
    54   1 H    0.994 --    22 C    0.962
    55   1 H    0.989 --    25 C    0.971
    56   1 H    0.989 --    25 C    0.971
    57   1 H    0.992 --    25 C    0.976
    58   1 H    0.992 --    28 C    0.976
    59   1 H    0.991 --    28 C    0.972
    60   1 H    0.990 --    28 C    0.972
    61   1 H    0.995 --    29 C    0.962
    62   1 H    0.972 --    30 C    0.960
    63   1 H    0.986 --    30 C    0.959
    64   1 H    0.993 --    30 C    0.976
    65   1 H    0.993 --    31 C    0.960
    66   1 H    0.996 --    32 C    0.982
    67   1 H    0.997 --    32 C    0.982
    68   1 H    0.995 --    32 C    0.983
    69   1 H    0.996 --    33 C    0.982
    70   1 H    0.996 --    33 C    0.980
    71   1 H    0.993 --    33 C    0.980
    72   1 H    0.972 --     1 N    0.943
 ---------------------------------------------------------------------------

molecular dipole:
                 x           y           z       tot (Debye)
 q only:       -0.448       0.074      -0.203
   full:       -0.707      -0.238      -0.260       2.007

           -------------------------------------------------
          | TOTAL ENERGY              -99.418982755238 Eh   |
          | GRADIENT NORM               0.004104769739 Eh/α |
          | HOMO-LUMO GAP               0.949948054876 eV   |
           -------------------------------------------------

 * finished run on 2024/04/06 at 11:16:36.073
