   * xtb version 6.6.1 (8d0f1dd) compiled by 'conda@1efc2f54142f' on 2023-08-01
          program call               : xtb struc.xyz --opt loose --input .xc1 --gfn2

   ID    Z sym.   atoms
    1    7 N      1, 17
    2    6 C      2-6, 8, 9, 11-16, 18-23, 25, 26, 28-33
    3    8 O      7, 10, 24, 27
    4    1 H      34-72
constraining bond 19 50 to    4.1400000 Å, actual value:    2.1552088 Å

          :  Hamiltonian                  GFN2-xTB          :
 * total energy  :   -98.7007391 Eh     change       -0.4035485E-08 Eh
 * total energy  :   -98.9463284 Eh     change       -0.2455893E+00 Eh
 * total energy  :   -99.0915323 Eh     change       -0.1452039E+00 Eh
 * total energy  :   -99.1684559 Eh     change       -0.7692360E-01 Eh
 * total energy  :   -99.2057766 Eh     change       -0.3732070E-01 Eh
 * total energy  :   -99.2159891 Eh     change       -0.1021245E-01 Eh
 * total energy  :   -99.2193424 Eh     change       -0.3353292E-02 Eh
 * total energy  :   -99.2253085 Eh     change       -0.5966127E-02 Eh
 * total energy  :   -99.2371648 Eh     change       -0.1185635E-01 Eh
 * total energy  :   -99.2535106 Eh     change       -0.1634578E-01 Eh
 * total energy  :   -99.3273284 Eh     change       -0.2371492E-03 Eh
 * total energy  :   -99.3274696 Eh     change       -0.1412533E-03 Eh
 * total energy  :   -99.3275793 Eh     change       -0.1096073E-03 Eh
 * total energy  :   -99.3276910 Eh     change       -0.1117828E-03 Eh
 * total energy  :   -99.3277953 Eh     change       -0.1043057E-03 Eh
 * total energy  :   -99.3278894 Eh     change       -0.9401428E-04 Eh
 * total energy  :   -99.3279749 Eh     change       -0.8554183E-04 Eh
 * total energy  :   -99.3280397 Eh     change       -0.6485132E-04 Eh
 * total energy  :   -99.3280859 Eh     change       -0.4613745E-04 Eh
   *** GEOMETRY OPTIMIZATION CONVERGED AFTER 39 ITERATIONS ***

 final structure:
================
72
 xtb: 6.6.1 (8d0f1dd)
N           -2.32665803333492        3.05361963147565        2.45625464152146
C           -2.12131217370640        2.30722332813750        1.47582909697874
C           -3.12933554511864        2.03064795951886        0.39378690700189
C           -3.51991315711713        0.56114333335544        0.43032813956740
C           -4.31479787474936        0.03313566623888       -0.58889065615841
C           -4.71754394615374       -1.29199360981599       -0.58365950966834
O           -5.49803035895629       -1.87057977802703       -1.51845388697998
C           -6.07313551074258       -1.07047026804912       -2.52615360200122
C           -4.29838929454085       -2.14608081615362        0.47310741522031
O           -4.72492965574886       -3.42161617875050        0.39177906164388
C           -4.42803883149675       -4.31412911479696        1.44053646768428
C           -3.51004672340356       -1.61545547405117        1.48263377048374
C           -3.13176538841977       -0.27924670806437        1.46348198114022
C           -2.42944727906532        2.36104014718570       -0.95290987304518
C           -1.38518334942600        1.33015499365117       -1.41510827678176
C           -0.11351317307935        1.41434615297991       -0.65294851967945
N            0.61936263308139        0.38432979250274       -0.24150482407779
C            1.77070564182179        0.52109625488653        0.40531503461908
C            3.38448050145096       -1.15192046497180       -2.31902959625842
C            4.49542056085709       -0.74816279982249       -1.61895634855363
C            5.02914021421605        0.56272347360602       -1.77262533202645
C            6.14777373446922        0.96267631212051       -1.08921735222749
C            6.80206375068918        0.09382999967413       -0.20954277727032
O            7.89864607700910        0.38100095462358        0.50019375107301
C            8.49498558461101        1.65316425402223        0.38464974724145
C            6.28366020280673       -1.23014751739760       -0.02684946016246
O            6.98564746058284       -1.98530106588868        0.84328753116974
C            6.60859685183733       -3.32668802895664        1.04531827811318
C            5.16413703011968       -1.62511114900773       -0.71321302058828
C            0.13915005317540       -0.96457321179262       -0.48980892799609
C           -4.42565867463572        2.88362167346922        0.53250543602803
C           -5.18676450081432        2.54915610242890        1.81288858874925
C           -4.16667378091364        4.38650942621573        0.46601782963147
H           -4.63266636037395        0.67386852301866       -1.39438544685910
H           -6.66621923070183       -0.25556924429533       -2.09941330730016
H           -6.72605394625636       -1.73422402241721       -3.08990925039288
H           -5.31168508255988       -0.65928839036650       -3.19721435507990
H           -4.83827304574023       -3.96387521030041        2.39212619901140
H           -4.90317424276535       -5.25402157156178        1.16667545148174
H           -3.34946262407857       -4.47047564460649        1.54269485093267
H           -3.19374000660775       -2.23404602286555        2.30706354750524
H           -2.54577510119810        0.10089534819186        2.28603164096210
H           -3.19373390182904        2.43904236106086       -1.72603997648998
H           -1.94895265174429        3.33610668037458       -0.86679899944297
H           -1.82109428710432        0.33329276899700       -1.37100917889518
H           -1.17271102872741        1.54854204590691       -2.47059950303428
H           -1.15858470780775        1.80334940641523        1.28303456677478
H            0.31518219433205        2.39415039655556       -0.50660609345268
H            2.32912219568968       -0.33928461717457        0.70998494514534
H            2.15251861995432        1.50278753156964        0.60667373777042
H            2.89558843849719       -0.49111542615961       -3.01179976147935
H            2.99194072936440       -2.14865571159606       -2.22437086249824
H            4.54043548772059        1.24123254442023       -2.45424926078384
H            6.53133618042897        1.95924793110382       -1.24023371450127
H            7.80855954623235        2.44509699417605        0.69950143209598
H            8.83155260825891        1.84524574375471       -0.63878868660104
H            9.35625505470391        1.63443581209267        1.05096622612683
H            7.33765431458650       -3.73304326018417        1.74406618129860
H            5.60782782941242       -3.40078657964825        1.48299295444881
H            6.64316837205950       -3.89628493860770        0.11185359262584
H            4.76825819704449       -2.62118177956095       -0.59484657819709
H            0.05081242144074       -1.13820884513209       -1.56192304861846
H           -0.83610714134820       -1.11302618331949       -0.02242973005800
H            0.84049814309375       -1.68308231901826       -0.07513904819881
H           -5.06506849944484        2.61477798414654       -0.31634539230849
H           -4.61381968004884        2.86308071076410        2.67935133856905
H           -5.38350556731790        1.48227053387991        1.88740825088741
H           -6.13849025325834        3.07367162308197        1.81798263690289
H           -3.50628410882693        4.69105743654008        1.27221866027805
H           -3.73216739438303        4.68217177636475       -0.48491489625894
H           -5.10910365159084        4.91577456924964        0.57999894848500
H           -1.57015526739429        3.19226729711073        3.11861505729437

          :  Hamiltonian                  GFN2-xTB          :
         :: total energy             -99.328085896114 Eh    ::
         :: gradient norm              0.002615203623 Eh/a0 ::
         :: HOMO-LUMO gap              0.712243250332 eV    ::
         :: SCC energy              -100.730079008346 Eh    ::
         :: -> dispersion             -0.073247503445 Eh    ::
         :: repulsion energy           1.400280920905 Eh    ::

    * Orbital Energies and Occupations

         #    Occupation            Energy/Eh            Energy/eV
      -------------------------------------------------------------
         1        2.0000           -0.8165783             -22.2202
       ...           ...                  ...                  ...
        78        1.9977           -0.5276963             -14.3593
        79        1.9976           -0.5271967             -14.3458
        80        1.9966           -0.5220046             -14.2045
        81        1.9964           -0.5208583             -14.1733
        82        1.9943           -0.5137714             -13.9804
        83        1.9935           -0.5116327             -13.9222
        84        1.9919           -0.5081205             -13.8267
        85        1.9888           -0.5028343             -13.6828
        86        1.9758           -0.4906293             -13.3507
        87        1.9286           -0.4730906             -12.8734
        88        1.9180           -0.4708042             -12.8112
        89        1.8436           -0.4599584             -12.5161
        90        1.5554           -0.4407199             -11.9926 (HOMO)
        91        0.8023           -0.4145455             -11.2804 (LUMO)
        92        0.0139           -0.3423600              -9.3161
        93        0.0089           -0.3352919              -9.1238
        94        0.0028           -0.3168516              -8.6220
        95        0.0023           -0.3137994              -8.5389
        96        0.0020           -0.3115304              -8.4772
        97        0.0004           -0.2877799              -7.8309
        98        0.0000           -0.1913409              -5.2067
        99        0.0000           -0.1806135              -4.9147
       100                         -0.1035497              -2.8177
       101                         -0.0666364              -1.8133
       ...                                ...                  ...
       171                          0.5883729              16.0104
      -------------------------------------------------------------
                  HL-Gap            0.0261745 Eh            0.7122 eV

     #   Z          covCN         q      C6AA      α(0)
     1   7 N        1.774    -0.264    27.680     7.791
     2   6 C        2.826     0.102    25.740     8.313
     3   6 C        3.907     0.007    20.404     6.421
     4   6 C        2.974     0.005    27.901     8.664
     5   6 C        2.921    -0.078    29.956     8.975
     6   6 C        2.862     0.130    25.143     8.219
     7   8 O        1.706    -0.228    17.780     5.693
     8   6 C        3.644     0.027    20.462     6.502
     9   6 C        2.863     0.129    25.165     8.223
    10   8 O        1.706    -0.226    17.752     5.689
    11   6 C        3.645     0.026    20.467     6.502
    12   6 C        2.913    -0.073    29.832     8.956
    13   6 C        2.921    -0.052    29.283     8.874
    14   6 C        3.811    -0.065    21.738     6.636
    15   6 C        3.801    -0.066    21.770     6.643
    16   6 C        2.869    -0.041    29.004     8.828
    17   7 N        2.729     0.101    19.507     6.560
    18   6 C        2.820    -0.106    30.662     9.073
    19   6 C        2.852    -0.098    30.450     9.044
    20   6 C        2.959     0.022    27.513     8.603
    21   6 C        2.921    -0.039    28.971     8.827
    22   6 C        2.906    -0.063    29.567     8.916
    23   6 C        2.864     0.140    24.943     8.186
    24   8 O        1.706    -0.204    17.389     5.630
    25   6 C        3.645     0.022    20.541     6.514
    26   6 C        2.856     0.135    25.045     8.203
    27   8 O        1.706    -0.230    17.819     5.699
    28   6 C        3.645     0.027    20.457     6.501
    29   6 C        2.917    -0.080    29.997     8.981
    30   6 C        3.719    -0.077    22.087     6.713
    31   6 C        3.853    -0.008    20.677     6.467
    32   6 C        3.756    -0.118    22.818     6.811
    33   6 C        3.755    -0.119    22.830     6.813
    34   1 H        0.926     0.054     2.268     2.355
    35   1 H        0.924     0.055     2.261     2.351
    36   1 H        0.925     0.082     1.959     2.189
    37   1 H        0.924     0.050     2.326     2.385
    38   1 H        0.924     0.056     2.243     2.342
    39   1 H        0.925     0.082     1.960     2.189
    40   1 H        0.924     0.049     2.327     2.386
    41   1 H        0.926     0.053     2.279     2.361
    42   1 H        0.926     0.041     2.433     2.439
    43   1 H        0.925     0.056     2.243     2.342
    44   1 H        0.924     0.053     2.277     2.360
    45   1 H        0.925     0.057     2.232     2.336
    46   1 H        0.923     0.066     2.130     2.282
    47   1 H        0.923     0.016     2.802     2.618
    48   1 H        0.926     0.058     2.220     2.330
    49   1 H        0.927     0.060     2.195     2.317
    50   1 H        0.926     0.060     2.203     2.321
    51   1 H        0.926     0.047     2.360     2.402
    52   1 H        0.926     0.047     2.352     2.398
    53   1 H        0.926     0.055     2.259     2.350
    54   1 H        0.926     0.059     2.213     2.326
    55   1 H        0.924     0.059     2.216     2.328
    56   1 H        0.924     0.062     2.176     2.307
    57   1 H        0.925     0.086     1.915     2.164
    58   1 H        0.925     0.082     1.961     2.190
    59   1 H        0.924     0.049     2.337     2.391
    60   1 H        0.924     0.055     2.261     2.352
    61   1 H        0.926     0.054     2.270     2.356
    62   1 H        0.925     0.084     1.939     2.178
    63   1 H        0.924     0.082     1.957     2.188
    64   1 H        0.925     0.085     1.928     2.172
    65   1 H        0.924     0.038     2.477     2.461
    66   1 H        0.925     0.070     2.085     2.258
    67   1 H        0.925     0.035     2.516     2.480
    68   1 H        0.925     0.051     2.307     2.375
    69   1 H        0.925     0.062     2.173     2.305
    70   1 H        0.925     0.037     2.494     2.470
    71   1 H        0.925     0.055     2.263     2.353
    72   1 H        0.860     0.159     1.340     1.813

Wiberg/Mayer (AO) data.
largest (>0.10) Wiberg bond orders for each atom

     #   Z sym  total        # sym  WBO       # sym  WBO       # sym  WBO
 ---------------------------------------------------------------------------
     1   7 N    3.021 --     2 C    1.957    72 H    0.940
     2   6 C    3.932 --     1 N    1.957     3 C    0.993    47 H    0.909
     3   6 C    3.970 --     2 C    0.993     4 C    0.971    14 C    0.954
                            31 C    0.943
     4   6 C    3.943 --    13 C    1.409     5 C    1.370     3 C    0.971
     5   6 C    3.959 --     6 C    1.399     4 C    1.370    34 H    0.957
     6   6 C    3.899 --     5 C    1.399     9 C    1.219     7 O    1.102
     7   8 O    2.251 --     6 C    1.102     8 C    0.977
     8   6 C    3.930 --     7 O    0.977    36 H    0.976    35 H    0.973
                            37 H    0.973
     9   6 C    3.894 --    12 C    1.388     6 C    1.219    10 O    1.104
    10   8 O    2.250 --     9 C    1.104    11 C    0.977
    11   6 C    3.930 --    10 O    0.977    39 H    0.977    40 H    0.973
                            38 H    0.973
    12   6 C    3.959 --    13 C    1.408     9 C    1.388    41 H    0.963
    13   6 C    3.948 --     4 C    1.409    12 C    1.408    42 H    0.962
    14   6 C    3.976 --    15 C    0.988    44 H    0.972    43 H    0.969
                             3 C    0.954
    15   6 C    3.986 --    16 C    1.051    14 C    0.988    45 H    0.961
                            46 H    0.937
    16   6 C    3.669 --    17 N    1.348    15 C    1.051    48 H    0.960
                            18 C    0.213
    17   7 N    3.745 --    18 C    1.366    16 C    1.348    30 C    0.985
    18   6 C    3.594 --    17 N    1.366    49 H    0.975    50 H    0.974
                            16 C    0.213
    19   6 C    3.540 --    20 C    1.498    51 H    0.979    52 H    0.979
    20   6 C    3.979 --    19 C    1.498    21 C    1.207    29 C    1.200
    21   6 C    3.806 --    22 C    1.522    20 C    1.207    53 H    0.967
    22   6 C    3.969 --    21 C    1.522    23 C    1.317    54 H    0.961
    23   6 C    3.767 --    22 C    1.317    26 C    1.172    24 O    1.142
    24   8 O    2.257 --    23 C    1.142    25 C    0.972
    25   6 C    3.924 --    57 H    0.976    24 O    0.972    55 H    0.972
                            56 H    0.971
    26   6 C    3.914 --    29 C    1.482    23 C    1.172    27 O    1.099
    27   8 O    2.255 --    26 C    1.099    28 C    0.978
    28   6 C    3.931 --    27 O    0.978    58 H    0.977    59 H    0.973
                            60 H    0.973
    29   6 C    3.853 --    26 C    1.482    20 C    1.200    61 H    0.962
    30   6 C    3.955 --    17 N    0.985    64 H    0.977    62 H    0.970
                            63 H    0.966
    31   6 C    3.969 --    33 C    1.008    32 C    1.008    65 H    0.958
                             3 C    0.943
    32   6 C    3.975 --    31 C    1.008    67 H    0.981    68 H    0.981
                            66 H    0.972
    33   6 C    3.979 --    31 C    1.008    70 H    0.982    71 H    0.979
                            69 H    0.975
    34   1 H    0.996 --     5 C    0.957
    35   1 H    0.993 --     8 C    0.973
    36   1 H    0.992 --     8 C    0.976
    37   1 H    0.993 --     8 C    0.973
    38   1 H    0.992 --    11 C    0.973
    39   1 H    0.993 --    11 C    0.977
    40   1 H    0.992 --    11 C    0.973
    41   1 H    0.995 --    12 C    0.963
    42   1 H    0.997 --    13 C    0.962
    43   1 H    0.995 --    14 C    0.969
    44   1 H    0.996 --    14 C    0.972
    45   1 H    0.995 --    15 C    0.961
    46   1 H    0.974 --    15 C    0.937
    47   1 H    0.978 --     2 C    0.909
    48   1 H    0.996 --    16 C    0.960
    49   1 H    0.996 --    18 C    0.975
    50   1 H    0.996 --    18 C    0.974
    51   1 H    0.997 --    19 C    0.979
    52   1 H    0.997 --    19 C    0.979
    53   1 H    0.996 --    21 C    0.967
    54   1 H    0.995 --    22 C    0.961
    55   1 H    0.989 --    25 C    0.972
    56   1 H    0.989 --    25 C    0.971
    57   1 H    0.992 --    25 C    0.976
    58   1 H    0.993 --    28 C    0.977
    59   1 H    0.993 --    28 C    0.973
    60   1 H    0.993 --    28 C    0.973
    61   1 H    0.996 --    29 C    0.962
    62   1 H    0.992 --    30 C    0.970
    63   1 H    0.993 --    30 C    0.966
    64   1 H    0.993 --    30 C    0.977
    65   1 H    0.990 --    31 C    0.958
    66   1 H    0.989 --    32 C    0.972
    67   1 H    0.996 --    32 C    0.981
    68   1 H    0.993 --    32 C    0.981
    69   1 H    0.992 --    33 C    0.975
    70   1 H    0.996 --    33 C    0.982
    71   1 H    0.993 --    33 C    0.979
    72   1 H    0.967 --     1 N    0.940
 ---------------------------------------------------------------------------

molecular dipole:
                 x           y           z       tot (Debye)
 q only:        1.042       0.004      -0.435
   full:        1.441      -0.080      -0.563       3.937

           -------------------------------------------------
          | TOTAL ENERGY              -99.328085896114 Eh   |
          | GRADIENT NORM               0.002615203623 Eh/α |
          | HOMO-LUMO GAP               0.712243250332 eV   |
           -------------------------------------------------

 * finished run on 2024/04/06 at 11:13:49.183
