   * xtb version 6.6.1 (8d0f1dd) compiled by 'conda@1efc2f54142f' on 2023-08-01
          program call               : xtb xtbopt.xyz --opt crude --input .xc2 --gfn2

   ID    Z sym.   atoms
    1    6 C      1, 3, 5-7, 10, 11, 14
    2    7 N      2, 4, 9, 13
    3    8 O      8, 12
    4    1 H      15-25

          :  Hamiltonian                  GFN2-xTB          :
 * total energy  :   -41.9956861 Eh     change       -0.2273737E-12 Eh
   *** GEOMETRY OPTIMIZATION CONVERGED AFTER 1 ITERATIONS ***

 final structure:
================
25
 xtb: 6.6.1 (8d0f1dd)
C            3.09010467989761        1.29627784342718        0.68448684331375
N            3.18605208832897       -1.00493332591556       -0.34462445854780
C            3.14234975639919       -2.15583886459157       -0.91453994125043
N            1.95046034903089       -2.91517400005549       -0.93505613801231
C            0.90155449074028       -2.67212336778021       -0.24484031175912
C            3.23193587736191       -0.10200315732272        0.42841845602042
C           -1.11751837584099        1.66417494931134        0.27688942003942
O           -0.12361941089824        1.08448125240941        0.47796092449655
N           -2.20472735566922        2.11430479657846        0.22842882447291
C           -3.16834668005185        3.01451047056439       -0.26955552750191
C           -2.49189007937928       -0.53920523438668       -1.31681689084249
O           -3.10283894783597        0.08705398302224       -2.03541907208539
N           -0.08951648694538       -2.17759504212808        0.17804695658645
C           -1.01423849988860       -2.09938823176623        1.22313483136585
H            3.63019387895492        1.59081314915104        1.58327959203743
H            3.42275856699729        1.89777736306097       -0.16402597167807
H            2.02342526176704        1.48065486319443        0.84135309027069
H            3.99285689676316       -2.56647338997081       -1.42129014798016
H           -2.87946216604559        4.04386400061823       -0.05247197307975
H           -3.28960552823168        2.88985348614106       -1.34717557571364
H           -4.11293623289283        2.79451224705375        0.22698649901209
H           -0.79770579658896       -2.79544789942850        2.03557296645605
H           -2.00477672389563       -2.28588835191840        0.80782310397298
H           -0.99485719168853       -1.07310996022650        1.59327493226815
H            1.98077914367156       -3.75285903742649       -1.50866881395192

          :  Hamiltonian                  GFN2-xTB          :
         :: total energy             -41.995686107637 Eh    ::
         :: gradient norm              0.003051965079 Eh/a0 ::
         :: HOMO-LUMO gap              2.149104009693 eV    ::
         :: SCC energy               -42.684592340008 Eh    ::
         :: -> dispersion             -0.016781769113 Eh    ::
         :: repulsion energy           0.688675243906 Eh    ::

    * Orbital Energies and Occupations

         #    Occupation            Energy/Eh            Energy/eV
      -------------------------------------------------------------
         1        2.0000           -0.8805769             -23.9617
       ...           ...                  ...                  ...
        25        2.0000           -0.6452164             -17.5572
        26        2.0000           -0.6431360             -17.5006
        27        2.0000           -0.6315960             -17.1866
        28        2.0000           -0.6161833             -16.7672
        29        2.0000           -0.6132507             -16.6874
        30        1.9999           -0.6092093             -16.5774
        31        1.9999           -0.5980687             -16.2743
        32        1.9998           -0.5882368             -16.0067
        33        1.9997           -0.5822606             -15.8441
        34        1.9990           -0.5625168             -15.3069
        35        1.9934           -0.5320149             -14.4769
        36        1.9916           -0.5280975             -14.3703
        37        1.8041           -0.4767202             -12.9722 (HOMO)
        38        0.1182           -0.3977421             -10.8231 (LUMO)
        39        0.0326           -0.3766275             -10.2486
        40        0.0228           -0.3709262             -10.0934
        41        0.0192           -0.3681288             -10.0173
        42        0.0187           -0.3677606             -10.0073
        43        0.0007           -0.3161042              -8.6016
        44        0.0002           -0.2963150              -8.0631
        45        0.0001           -0.2777653              -7.5584
        46                         -0.1708997              -4.6504
        47                         -0.0872752              -2.3749
        48                         -0.0718063              -1.9539
       ...                                ...                  ...
        67                          1.2387539              33.7082
      -------------------------------------------------------------
                  HL-Gap            0.0789781 Eh            2.1491 eV

     #   Z          covCN         q      C6AA      α(0)
     1   6 C        3.753    -0.114    22.732     6.799
     2   7 N        1.827     0.017    21.629     6.891
     3   6 C        2.771     0.002    27.953     8.659
     4   7 N        2.685    -0.032    21.859     6.944
     5   6 C        1.844     0.134    27.866     8.528
     6   6 C        1.898     0.054    29.741     8.808
     7   6 C        1.769     0.301    24.428     7.991
     8   8 O        0.856    -0.336    20.451     6.063
     9   7 N        1.820    -0.157    25.181     7.435
    10   6 C        3.685    -0.028    21.278     6.604
    11   6 C        0.856     0.020    34.484     9.799
    12   8 O        0.856    -0.060    15.935     5.352
    13   7 N        1.821    -0.008    22.110     6.967
    14   6 C        3.688    -0.064    21.934     6.704
    15   1 H        0.925     0.107     1.722     2.052
    16   1 H        0.924     0.104     1.746     2.067
    17   1 H        0.924     0.141     1.453     1.885
    18   1 H        0.926     0.093     1.847     2.125
    19   1 H        0.924     0.079     1.986     2.204
    20   1 H        0.924     0.077     2.007     2.215
    21   1 H        0.925     0.089     1.885     2.147
    22   1 H        0.924     0.096     1.826     2.113
    23   1 H        0.925     0.124     1.582     1.967
    24   1 H        0.924     0.125     1.575     1.963
    25   1 H        0.860     0.233     0.950     1.527

Wiberg/Mayer (AO) data.
largest (>0.10) Wiberg bond orders for each atom

     #   Z sym  total        # sym  WBO       # sym  WBO       # sym  WBO
 ---------------------------------------------------------------------------
     1   6 C    3.968 --     6 C    1.117    15 H    0.951    16 H    0.930
                            17 H    0.898
     2   7 N    3.652 --     6 C    2.111     3 C    1.385
     3   6 C    3.691 --     2 N    1.385     4 N    1.006    18 H    0.941
                             6 C    0.234
     4   7 N    3.562 --     5 C    1.414     3 C    1.006    25 H    0.894
                            13 N    0.162
     5   6 C    3.819 --    13 N    2.173     4 N    1.414
     6   6 C    3.635 --     2 N    2.111     1 C    1.117     3 C    0.234
     7   6 C    3.950 --     9 N    2.067     8 O    1.799
     8   8 O    2.239 --     7 C    1.799     9 N    0.380
     9   7 N    3.465 --     7 C    2.067    10 C    1.013     8 O    0.380
    10   6 C    3.945 --     9 N    1.013    21 H    0.967    19 H    0.962
                            20 H    0.962
    11   6 C    2.587 --    12 O    2.577
    12   8 O    2.580 --    11 C    2.577
    13   7 N    3.465 --     5 C    2.173    14 C    1.030     4 N    0.162
    14   6 C    3.930 --    13 N    1.030    22 H    0.956    23 H    0.942
                            24 H    0.935
    15   1 H    0.979 --     1 C    0.951
    16   1 H    0.976 --     1 C    0.930
    17   1 H    0.976 --     1 C    0.898
    18   1 H    0.989 --     3 C    0.941
    19   1 H    0.992 --    10 C    0.962
    20   1 H    0.992 --    10 C    0.962
    21   1 H    0.991 --    10 C    0.967
    22   1 H    0.986 --    14 C    0.956
    23   1 H    0.979 --    14 C    0.942
    24   1 H    0.978 --    14 C    0.935
    25   1 H    0.939 --     4 N    0.894
 ---------------------------------------------------------------------------

molecular dipole:
                 x           y           z       tot (Debye)
 q only:        1.614      -1.916       0.067
   full:        1.478      -1.806      -0.341       5.994

           -------------------------------------------------
          | TOTAL ENERGY              -41.995686107637 Eh   |
          | GRADIENT NORM               0.003051965079 Eh/α |
          | HOMO-LUMO GAP               2.149104009693 eV   |
           -------------------------------------------------

 * finished run on 2024/06/05 at 20:00:14.893
