   * xtb version 6.6.1 (8d0f1dd) compiled by 'conda@1efc2f54142f' on 2023-08-01
          program call               : xtb struc.xyz --opt loose --input .xc1 --gfn2

   ID    Z sym.   atoms
    1    6 C      1, 3, 5-7, 10, 11, 14
    2    7 N      2, 4, 9, 13
    3    8 O      8, 12
    4    1 H      15-25
constraining bond 9 21 to    4.0600000 Å, actual value:    2.0945494 Å

          :  Hamiltonian                  GFN2-xTB          :
 * total energy  :   -35.3503552 Eh     change       -0.6650680E-10 Eh
 * total energy  :   -38.3796435 Eh     change       -0.3029288E+01 Eh
 * total energy  :   -40.5733488 Eh     change       -0.2193705E+01 Eh
 * total energy  :   -41.5953772 Eh     change       -0.1022028E+01 Eh
 * total energy  :   -41.8617607 Eh     change       -0.2663834E+00 Eh
 * total energy  :   -41.8943999 Eh     change       -0.3263926E-01 Eh
 * total energy  :   -41.9099663 Eh     change       -0.1556641E-01 Eh
 * total energy  :   -41.9539107 Eh     change       -0.4394432E-01 Eh
 * total energy  :   -41.9696268 Eh     change       -0.1571615E-01 Eh
 * total energy  :   -41.9762286 Eh     change       -0.6601798E-02 Eh
 * total energy  :   -42.1036262 Eh     change       -0.4937804E-03 Eh
 * total energy  :   -42.1040040 Eh     change       -0.3777669E-03 Eh
 * total energy  :   -42.1041998 Eh     change       -0.1957850E-03 Eh
 * total energy  :   -42.1043419 Eh     change       -0.1421112E-03 Eh
 * total energy  :   -42.1044359 Eh     change       -0.9405740E-04 Eh
 * total energy  :   -42.1045004 Eh     change       -0.6445668E-04 Eh
 * total energy  :   -42.1045413 Eh     change       -0.4090698E-04 Eh
 * total energy  :   -42.1045692 Eh     change       -0.2790033E-04 Eh
 * total energy  :   -42.1045861 Eh     change       -0.1692880E-04 Eh
   *** GEOMETRY OPTIMIZATION CONVERGED AFTER 34 ITERATIONS ***

 final structure:
================
25
 xtb: 6.6.1 (8d0f1dd)
C            3.29582542624681        1.08691207962052        0.04412973570688
N            2.33906199933043        0.01299737997413        0.00918050260348
C            2.60247533101712       -1.29048925371842        0.03498611313354
N            1.44610640618229       -1.99326666929909        0.00928695058855
C            0.41312925276707       -1.10545511174681       -0.03406914241989
C            0.97007292773917        0.16763099035689       -0.03573027574417
C            0.17332183168824        1.35564704975068       -0.09841073320856
O            0.55486036006803        2.50464625565710       -0.11547330763591
N           -1.22852492070178        1.04031571020017       -0.15239218995836
C           -2.08474919857547        2.06936089034603       -0.24459667536997
C           -1.79909580466973       -0.26305779451162       -0.11718053313044
O           -2.98845367576884       -0.42209946440482       -0.13616872982855
N           -0.91492869060479       -1.33786561383259       -0.06444621704423
C           -1.45331873915088       -2.68658564439318       -0.04266173453901
H            3.80392861785290        1.10890258223622        1.00881664306317
H            4.03897083205810        0.95745573858507       -0.74198925468122
H            2.76963251044736        2.02946190759620       -0.10100568281901
H            3.58102753500535       -1.72564519229834        0.07130535433375
H           -1.67116361742218        3.05927889614055       -0.27467538379721
H           -3.13649952197546        1.86250280779067       -0.28524569550043
H           -4.11550033559012        3.43979348025762        1.39192642939474
H           -1.13198663493099       -3.20779386007230        0.85852750142736
H           -1.14004514546368       -3.23584368458571       -0.93063099498677
H           -2.53973482647063       -2.60790276530131       -0.03991945734784
H            1.37601959502188       -3.00066217274766        0.01760839566017

          :  Hamiltonian                  GFN2-xTB          :
         :: total energy             -42.104586130636 Eh    ::
         :: gradient norm              0.002276713573 Eh/a0 ::
         :: HOMO-LUMO gap              0.290321475890 eV    ::
         :: SCC energy               -42.625426504630 Eh    ::
         :: -> dispersion             -0.022717410527 Eh    ::
         :: repulsion energy           0.520752514762 Eh    ::

    * Orbital Energies and Occupations

         #    Occupation            Energy/Eh            Energy/eV
      -------------------------------------------------------------
         1        2.0000           -0.9115599             -24.8048
       ...           ...                  ...                  ...
        25        2.0000           -0.6713013             -18.2670
        26        2.0000           -0.6692959             -18.2125
        27        2.0000           -0.6632267             -18.0473
        28        1.9999           -0.6328436             -17.2206
        29        1.9999           -0.6300973             -17.1458
        30        1.9999           -0.6279742             -17.0880
        31        1.9998           -0.6192047             -16.8494
        32        1.9997           -0.6145950             -16.7240
        33        1.9997           -0.6134162             -16.6919
        34        1.9981           -0.5854737             -15.9315
        35        1.9940           -0.5668525             -15.4248
        36        1.9901           -0.5588228             -15.2063
        37        1.1077           -0.4783147             -13.0156 (HOMO)
        38        0.7752           -0.4676456             -12.7253 (LUMO)
        39        0.1157           -0.4307124             -11.7203
        40        0.0173           -0.3997902             -10.8788
        41        0.0031           -0.3722644             -10.1298
        42        0.0000           -0.2877863              -7.8311
        43                         -0.2081429              -5.6639
        44                         -0.1971586              -5.3650
        45                         -0.1509286              -4.1070
        46                         -0.1453601              -3.9554
        47                         -0.0789707              -2.1489
        48                         -0.0542490              -1.4762
       ...                                ...                  ...
        67                          0.5478964              14.9090
      -------------------------------------------------------------
                  HL-Gap            0.0106691 Eh            0.2903 eV

     #   Z          covCN         q      C6AA      α(0)
     1   6 C        3.691    -0.094    22.494     6.787
     2   7 N        2.830     0.078    19.892     6.624
     3   6 C        3.050     0.047    26.895     8.505
     4   7 N        2.792    -0.058    22.352     7.022
     5   6 C        3.041     0.106    25.624     8.303
     6   6 C        3.110    -0.023    28.432     8.736
     7   6 C        2.775     0.254    22.724     7.807
     8   8 O        0.857    -0.362    20.938     6.135
     9   7 N        2.741    -0.032    21.855     6.943
    10   6 C        2.816    -0.022    28.549     8.754
    11   6 C        2.738     0.309    21.749     7.636
    12   8 O        0.859    -0.351    20.722     6.103
    13   7 N        2.737    -0.050    22.201     6.998
    14   6 C        3.698    -0.074    22.082     6.721
    15   1 H        0.924     0.107     1.721     2.051
    16   1 H        0.925     0.105     1.740     2.063
    17   1 H        0.925     0.135     1.499     1.915
    18   1 H        0.926     0.124     1.583     1.967
    19   1 H        0.926     0.134     1.502     1.916
    20   1 H        0.926     0.132     1.519     1.927
    21   1 H        0.000     0.009     7.249     4.923
    22   1 H        0.925     0.084     1.942     2.179
    23   1 H        0.925     0.085     1.933     2.174
    24   1 H        0.925     0.128     1.554     1.949
    25   1 H        0.860     0.229     0.969     1.542

Wiberg/Mayer (AO) data.
largest (>0.10) Wiberg bond orders for each atom

     #   Z sym  total        # sym  WBO       # sym  WBO       # sym  WBO
 ---------------------------------------------------------------------------
     1   6 C    3.916 --     2 N    0.986    16 H    0.963    17 H    0.962
                            15 H    0.957
     2   7 N    3.649 --     3 C    1.379     6 C    1.147     1 C    0.986
     3   6 C    3.822 --     2 N    1.379     4 N    1.267    18 H    0.953
     4   7 N    3.580 --     3 C    1.267     5 C    1.194    25 H    0.919
     5   6 C    3.900 --     6 C    1.328     4 N    1.194    13 N    1.191
     6   6 C    3.909 --     5 C    1.328     2 N    1.147     7 C    1.116
     7   6 C    3.869 --     8 O    1.675     6 C    1.116     9 N    0.987
     8   8 O    1.960 --     7 C    1.675     9 N    0.108
     9   7 N    3.615 --    10 C    1.341    11 C    1.017     7 C    0.987
                             8 O    0.108
    10   6 C    3.360 --     9 N    1.341    19 H    0.958    20 H    0.956
    11   6 C    3.906 --    12 O    1.707    13 N    1.087     9 N    1.017
    12   8 O    2.021 --    11 C    1.707    13 N    0.135
    13   7 N    3.565 --     5 C    1.191    11 C    1.087    14 C    0.970
                            12 O    0.135
    14   6 C    3.923 --    22 H    0.972    23 H    0.971    13 N    0.970
                            24 H    0.965
    15   1 H    0.984 --     1 C    0.957
    16   1 H    0.985 --     1 C    0.963
    17   1 H    0.982 --     1 C    0.962
    18   1 H    0.984 --     3 C    0.953
    19   1 H    0.981 --    10 C    0.958
    20   1 H    0.982 --    10 C    0.956
    21   1 H    0.032
    22   1 H    0.991 --    14 C    0.972
    23   1 H    0.991 --    14 C    0.971
    24   1 H    0.983 --    14 C    0.965
    25   1 H    0.947 --     4 N    0.919
 ---------------------------------------------------------------------------

molecular dipole:
                 x           y           z       tot (Debye)
 q only:        2.415      -2.028      -0.009
   full:        2.643      -2.482       0.015       9.214

           -------------------------------------------------
          | TOTAL ENERGY              -42.104586130636 Eh   |
          | GRADIENT NORM               0.002276713573 Eh/α |
          | HOMO-LUMO GAP               0.290321475890 eV   |
           -------------------------------------------------

 * finished run on 2024/06/05 at 19:58:03.641
