   * xtb version 6.6.1 (8d0f1dd) compiled by 'conda@1efc2f54142f' on 2023-08-01
          program call               : xtb struc.xyz --opt loose --input .xc1 --gfn2

   ID    Z sym.   atoms
    1    7 N      1, 17
    2    6 C      2-6, 8, 9, 11-16, 18-23, 25, 26, 28-33
    3    8 O      7, 10, 24, 27
    4    1 H      34-72
constraining bond 33 65 to    4.1400000 Å, actual value:    2.1371822 Å

          :  Hamiltonian                  GFN2-xTB          :
 * total energy  :   -98.6879042 Eh     change       -0.4035485E-08 Eh
 * total energy  :   -98.9330610 Eh     change       -0.2451568E+00 Eh
 * total energy  :   -99.0763624 Eh     change       -0.1433014E+00 Eh
 * total energy  :   -99.1463576 Eh     change       -0.6999522E-01 Eh
 * total energy  :   -99.1728025 Eh     change       -0.2644485E-01 Eh
 * total energy  :   -99.1833624 Eh     change       -0.1055997E-01 Eh
 * total energy  :   -99.1906358 Eh     change       -0.7273416E-02 Eh
 * total energy  :   -99.2028098 Eh     change       -0.1217396E-01 Eh
 * total energy  :   -99.2198294 Eh     change       -0.1701963E-01 Eh
 * total energy  :   -99.2444342 Eh     change       -0.2460474E-01 Eh
 * total energy  :   -99.3261552 Eh     change       -0.6366186E-03 Eh
 * total energy  :   -99.3264525 Eh     change       -0.2972635E-03 Eh
 * total energy  :   -99.3266528 Eh     change       -0.2003246E-03 Eh
 * total energy  :   -99.3267421 Eh     change       -0.8930665E-04 Eh
 * total energy  :   -99.3268014 Eh     change       -0.5928224E-04 Eh
 * total energy  :   -99.3268914 Eh     change       -0.8996657E-04 Eh
 * total energy  :   -99.3269447 Eh     change       -0.5329127E-04 Eh
 * total energy  :   -99.3270165 Eh     change       -0.7185338E-04 Eh
 * total energy  :   -99.3270476 Eh     change       -0.3108362E-04 Eh
   *** GEOMETRY OPTIMIZATION CONVERGED AFTER 31 ITERATIONS ***

 final structure:
================
72
 xtb: 6.6.1 (8d0f1dd)
N           -1.87127269800979        2.82941018697280        2.35198790458106
C           -1.79992646379874        2.13020048748670        1.31567096468113
C           -2.96549012696352        1.98840929966366        0.34367842597701
C           -3.51086778394933        0.56978644749531        0.42126239616006
C           -4.60656829784328        0.18433623101468       -0.53060210820664
C           -4.95819173661350       -1.26786128160924       -0.50375566108423
O           -5.85771440820788       -1.78245303549321       -1.36466582604369
C           -6.52323791619208       -0.94905396363283       -2.28164630322908
C           -4.41988080793894       -2.14557100803718        0.43365660081215
O           -4.86373987617833       -3.42682183971326        0.36029136687011
C           -4.43823171983252       -4.34866228289528        1.33653832478164
C           -3.48083222165840       -1.67616256829218        1.35531712565254
C           -3.04364179103434       -0.34140241104172        1.31446099706425
C           -2.38520872001451        2.26223204964889       -1.07258098956538
C           -1.48715845513885        1.13790872210366       -1.61855512830459
C           -0.13544102303791        1.11574231526648       -1.01092156983022
N            0.52358045360372        0.01162842263688       -0.64688910531763
C            1.91214570147619        0.08412489031518       -0.26443011780450
C            2.85557586989468       -0.35294511649956       -1.40253418230854
C            4.28058627159209       -0.15774480042773       -0.96763795751760
C            4.92156137305409        1.05072159280519       -1.17802466855933
C            6.21789850507229        1.25405196373861       -0.72922232876586
C            6.89583256304959        0.25072202486727       -0.05415140171054
O            8.15053108853567        0.33988875471472        0.43254137476903
C            8.87393820605945        1.53302049560309        0.24045195931721
C            6.24735966812757       -0.99433465819495        0.16391677136252
O            6.98171032474817       -1.91605444094734        0.82378414553765
C            6.43198962598906       -3.18906369682526        1.06125546086759
C            4.95222004214761       -1.17479214895373       -0.29243940943942
C           -0.07613813207879       -1.29772422419282       -0.72782065851398
C           -4.00024647010175        3.01628965848924        0.72049842814211
C           -4.89031086326304        2.72454490214054        1.86204935326202
C           -3.79861402243437        4.44024357299148        0.35228050713683
H           -4.34947977185281        0.47708852424875       -1.55727545398040
H           -7.09205142712845       -0.16239414199180       -1.77693118247230
H           -7.21052153341375       -1.59881728330984       -2.82011178987509
H           -5.82977319267768       -0.49175071333011       -2.99470507817786
H           -4.70507910642641       -4.01907447568844        2.34520263869924
H           -4.96404786143206       -5.27434165131726        1.11043170816266
H           -3.35887667976163       -4.52498373165522        1.28227457223674
H           -3.07609423846440       -2.33143106617363        2.10614569735699
H           -2.29901310935127       -0.04665480323146        2.03932172980618
H           -3.21793218150163        2.40758825307766       -1.76153048454131
H           -1.81321032565058        3.19028385591466       -1.04465605514419
H           -1.98168593884090        0.17533191907695       -1.50050912764733
H           -1.36867025153832        1.32099022910885       -2.69580497909049
H           -0.90016543255903        1.59710163648694        0.97047120593676
H            0.41892633730701        2.04028428277017       -0.97808523324380
H            2.07825088430715       -0.55465718932905        0.60775225742335
H            2.15475893163091        1.11132370169741        0.01549159223594
H            2.64589220930335        0.25377125200691       -2.28511235046251
H            2.67342517978190       -1.39930336165906       -1.65027327582402
H            4.41645050755626        1.84567838654000       -1.70564816031746
H            6.69251142145031        2.20380634252335       -0.91323313113542
H            8.38717233329143        2.38085065216283        0.73279390219850
H            9.00666756769246        1.75475936430773       -0.82280776172731
H            9.84667922208859        1.36140154077967        0.69726413873093
H            7.20514393750194       -3.74790883273653        1.58494620407290
H            5.53928340635983       -3.13063278751995        1.69273590398342
H            6.18614319554144       -3.70175437301161        0.12593571115831
H            4.45212975903753       -2.11807003371989       -0.13715271423827
H           -0.27545600922852       -1.58038287686108       -1.76427036153883
H           -1.01545470031172       -1.32442234580989       -0.16959561458739
H            0.60251353185424       -2.02813194899527       -0.29497578067968
H           -5.52386612000933        0.75032680300973       -0.29693992539628
H           -4.37583765043055        3.03027872583106        2.78223788626606
H           -5.11431939234852        1.66510025311982        1.95671661147659
H           -5.81486530280455        3.29699747456164        1.80311646403367
H           -2.89006115651112        4.81656902866035        0.83602049787558
H           -3.68266985967650        4.58775055898481       -0.72088685449367
H           -4.63333996280851        5.04360382047288        0.69867121696425
H           -1.03917778203249        2.88534999229878        2.93047552778464

          :  Hamiltonian                  GFN2-xTB          :
         :: total energy             -99.327047620370 Eh    ::
         :: gradient norm              0.001826347280 Eh/a0 ::
         :: HOMO-LUMO gap              0.068364672242 eV    ::
         :: SCC energy              -100.681442388047 Eh    ::
         :: -> dispersion             -0.074183704022 Eh    ::
         :: repulsion energy           1.353126555073 Eh    ::

    * Orbital Energies and Occupations

         #    Occupation            Energy/Eh            Energy/eV
      -------------------------------------------------------------
         1        2.0000           -0.8182458             -22.2656
       ...           ...                  ...                  ...
        78        1.9996           -0.5335072             -14.5175
        79        1.9994           -0.5300617             -14.4237
        80        1.9993           -0.5258529             -14.3092
        81        1.9991           -0.5227660             -14.2252
        82        1.9991           -0.5220323             -14.2052
        83        1.9990           -0.5214634             -14.1897
        84        1.9988           -0.5182906             -14.1034
        85        1.9980           -0.5095537             -13.8657
        86        1.9853           -0.4779894             -13.0068
        87        1.9842           -0.4768206             -12.9749
        88        1.9656           -0.4643574             -12.6358
        89        1.8888           -0.4451762             -12.1139
        90        0.8569           -0.3957597             -10.7692 (HOMO)
        91        0.7802           -0.3932473             -10.7008 (LUMO)
        92        0.4964           -0.3827764             -10.4159
        93        0.0394           -0.3384692              -9.2102
        94        0.0065           -0.3096939              -8.4272
        95        0.0038           -0.3011122              -8.1937
        96        0.0032           -0.2985060              -8.1228
        97        0.0000           -0.2226592              -6.0589
        98        0.0000           -0.1759185              -4.7870
        99                         -0.1246003              -3.3905
       100                         -0.0786948              -2.1414
       101                         -0.0724212              -1.9707
       ...                                ...                  ...
       171                          0.5889034              16.0249
      -------------------------------------------------------------
                  HL-Gap            0.0025124 Eh            0.0684 eV

     #   Z          covCN         q      C6AA      α(0)
     1   7 N        1.774    -0.295    28.463     7.900
     2   6 C        2.830     0.093    25.926     8.344
     3   6 C        3.909     0.009    20.371     6.415
     4   6 C        2.958    -0.018    28.468     8.751
     5   6 C        3.810    -0.074    21.899     6.661
     6   6 C        2.850     0.114    25.492     8.275
     7   8 O        1.706    -0.211    17.509     5.650
     8   6 C        3.642     0.024    20.519     6.513
     9   6 C        2.850     0.123    25.298     8.243
    10   8 O        1.706    -0.247    18.089     5.742
    11   6 C        3.644     0.030    20.407     6.493
    12   6 C        2.912    -0.087    30.185     9.009
    13   6 C        2.905    -0.049    29.217     8.863
    14   6 C        3.809    -0.066    21.754     6.639
    15   6 C        3.802    -0.067    21.775     6.644
    16   6 C        2.842    -0.009    28.237     8.709
    17   7 N        2.729    -0.001    21.289     6.853
    18   6 C        3.756    -0.014    20.882     6.516
    19   6 C        3.808    -0.070    21.829     6.651
    20   6 C        2.970    -0.003    28.091     8.694
    21   6 C        2.922    -0.051    29.266     8.872
    22   6 C        2.914    -0.069    29.722     8.940
    23   6 C        2.865     0.131    25.134     8.218
    24   8 O        1.706    -0.229    17.799     5.696
    25   6 C        3.646     0.027    20.447     6.499
    26   6 C        2.863     0.131    25.138     8.218
    27   8 O        1.706    -0.231    17.836     5.702
    28   6 C        3.645     0.029    20.414     6.494
    29   6 C        2.920    -0.081    30.019     8.985
    30   6 C        3.699    -0.066    21.943     6.700
    31   6 C        2.947     0.010    27.789     8.646
    32   6 C        3.755    -0.121    22.869     6.819
    33   6 C        3.754    -0.119    22.834     6.814
    34   1 H        0.923     0.069     2.100     2.266
    35   1 H        0.924     0.058     2.229     2.335
    36   1 H        0.925     0.087     1.907     2.160
    37   1 H        0.924     0.053     2.289     2.366
    38   1 H        0.924     0.051     2.306     2.375
    39   1 H        0.925     0.078     2.002     2.213
    40   1 H        0.924     0.045     2.385     2.415
    41   1 H        0.926     0.050     2.321     2.383
    42   1 H        0.926     0.039     2.457     2.451
    43   1 H        0.924     0.053     2.280     2.361
    44   1 H        0.924     0.054     2.275     2.359
    45   1 H        0.925     0.063     2.167     2.302
    46   1 H        0.923     0.070     2.087     2.259
    47   1 H        0.923     0.014     2.827     2.629
    48   1 H        0.926     0.060     2.196     2.317
    49   1 H        0.924     0.063     2.163     2.300
    50   1 H        0.924     0.064     2.149     2.293
    51   1 H        0.924     0.052     2.290     2.366
    52   1 H        0.924     0.053     2.288     2.366
    53   1 H        0.926     0.041     2.433     2.439
    54   1 H        0.926     0.055     2.264     2.353
    55   1 H        0.924     0.051     2.313     2.379
    56   1 H        0.924     0.053     2.289     2.366
    57   1 H        0.925     0.079     1.990     2.206
    58   1 H        0.925     0.079     1.994     2.208
    59   1 H        0.924     0.045     2.381     2.413
    60   1 H        0.924     0.050     2.326     2.385
    61   1 H        0.926     0.044     2.400     2.422
    62   1 H        0.924     0.071     2.076     2.253
    63   1 H        0.924     0.074     2.038     2.232
    64   1 H        0.925     0.077     2.013     2.219
    65   1 H        0.923     0.080     1.979     2.200
    66   1 H        0.924     0.102     1.765     2.077
    67   1 H        0.925     0.056     2.252     2.347
    68   1 H        0.925     0.067     2.124     2.279
    69   1 H        0.924     0.079     1.991     2.207
    70   1 H        0.925     0.059     2.205     2.322
    71   1 H        0.925     0.066     2.126     2.280
    72   1 H        0.860     0.157     1.358     1.825

Wiberg/Mayer (AO) data.
largest (>0.10) Wiberg bond orders for each atom

     #   Z sym  total        # sym  WBO       # sym  WBO       # sym  WBO
 ---------------------------------------------------------------------------
     1   7 N    3.007 --     2 C    1.945    72 H    0.943
     2   6 C    3.871 --     1 N    1.945     3 C    0.944    47 H    0.907
     3   6 C    3.981 --    31 C    1.001     4 C    0.972    14 C    0.949
                             2 C    0.944
     4   6 C    3.757 --    13 C    1.600     5 C    1.022     3 C    0.972
     5   6 C    3.982 --     6 C    1.028     4 C    1.022    34 H    0.928
                            65 H    0.912
     6   6 C    3.653 --     9 C    1.346     7 O    1.124     5 C    1.028
     7   8 O    2.242 --     6 C    1.124     8 C    0.979
     8   6 C    3.928 --     7 O    0.979    36 H    0.976    35 H    0.970
                            37 H    0.969
     9   6 C    3.904 --     6 C    1.346    12 C    1.321    10 O    1.075
    10   8 O    2.231 --     9 C    1.075    11 C    0.980
    11   6 C    3.935 --    10 O    0.980    39 H    0.977    38 H    0.975
                            40 H    0.975
    12   6 C    3.719 --     9 C    1.321    13 C    1.296    41 H    0.966
    13   6 C    3.981 --     4 C    1.600    12 C    1.296    42 H    0.958
    14   6 C    3.961 --    15 C    0.987    44 H    0.973    43 H    0.970
                             3 C    0.949
    15   6 C    3.989 --    16 C    1.054    14 C    0.987    45 H    0.961
                            46 H    0.933
    16   6 C    3.515 --    17 N    1.358    15 C    1.054    48 H    0.960
    17   7 N    3.428 --    16 C    1.358    30 C    1.001    18 C    0.992
    18   6 C    3.958 --    17 N    0.992    50 H    0.968    19 C    0.966
                            49 H    0.964
    19   6 C    3.976 --    20 C    1.008    51 H    0.973    52 H    0.972
                            18 C    0.966
    20   6 C    3.954 --    21 C    1.417    29 C    1.376    19 C    1.008
    21   6 C    3.959 --    20 C    1.417    22 C    1.412    53 H    0.969
    22   6 C    3.965 --    21 C    1.412    23 C    1.390    54 H    0.964
    23   6 C    3.905 --    22 C    1.390    26 C    1.228    24 O    1.101
    24   8 O    2.254 --    23 C    1.101    25 C    0.978
    25   6 C    3.933 --    24 O    0.978    57 H    0.977    55 H    0.974
                            56 H    0.974
    26   6 C    3.908 --    29 C    1.401    23 C    1.228    27 O    1.095
    27   8 O    2.253 --    26 C    1.095    28 C    0.981
    28   6 C    3.936 --    27 O    0.981    58 H    0.977    59 H    0.974
                            60 H    0.974
    29   6 C    3.964 --    26 C    1.401    20 C    1.376    61 H    0.963
    30   6 C    3.961 --    17 N    1.001    64 H    0.978    62 H    0.968
                            63 H    0.963
    31   6 C    3.247 --    32 C    1.085    33 C    1.072     3 C    1.001
    32   6 C    3.973 --    31 C    1.085    67 H    0.973    68 H    0.965
                            66 H    0.909
    33   6 C    3.978 --    31 C    1.072    71 H    0.978    70 H    0.961
                            69 H    0.928
    34   1 H    0.963 --     5 C    0.928
    35   1 H    0.990 --     8 C    0.970
    36   1 H    0.992 --     8 C    0.976
    37   1 H    0.991 --     8 C    0.969
    38   1 H    0.995 --    11 C    0.975
    39   1 H    0.993 --    11 C    0.977
    40   1 H    0.995 --    11 C    0.975
    41   1 H    0.996 --    12 C    0.966
    42   1 H    0.998 --    13 C    0.958
    43   1 H    0.996 --    14 C    0.970
    44   1 H    0.996 --    14 C    0.973
    45   1 H    0.995 --    15 C    0.961
    46   1 H    0.966 --    15 C    0.933
    47   1 H    0.988 --     2 C    0.907
    48   1 H    0.996 --    16 C    0.960
    49   1 H    0.991 --    18 C    0.964
    50   1 H    0.995 --    18 C    0.968
    51   1 H    0.996 --    19 C    0.973
    52   1 H    0.996 --    19 C    0.972
    53   1 H    0.998 --    21 C    0.969
    54   1 H    0.996 --    22 C    0.964
    55   1 H    0.994 --    25 C    0.974
    56   1 H    0.993 --    25 C    0.974
    57   1 H    0.993 --    25 C    0.977
    58   1 H    0.993 --    28 C    0.977
    59   1 H    0.995 --    28 C    0.974
    60   1 H    0.994 --    28 C    0.974
    61   1 H    0.997 --    29 C    0.963
    62   1 H    0.984 --    30 C    0.968
    63   1 H    0.986 --    30 C    0.963
    64   1 H    0.994 --    30 C    0.978
    65   1 H    0.947 --     5 C    0.912
    66   1 H    0.934 --    32 C    0.909
    67   1 H    0.992 --    32 C    0.973
    68   1 H    0.981 --    32 C    0.965
    69   1 H    0.948 --    33 C    0.928
    70   1 H    0.978 --    33 C    0.961
    71   1 H    0.993 --    33 C    0.978
    72   1 H    0.972 --     1 N    0.943
 ---------------------------------------------------------------------------

molecular dipole:
                 x           y           z       tot (Debye)
 q only:       -1.343       0.766      -0.723
   full:       -1.028       0.778      -0.853       3.929

           -------------------------------------------------
          | TOTAL ENERGY              -99.327047620370 Eh   |
          | GRADIENT NORM               0.001826347280 Eh/α |
          | HOMO-LUMO GAP               0.068364672242 eV   |
           -------------------------------------------------

 * finished run on 2024/04/06 at 11:14:55.485
