   * xtb version 6.6.1 (8d0f1dd) compiled by 'conda@1efc2f54142f' on 2023-08-01
          program call               : xtb xtbopt.xyz --opt crude --input .xc2 --gfn2

   ID    Z sym.   atoms
    1    7 N      1, 17
    2    6 C      2-6, 8, 9, 11-16, 18-23, 25, 26, 28-33
    3    8 O      7, 10, 24, 27
    4    1 H      34-72

          :  Hamiltonian                  GFN2-xTB          :
 * total energy  :   -99.3237975 Eh     change       -0.2023626E-10 Eh
   *** GEOMETRY OPTIMIZATION CONVERGED AFTER 1 ITERATIONS ***

 final structure:
================
72
 xtb: 6.6.1 (8d0f1dd)
N           -1.22027226824254        4.43616410902886        2.18187829290788
C           -1.80605974382907        3.90924620366002        1.26674689431868
C           -2.46038695845601        3.55064899836330        0.19168643620829
C           -4.05080009478059        0.04692529936927        0.99752961782907
C           -4.71104376543599       -0.38950750652250       -0.14172924411929
C           -4.75029514082054       -1.74027244247796       -0.45723636860361
O           -5.36806787291137       -2.27721616836109       -1.52792616222231
C           -6.11346425092299       -1.44175642315804       -2.38206186886785
C           -4.10386284680913       -2.67222086517890        0.40185178251350
O           -4.20104939548739       -3.96110174554706        0.01973030350160
C           -3.66769972101829       -4.96731606311511        0.84835860333869
C           -3.44900693197709       -2.21191739450337        1.53505094349173
C           -3.42369745277800       -0.85501115843302        1.83261828498359
C           -1.73118385244896        3.16971908757137       -1.06967100126610
C           -1.41565983375590        1.66952862485226       -1.13632162186529
C           -0.45779275640356        1.24288957960911       -0.01521348365178
N            0.27752451008109        0.05488976854637       -0.37488971049055
C            1.66792443973414       -0.02816857420851        0.00041385885907
C            2.53433700203674       -0.49888459606135       -1.18716719460912
C            3.99003376565356       -0.32062460558245       -0.87506985303194
C            4.62812947807582        0.88064685987715       -1.15524121130872
C            5.96520127300734        1.06782852702336       -0.84627446954263
C            6.69836325897806        0.05484224021394       -0.24190129315460
O            7.99743164479267        0.12130681563242        0.09965276140985
C            8.72510209502665        1.29536449653125       -0.17782314469126
C            6.05323580693943       -1.17938985153001        0.05603016556563
O            6.83646345783322       -2.10568629252098        0.63947416821861
C            6.29925509973494       -3.36826467761825        0.95400984216919
C            4.71291094601012       -1.34107498223727       -0.26367942755953
C           -0.45809860897067       -1.17658268650994       -0.26305363070813
C           -3.97515838302117        3.53620855733906        0.18314075050794
C           -4.57094488573027        2.93882132497256        1.39597326826924
C           -4.48101427371452        4.99578666218116        0.03194264537473
H           -5.20808650380773        0.32944591499864       -0.77340820549563
H           -6.91076762683859       -0.92401658648119       -1.84025063836059
H           -6.55404957254437       -2.10243265245326       -3.12612571422935
H           -5.47480376330153       -0.70779434824510       -2.88407851906526
H           -4.13019832708282       -4.95634745596755        1.83967952760289
H           -3.90071669580899       -5.90742158266533        0.35202152835356
H           -2.58210963620590       -4.87056594992941        0.94972007096212
H           -2.96454531694926       -2.90544613013441        2.20313473190506
H           -2.92168121361678       -0.51597119622220        2.72575426635240
H           -2.35408835742990        3.43870417203174       -1.92487326683768
H           -0.79833807887859        3.73243300782757       -1.14140651196669
H           -2.34043201052063        1.09363629336238       -1.07979424104063
H           -0.93744706586350        1.45747479722728       -2.09356128771154
H           -1.02647864853039        1.09155483607166        0.91519993550318
H            0.25738450078687        2.05134345256822        0.15133386408076
H            1.81367255587048       -0.71398492249129        0.84652904356897
H            2.02066432016376        0.95910797644540        0.30491417811425
H            2.26477553616593        0.09896765294157       -2.05822949921358
H            2.31972640155017       -1.54447362836142       -1.40743534161369
H            4.08057011334480        1.68022794532226       -1.63035402951194
H            6.43319174439926        2.00908774543187       -1.08431446952175
H            8.31092762152009        2.15840028762636        0.35225179902626
H            8.75259807250103        1.50463552016431       -1.25139470208961
H            9.73541531912836        1.10383951712714        0.17872734895560
H            7.11783392232366       -3.93118365680008        1.39843625213447
H            5.48126604356768       -3.28724640369350        1.67673224116081
H            5.94632656196650       -3.88817157542180        0.05811630092263
H            4.21711828312430       -2.27442362863017       -0.04790534022809
H           -1.41812269606170       -1.08000123970861       -0.76537840644341
H           -0.64627328930436       -1.45074486900957        0.78526068288133
H            0.10207580017806       -1.97940821443845       -0.73732000224897
H           -4.31059904951427        2.98679380155466       -0.70418012559763
H           -4.10245388315042        3.10076397963721        2.35058891098305
H           -4.07027322464610        1.12164192303930        1.23678543917752
H           -5.62818785702855        2.74011759281618        1.39833235811474
H           -4.19494429565638        5.57991966983412        0.90258078265307
H           -4.03796799938886        5.44602742934015       -0.85269372123690
H           -5.56288061493227        5.01168396842835       -0.06685594226937
H           -0.84193921312963        3.97214495826440        2.99389661047984

          :  Hamiltonian                  GFN2-xTB          :
         :: total energy             -99.323797474809 Eh    ::
         :: gradient norm              0.001661756291 Eh/a0 ::
         :: HOMO-LUMO gap              0.904271539520 eV    ::
         :: SCC energy              -100.737559891615 Eh    ::
         :: -> dispersion             -0.069563263513 Eh    ::
         :: repulsion energy           1.412465467382 Eh    ::

    * Orbital Energies and Occupations

         #    Occupation            Energy/Eh            Energy/eV
      -------------------------------------------------------------
         1        2.0000           -0.8104150             -22.0525
       ...           ...                  ...                  ...
        78        1.9981           -0.5324278             -14.4881
        79        1.9977           -0.5298709             -14.4185
        80        1.9976           -0.5291326             -14.3984
        81        1.9972           -0.5266978             -14.3322
        82        1.9967           -0.5239779             -14.2582
        83        1.9966           -0.5233446             -14.2409
        84        1.9949           -0.5167858             -14.0625
        85        1.9762           -0.4923866             -13.3985
        86        1.9660           -0.4866654             -13.2428
        87        1.8564           -0.4629522             -12.5976
        88        1.8353           -0.4605986             -12.5335
        89        1.7977           -0.4570100             -12.4359
        90        1.7224           -0.4513264             -12.2812 (HOMO)
        91        0.8642           -0.4180951             -11.3769 (LUMO)
        92        0.0069           -0.3327759              -9.0553
        93        0.0023           -0.3156042              -8.5880
        94        0.0019           -0.3121684              -8.4945
        95        0.0017           -0.3100374              -8.4365
        96        0.0015           -0.3081257              -8.3845
        97        0.0002           -0.2793960              -7.6028
        98        0.0000           -0.1872494              -5.0953
        99        0.0000           -0.1855999              -5.0504
       100                         -0.1016418              -2.7658
       101                         -0.0644671              -1.7542
       ...                                ...                  ...
       171                          1.0001102              27.2144
      -------------------------------------------------------------
                  HL-Gap            0.0332314 Eh            0.9043 eV

     #   Z          covCN         q      C6AA      α(0)
     1   7 N        1.772    -0.209    26.340     7.600
     2   6 C        1.907     0.104    28.533     8.627
     3   6 C        2.945    -0.029    28.734     8.792
     4   6 C        2.916    -0.045    29.106     8.847
     5   6 C        2.915    -0.070    29.742     8.943
     6   6 C        2.864     0.133    25.090     8.211
     7   8 O        1.706    -0.226    17.743     5.687
     8   6 C        3.645     0.027    20.455     6.500
     9   6 C        2.864     0.133    25.097     8.212
    10   8 O        1.706    -0.226    17.741     5.687
    11   6 C        3.645     0.026    20.471     6.503
    12   6 C        2.915    -0.068    29.689     8.935
    13   6 C        2.917    -0.038    28.937     8.821
    14   6 C        3.810    -0.055    21.562     6.610
    15   6 C        3.802    -0.067    21.784     6.645
    16   6 C        3.748    -0.003    20.697     6.489
    17   7 N        2.728    -0.109    23.388     7.183
    18   6 C        3.749     0.000    20.636     6.479
    19   6 C        3.808    -0.072    21.878     6.658
    20   6 C        2.968     0.010    27.795     8.648
    21   6 C        2.922    -0.045    29.110     8.848
    22   6 C        2.913    -0.066    29.634     8.927
    23   6 C        2.864     0.135    25.056     8.205
    24   8 O        1.706    -0.217    17.596     5.664
    25   6 C        3.645     0.024    20.507     6.508
    26   6 C        2.862     0.135    25.046     8.203
    27   8 O        1.706    -0.219    17.636     5.670
    28   6 C        3.645     0.026    20.480     6.504
    29   6 C        2.919    -0.076    29.896     8.966
    30   6 C        3.702    -0.048    21.585     6.643
    31   6 C        3.859     0.005    20.457     6.432
    32   6 C        2.840    -0.093    30.318     9.024
    33   6 C        3.758    -0.105    22.554     6.771
    34   1 H        0.926     0.049     2.330     2.387
    35   1 H        0.924     0.055     2.260     2.351
    36   1 H        0.925     0.082     1.958     2.188
    37   1 H        0.924     0.050     2.321     2.383
    38   1 H        0.924     0.056     2.242     2.341
    39   1 H        0.925     0.082     1.960     2.189
    40   1 H        0.924     0.050     2.321     2.383
    41   1 H        0.926     0.054     2.276     2.359
    42   1 H        0.926     0.044     2.398     2.421
    43   1 H        0.924     0.060     2.200     2.319
    44   1 H        0.924     0.051     2.311     2.377
    45   1 H        0.924     0.044     2.398     2.421
    46   1 H        0.924     0.060     2.201     2.320
    47   1 H        0.923     0.032     2.561     2.503
    48   1 H        0.924     0.048     2.339     2.392
    49   1 H        0.923     0.040     2.452     2.449
    50   1 H        0.924     0.048     2.342     2.393
    51   1 H        0.924     0.062     2.174     2.306
    52   1 H        0.925     0.053     2.283     2.363
    53   1 H        0.926     0.052     2.294     2.368
    54   1 H        0.926     0.060     2.199     2.319
    55   1 H        0.924     0.057     2.239     2.340
    56   1 H        0.924     0.058     2.219     2.329
    57   1 H        0.925     0.084     1.941     2.179
    58   1 H        0.925     0.083     1.948     2.182
    59   1 H        0.924     0.053     2.288     2.365
    60   1 H        0.924     0.056     2.250     2.346
    61   1 H        0.926     0.053     2.284     2.363
    62   1 H        0.925     0.055     2.258     2.350
    63   1 H        0.923     0.036     2.507     2.476
    64   1 H        0.925     0.060     2.194     2.316
    65   1 H        0.924     0.060     2.199     2.319
    66   1 H        0.926     0.049     2.337     2.391
    67   1 H        0.923     0.066     2.126     2.280
    68   1 H        0.926     0.060     2.203     2.321
    69   1 H        0.925     0.055     2.261     2.351
    70   1 H        0.925     0.059     2.209     2.324
    71   1 H        0.925     0.058     2.223     2.331
    72   1 H        0.860     0.194     1.135     1.669

Wiberg/Mayer (AO) data.
largest (>0.10) Wiberg bond orders for each atom

     #   Z sym  total        # sym  WBO       # sym  WBO       # sym  WBO
 ---------------------------------------------------------------------------
     1   7 N    3.231 --     2 C    2.091    72 H    0.907     3 C    0.135
     2   6 C    3.875 --     1 N    2.091     3 C    1.678
     3   6 C    3.831 --     2 C    1.678    14 C    0.979    31 C    0.958
                             1 N    0.135
     4   6 C    3.869 --    13 C    1.436     5 C    1.408    67 H    0.872
     5   6 C    3.956 --     4 C    1.408     6 C    1.384    34 H    0.962
     6   6 C    3.890 --     5 C    1.384     9 C    1.221     7 O    1.104
     7   8 O    2.250 --     6 C    1.104     8 C    0.977
     8   6 C    3.930 --     7 O    0.977    36 H    0.977    35 H    0.973
                            37 H    0.973
     9   6 C    3.894 --    12 C    1.389     6 C    1.221    10 O    1.104
    10   8 O    2.250 --     9 C    1.104    11 C    0.977
    11   6 C    3.930 --    10 O    0.977    39 H    0.977    40 H    0.973
                            38 H    0.973
    12   6 C    3.953 --    13 C    1.404     9 C    1.389    41 H    0.963
    13   6 C    3.944 --     4 C    1.436    12 C    1.404    42 H    0.969
    14   6 C    3.985 --    15 C    0.987     3 C    0.979    44 H    0.971
                            43 H    0.964
    15   6 C    3.970 --    16 C    0.991    14 C    0.987    45 H    0.974
                            46 H    0.971
    16   6 C    3.971 --    17 N    1.008    15 C    0.991    48 H    0.968
                            47 H    0.957
    17   7 N    3.106 --    30 C    1.020    18 C    1.010    16 C    1.008
    18   6 C    3.964 --    17 N    1.010    50 H    0.969    19 C    0.966
                            49 H    0.960
    19   6 C    3.974 --    20 C    1.016    52 H    0.970    51 H    0.969
                            18 C    0.966
    20   6 C    3.926 --    21 C    1.389    29 C    1.385    19 C    1.016
    21   6 C    3.928 --    22 C    1.426    20 C    1.389    53 H    0.967
    22   6 C    3.950 --    21 C    1.426    23 C    1.373    54 H    0.962
    23   6 C    3.872 --    22 C    1.373    26 C    1.211    24 O    1.115
    24   8 O    2.246 --    23 C    1.115    25 C    0.975
    25   6 C    3.925 --    57 H    0.976    24 O    0.975    55 H    0.971
                            56 H    0.971
    26   6 C    3.880 --    29 C    1.387    23 C    1.211    27 O    1.110
    27   8 O    2.248 --    26 C    1.110    28 C    0.977
    28   6 C    3.928 --    27 O    0.977    58 H    0.976    59 H    0.972
                            60 H    0.972
    29   6 C    3.951 --    26 C    1.387    20 C    1.385    61 H    0.962
    30   6 C    3.970 --    17 N    1.020    62 H    0.978    64 H    0.977
                            63 H    0.961
    31   6 C    3.977 --    32 C    1.076     3 C    0.958    65 H    0.946
                            33 C    0.923
    32   6 C    3.200 --    31 C    1.076    66 H    0.978    68 H    0.978
    33   6 C    3.912 --    69 H    0.987    71 H    0.982    70 H    0.977
                            31 C    0.923
    34   1 H    0.995 --     5 C    0.962
    35   1 H    0.992 --     8 C    0.973
    36   1 H    0.992 --     8 C    0.977
    37   1 H    0.992 --     8 C    0.973
    38   1 H    0.992 --    11 C    0.973
    39   1 H    0.993 --    11 C    0.977
    40   1 H    0.992 --    11 C    0.973
    41   1 H    0.994 --    12 C    0.963
    42   1 H    0.996 --    13 C    0.969
    43   1 H    0.991 --    14 C    0.964
    44   1 H    0.994 --    14 C    0.971
    45   1 H    0.997 --    15 C    0.974
    46   1 H    0.995 --    15 C    0.971
    47   1 H    0.980 --    16 C    0.957
    48   1 H    0.997 --    16 C    0.968
    49   1 H    0.982 --    18 C    0.960
    50   1 H    0.997 --    18 C    0.969
    51   1 H    0.993 --    19 C    0.969
    52   1 H    0.995 --    19 C    0.970
    53   1 H    0.996 --    21 C    0.967
    54   1 H    0.994 --    22 C    0.962
    55   1 H    0.989 --    25 C    0.971
    56   1 H    0.989 --    25 C    0.971
    57   1 H    0.992 --    25 C    0.976
    58   1 H    0.992 --    28 C    0.976
    59   1 H    0.991 --    28 C    0.972
    60   1 H    0.991 --    28 C    0.972
    61   1 H    0.996 --    29 C    0.962
    62   1 H    0.994 --    30 C    0.978
    63   1 H    0.976 --    30 C    0.961
    64   1 H    0.993 --    30 C    0.977
    65   1 H    0.981 --    31 C    0.946
    66   1 H    0.995 --    32 C    0.978
    67   1 H    0.994 --     4 C    0.872
    68   1 H    0.993 --    32 C    0.978
    69   1 H    0.996 --    33 C    0.987
    70   1 H    0.988 --    33 C    0.977
    71   1 H    0.994 --    33 C    0.982
    72   1 H    0.953 --     1 N    0.907
 ---------------------------------------------------------------------------

molecular dipole:
                 x           y           z       tot (Debye)
 q only:       -0.140       0.662       0.069
   full:       -0.316       0.572       0.398       1.946

           -------------------------------------------------
          | TOTAL ENERGY              -99.323797474809 Eh   |
          | GRADIENT NORM               0.001661756291 Eh/α |
          | HOMO-LUMO GAP               0.904271539520 eV   |
           -------------------------------------------------

 * finished run on 2024/04/06 at 11:12:01.321
