   * xtb version 6.6.1 (8d0f1dd) compiled by 'conda@1efc2f54142f' on 2023-08-01
          program call               : xtb struc.xyz --opt loose --input .xc1 --gfn2

   ID    Z sym.   atoms
    1    6 C      1, 3, 5-7, 10, 11, 14
    2    7 N      2, 4, 9, 13
    3    8 O      8, 12
    4    1 H      15-25
constraining bond 6 10 to    6.0000000 Å, actual value:    3.7045483 Å

          :  Hamiltonian                  GFN2-xTB          :
 * total energy  :   -32.8397144 Eh     change       -0.6650680E-10 Eh
 * total energy  :   -36.6825626 Eh     change       -0.3842848E+01 Eh
 * total energy  :   -39.2887378 Eh     change       -0.2606175E+01 Eh
 * total energy  :   -40.8264168 Eh     change       -0.1537679E+01 Eh
 * total energy  :   -41.4261007 Eh     change       -0.5996839E+00 Eh
 * total energy  :   -41.5659980 Eh     change       -0.1398973E+00 Eh
 * total energy  :   -41.6252965 Eh     change       -0.5929852E-01 Eh
 * total energy  :   -41.7029688 Eh     change       -0.7767228E-01 Eh
 * total energy  :   -41.7769552 Eh     change       -0.7398642E-01 Eh
 * total energy  :   -41.8343354 Eh     change       -0.5738014E-01 Eh
 * total energy  :   -42.1124106 Eh     change       -0.1214114E-01 Eh
 * total energy  :   -42.1156402 Eh     change       -0.3229608E-02 Eh
 * total energy  :   -42.1170666 Eh     change       -0.1426398E-02 Eh
 * total energy  :   -42.1178941 Eh     change       -0.8274753E-03 Eh
 * total energy  :   -42.1183577 Eh     change       -0.4635955E-03 Eh
 * total energy  :   -42.1186098 Eh     change       -0.2521514E-03 Eh
 * total energy  :   -42.1186930 Eh     change       -0.8317193E-04 Eh
 * total energy  :   -42.1187504 Eh     change       -0.5741407E-04 Eh
 * total energy  :   -42.1187870 Eh     change       -0.3652663E-04 Eh
   *** GEOMETRY OPTIMIZATION CONVERGED AFTER 37 ITERATIONS ***

 final structure:
================
25
 xtb: 6.6.1 (8d0f1dd)
C            3.56664833371408        0.85581700817560        0.04006828671998
N            2.58106046960182       -0.19154518898808       -0.00126391626432
C            2.79422604211373       -1.49639113302420       -0.06775311730332
N            1.61455704249708       -2.15470565470587       -0.06198853059249
C            0.61012656855824       -1.22590402301903        0.01034978050715
C            1.23043622802366        0.01680400406464        0.04893643593074
C            0.41827270474609        1.25367898208942        0.08097509189035
O            0.91745132398017        2.35906943850308        0.08464669425503
N           -0.89613640239359        0.98524227430719        0.09083670683171
C           -3.86105167219398        3.18694531401195       -0.10156052087207
C           -1.53218026308841       -0.17605637307284        0.07559623445647
O           -2.72762952642668       -0.31504968235874        0.08629320501334
N           -0.71160808344896       -1.39369505190132        0.03448580198372
C           -1.35627258700990       -2.68406890065733        0.01963113275668
H            4.00656746852396        0.91959509565977        1.03645930543389
H            4.35518938791706        0.66657453096211       -0.68517683849838
H            3.06967579826055        1.80209834706081       -0.17789955865954
H            3.75609026336685       -1.96774114003418       -0.12329055663097
H           -3.10014438328410        3.94311438129834       -0.09448690148091
H           -4.19470761223641        2.76681496667553       -1.03062734052813
H           -4.27428019566539        2.82950398198854        0.82140416623444
H           -1.05692869080944       -3.27565355522823        0.88617117957658
H           -1.12558985061087       -3.22477285311536       -0.89975781188731
H           -2.43041609160100       -2.50314782369355        0.06494127608159
H            1.50707524158455       -3.15828840342333       -0.10581858707843

          :  Hamiltonian                  GFN2-xTB          :
         :: total energy             -42.118786954509 Eh    ::
         :: gradient norm              0.003224834899 Eh/a0 ::
         :: HOMO-LUMO gap              1.031624500395 eV    ::
         :: SCC energy               -42.650588559389 Eh    ::
         :: -> dispersion             -0.020851353872 Eh    ::
         :: repulsion energy           0.531761093250 Eh    ::

    * Orbital Energies and Occupations

         #    Occupation            Energy/Eh            Energy/eV
      -------------------------------------------------------------
         1        2.0000           -0.9095122             -24.7491
       ...           ...                  ...                  ...
        25        1.9998           -0.6529335             -17.7672
        26        1.9998           -0.6455818             -17.5672
        27        1.9994           -0.6306871             -17.1619
        28        1.9986           -0.6172410             -16.7960
        29        1.9985           -0.6164443             -16.7743
        30        1.9983           -0.6141144             -16.7109
        31        1.9981           -0.6123923             -16.6640
        32        1.9980           -0.6120750             -16.6554
        33        1.9707           -0.5692267             -15.4894
        34        1.9063           -0.5503065             -14.9746
        35        1.9054           -0.5501542             -14.9705
        36        1.8662           -0.5443410             -14.8123
        37        1.6859           -0.5292114             -14.4006 (HOMO)
        38        0.6574           -0.4912999             -13.3690 (LUMO)
        39        0.0165           -0.4267449             -11.6123
        40        0.0013           -0.3864332             -10.5154
        41        0.0002           -0.3572836              -9.7222
        42        0.0000           -0.2605339              -7.0895
        43                         -0.1950954              -5.3088
        44                         -0.1735899              -4.7236
        45                         -0.1387948              -3.7768
        46                         -0.0817064              -2.2233
        47                         -0.0554501              -1.5089
        48                         -0.0351787              -0.9573
       ...                                ...                  ...
        67                          0.5687746              15.4771
      -------------------------------------------------------------
                  HL-Gap            0.0379115 Eh            1.0316 eV

     #   Z          covCN         q      C6AA      α(0)
     1   6 C        3.692    -0.094    22.481     6.784
     2   7 N        2.834     0.089    19.692     6.591
     3   6 C        3.059     0.056    26.682     8.471
     4   7 N        2.799    -0.064    22.484     7.043
     5   6 C        3.031     0.123    25.274     8.246
     6   6 C        3.134    -0.018    28.227     8.697
     7   6 C        2.761     0.299    21.923     7.668
     8   8 O        0.858    -0.339    20.502     6.071
     9   7 N        1.843    -0.250    27.361     7.752
    10   6 C        2.779    -0.064    29.564     8.906
    11   6 C        2.708     0.337    21.278     7.550
    12   8 O        0.860    -0.348    20.671     6.096
    13   7 N        2.735    -0.070    22.603     7.061
    14   6 C        3.693    -0.066    21.957     6.705
    15   1 H        0.924     0.112     1.677     2.025
    16   1 H        0.925     0.105     1.738     2.062
    17   1 H        0.924     0.140     1.458     1.888
    18   1 H        0.926     0.125     1.573     1.961
    19   1 H        0.926     0.136     1.487     1.907
    20   1 H        0.926     0.135     1.495     1.912
    21   1 H        0.926     0.137     1.483     1.904
    22   1 H        0.924     0.080     1.975     2.198
    23   1 H        0.924     0.081     1.973     2.197
    24   1 H        0.924     0.126     1.562     1.955
    25   1 H        0.860     0.229     0.969     1.542

Wiberg/Mayer (AO) data.
largest (>0.10) Wiberg bond orders for each atom

     #   Z sym  total        # sym  WBO       # sym  WBO       # sym  WBO
 ---------------------------------------------------------------------------
     1   6 C    3.908 --     2 N    0.984    16 H    0.965    17 H    0.955
                            15 H    0.952
     2   7 N    3.717 --     3 C    1.406     6 C    1.182     1 C    0.984
     3   6 C    3.885 --     2 N    1.406     4 N    1.284    18 H    0.952
     4   7 N    3.590 --     3 C    1.284     5 C    1.171    25 H    0.919
     5   6 C    3.950 --     6 C    1.338    13 N    1.266     4 N    1.171
     6   6 C    3.807 --     5 C    1.338     2 N    1.182     7 C    0.990
     7   6 C    3.947 --     8 O    1.641     9 N    1.235     6 C    0.990
     8   8 O    1.933 --     7 C    1.641     9 N    0.133
     9   7 N    2.862 --    11 C    1.282     7 C    1.235     8 O    0.133
                            12 O    0.115
    10   6 C    2.937 --    20 H    0.979    19 H    0.979    21 H    0.978
    11   6 C    3.946 --    12 O    1.669     9 N    1.282    13 N    0.914
    12   8 O    1.968 --    11 C    1.669     9 N    0.115
    13   7 N    3.463 --     5 C    1.266    14 C    0.987    11 C    0.914
    14   6 C    3.918 --    13 N    0.987    22 H    0.964    23 H    0.964
                            24 H    0.960
    15   1 H    0.985 --     1 C    0.952
    16   1 H    0.987 --     1 C    0.965
    17   1 H    0.979 --     1 C    0.955
    18   1 H    0.983 --     3 C    0.952
    19   1 H    0.980 --    10 C    0.979
    20   1 H    0.980 --    10 C    0.979
    21   1 H    0.980 --    10 C    0.978
    22   1 H    0.982 --    14 C    0.964
    23   1 H    0.982 --    14 C    0.964
    24   1 H    0.981 --    14 C    0.960
    25   1 H    0.947 --     4 N    0.919
 ---------------------------------------------------------------------------

molecular dipole:
                 x           y           z       tot (Debye)
 q only:        1.806      -1.557      -0.162
   full:        2.219      -2.275      -0.178       8.091

           -------------------------------------------------
          | TOTAL ENERGY              -42.118786954509 Eh   |
          | GRADIENT NORM               0.003224834899 Eh/α |
          | HOMO-LUMO GAP               1.031624500395 eV   |
           -------------------------------------------------

 * finished run on 2024/06/05 at 19:57:56.650
