   * xtb version 6.6.1 (8d0f1dd) compiled by 'conda@1efc2f54142f' on 2023-08-01
          program call               : xtb struc.xyz --opt loose --input .xc1 --gfn2

   ID    Z sym.   atoms
    1    7 N      1, 17
    2    6 C      2-6, 8, 9, 11-16, 18-23, 25, 26, 28-33
    3    8 O      7, 10, 24, 27
    4    1 H      34-72
constraining bond 20 49 to    5.1400000 Å, actual value:    2.7421593 Å

          :  Hamiltonian                  GFN2-xTB          :
 * total energy  :   -98.3775142 Eh     change       -0.4035485E-08 Eh
 * total energy  :   -98.7489471 Eh     change       -0.3714329E+00 Eh
 * total energy  :   -98.9803364 Eh     change       -0.2313892E+00 Eh
 * total energy  :   -99.0919753 Eh     change       -0.1116390E+00 Eh
 * total energy  :   -99.1437987 Eh     change       -0.5182340E-01 Eh
 * total energy  :   -99.1763227 Eh     change       -0.3252402E-01 Eh
 * total energy  :   -99.2076323 Eh     change       -0.3130959E-01 Eh
 * total energy  :   -99.2331785 Eh     change       -0.2554618E-01 Eh
 * total energy  :   -99.2465940 Eh     change       -0.1341551E-01 Eh
 * total energy  :   -99.2595626 Eh     change       -0.1296858E-01 Eh
 * total energy  :   -99.4084934 Eh     change       -0.3558641E-03 Eh
 * total energy  :   -99.4088330 Eh     change       -0.3396416E-03 Eh
 * total energy  :   -99.4090321 Eh     change       -0.1991170E-03 Eh
 * total energy  :   -99.4092645 Eh     change       -0.2323745E-03 Eh
 * total energy  :   -99.4094090 Eh     change       -0.1445313E-03 Eh
 * total energy  :   -99.4095109 Eh     change       -0.1018235E-03 Eh
 * total energy  :   -99.4095542 Eh     change       -0.4334925E-04 Eh
 * total energy  :   -99.4096094 Eh     change       -0.5523870E-04 Eh
 * total energy  :   -99.4096453 Eh     change       -0.3582027E-04 Eh
   *** GEOMETRY OPTIMIZATION CONVERGED AFTER 86 ITERATIONS ***

 final structure:
================
72
 xtb: 6.6.1 (8d0f1dd)
N           -0.83616364963730        2.47422097371955        1.74416378630084
C           -2.05212692384216        2.16595805756301        1.79939604740852
C           -2.87355370872078        1.89552778601893        0.56791757917853
C           -3.37345958315812        0.46060473414805        0.57107430448029
C           -4.28059629390468        0.04155667474227       -0.40424100907205
C           -4.76812773518391       -1.25414058697844       -0.43357054757722
O           -5.65170987957790       -1.73461287897571       -1.33324192668873
C           -6.19662051103396       -0.86384857833469       -2.29567838523722
C           -4.33125538186636       -2.18776974343653        0.54416772285361
O           -4.86625082688577       -3.42277969737043        0.44740780641537
C           -4.55624027322382       -4.38293217030249        1.42952368772485
C           -3.41259118147382       -1.77343670664258        1.49520651572623
C           -2.93944658268856       -0.46766706508536        1.50540562205917
C           -2.06550754944494        2.18097879841563       -0.72152660891164
C           -1.23887829015009        1.02512352696117       -1.28567464022368
C           -0.06694509564433        0.62642658627690       -0.38315444118264
N            0.85375365350651       -0.24692195194562       -1.07447729352461
C            1.94658127116170        0.23898740624257       -1.62117195690448
C            3.02148802787608       -0.54339918491353       -2.26817745320999
C            4.29769380973073       -0.23767883096018       -1.50968016261308
C            5.00021000499740        0.92761878327955       -1.76727097163167
C            6.15722863933830        1.22536279787443       -1.06473706507722
C            6.63373056856792        0.36300069956948       -0.08771329374003
O            7.74593048095228        0.54932356407074        0.64732295411304
C            8.53616981381211        1.69373820769041        0.41692468644692
C            5.91484762142892       -0.83296023607039        0.18508943087907
O            6.44798220438635       -1.61691281844934        1.14367600526291
C            5.84094897845279       -2.85034448773296        1.44381541847841
C            4.75585428176991       -1.10800502111946       -0.52451197818379
C            0.47082935762419       -1.63306428689345       -1.20558258454357
C           -4.09679383010490        2.87011669253527        0.62174874450518
C           -5.05276901353374        2.56380732460729        1.77423644755991
C           -3.65589962112449        4.33118114728222        0.69151910754308
H           -4.61611669373973        0.74533636915719       -1.14741164900121
H           -6.73973944435651       -0.03757703679332       -1.82730160767568
H           -6.89114312109293       -1.46840730828566       -2.87588771808696
H           -5.42386724170065       -0.46460578154529       -2.96046900798406
H           -4.83500098468667       -4.03792096604255        2.42971498567251
H           -5.14516898478773       -5.26169786354998        1.17500061160171
H           -3.49313026865143       -4.64374764465181        1.41653181725536
H           -3.06232952672289       -2.46127442930961        2.24797714598858
H           -2.23024591153057       -0.18451408937312        2.26848051331257
H           -2.76205619977592        2.48662814820261       -1.50288063362282
H           -1.39741938099526        3.01526153011787       -0.51408328011415
H           -1.87916595397600        0.16193107188815       -1.47302328773835
H           -0.82779108110614        1.35222182372473       -2.24414427456899
H           -2.62225478290864        2.10898686022550        2.73068276903550
H            0.45194339768598        1.52766098280904       -0.05691545855344
H           -0.42831310001491        0.10758935895004        0.50368164925804
H            2.12192783106252        1.29672488998672       -1.49491300725935
H            3.14299103598690       -0.21566745786907       -3.30534359032379
H            2.81836712035275       -1.61195836500753       -2.26407870461161
H            4.65834075361120        1.60975411878582       -2.53046669070529
H            6.68752620227584        2.13493307442431       -1.29397380098069
H            7.98568036225089        2.61226700180316        0.64296472137755
H            8.89935294108851        1.72916592642966       -0.61443720519210
H            9.38323173512109        1.60523785179963        1.09451097587290
H            6.46986446966829       -3.30773329804455        2.20498665810434
H            4.83111327160972       -2.71415207563276        1.84467389192350
H            5.80327131930482       -3.50356044404520        0.56640919369902
H            4.20981224540473       -2.01740691173077       -0.32823719481241
H            0.44984770151036       -1.93588686797146       -2.25378564176154
H           -0.52156420292635       -1.77186536820389       -0.78400384428217
H            1.16899542683352       -2.27971724507419       -0.66911584136476
H           -4.65296088599755        2.73385678994462       -0.30962615159249
H           -4.64482105941372        2.88902387908649        2.72762461001334
H           -5.27659930496961        1.50162918840479        1.83244748760374
H           -5.98592516452093        3.09965915514234        1.62005231618104
H           -3.00028507431560        4.50263740376439        1.54212675821046
H           -3.13258628705496        4.63466579755243       -0.21095476912311
H           -4.52998109253749        4.96850587417728        0.80494996013811
H           -0.38559725137272        2.68109606345210        2.63131658808226

          :  Hamiltonian                  GFN2-xTB          :
         :: total energy             -99.409645270901 Eh    ::
         :: gradient norm              0.002475936814 Eh/a0 ::
         :: HOMO-LUMO gap              1.797042169703 eV    ::
         :: SCC energy              -100.792215611511 Eh    ::
         :: -> dispersion             -0.073812922288 Eh    ::
         :: repulsion energy           1.381073349955 Eh    ::

    * Orbital Energies and Occupations

         #    Occupation            Energy/Eh            Energy/eV
      -------------------------------------------------------------
         1        2.0000           -0.8069317             -21.9577
       ...           ...                  ...                  ...
        78        1.9989           -0.5338779             -14.5276
        79        1.9986           -0.5293053             -14.4031
        80        1.9983           -0.5266285             -14.3303
        81        1.9978           -0.5228520             -14.2275
        82        1.9976           -0.5211196             -14.1804
        83        1.9968           -0.5166626             -14.0591
        84        1.9958           -0.5123433             -13.9416
        85        1.9942           -0.5073481             -13.8056
        86        1.9830           -0.4901675             -13.3381
        87        1.9797           -0.4873762             -13.2622
        88        1.9458           -0.4715218             -12.8308
        89        1.8709           -0.4571565             -12.4399
        90        1.8681           -0.4568018             -12.4302 (HOMO)
        91        0.3589           -0.3907617             -10.6332 (LUMO)
        92        0.0113           -0.3330279              -9.0621
        93        0.0033           -0.3133970              -8.5280
        94        0.0032           -0.3131591              -8.5215
        95        0.0027           -0.3103531              -8.4451
        96        0.0027           -0.3101571              -8.4398
        97        0.0000           -0.1876810              -5.1071
        98        0.0000           -0.1871141              -5.0916
        99                         -0.1310347              -3.5656
       100                         -0.0651569              -1.7730
       101                         -0.0618061              -1.6818
       ...                                ...                  ...
       171                          0.5754637              15.6592
      -------------------------------------------------------------
                  HL-Gap            0.0660401 Eh            1.7970 eV

     #   Z          covCN         q      C6AA      α(0)
     1   7 N        1.775    -0.309    28.826     7.951
     2   6 C        2.826     0.102    25.735     8.313
     3   6 C        3.907     0.004    20.461     6.429
     4   6 C        2.972     0.004    27.920     8.667
     5   6 C        2.921    -0.078    29.954     8.975
     6   6 C        2.862     0.129    25.171     8.224
     7   8 O        1.706    -0.231    17.829     5.701
     8   6 C        3.645     0.028    20.440     6.498
     9   6 C        2.864     0.128    25.193     8.227
    10   8 O        1.706    -0.230    17.819     5.699
    11   6 C        3.645     0.028    20.441     6.498
    12   6 C        2.914    -0.074    29.842     8.958
    13   6 C        2.922    -0.053    29.329     8.881
    14   6 C        3.806    -0.072    21.865     6.657
    15   6 C        3.801    -0.064    21.735     6.638
    16   6 C        3.757    -0.035    21.249     6.572
    17   7 N        2.729     0.033    20.668     6.752
    18   6 C        2.861     0.013    27.711     8.629
    19   6 C        3.810    -0.071    21.859     6.655
    20   6 C        2.981     0.003    27.960     8.674
    21   6 C        2.921    -0.050    29.244     8.868
    22   6 C        2.914    -0.067    29.673     8.932
    23   6 C        2.865     0.133    25.087     8.210
    24   8 O        1.706    -0.223    17.703     5.681
    25   6 C        3.645     0.025    20.491     6.506
    26   6 C        2.863     0.132    25.101     8.212
    27   8 O        1.706    -0.226    17.755     5.689
    28   6 C        3.645     0.028    20.441     6.498
    29   6 C        2.918    -0.080    29.987     8.980
    30   6 C        3.701    -0.073    22.059     6.716
    31   6 C        3.857    -0.013    20.769     6.481
    32   6 C        3.754    -0.110    22.668     6.789
    33   6 C        3.755    -0.112    22.704     6.794
    34   1 H        0.926     0.053     2.278     2.360
    35   1 H        0.924     0.053     2.279     2.361
    36   1 H        0.925     0.080     1.977     2.199
    37   1 H        0.924     0.048     2.351     2.398
    38   1 H        0.924     0.054     2.272     2.357
    39   1 H        0.925     0.080     1.977     2.199
    40   1 H        0.924     0.048     2.350     2.398
    41   1 H        0.926     0.051     2.311     2.377
    42   1 H        0.926     0.036     2.506     2.476
    43   1 H        0.924     0.053     2.283     2.363
    44   1 H        0.925     0.072     2.063     2.246
    45   1 H        0.924     0.047     2.358     2.401
    46   1 H        0.924     0.049     2.328     2.386
    47   1 H        0.924     0.026     2.647     2.544
    48   1 H        0.925     0.095     1.835     2.118
    49   1 H        0.925     0.076     2.024     2.225
    50   1 H        0.926     0.080     1.981     2.201
    51   1 H        0.924     0.085     1.924     2.169
    52   1 H        0.925     0.068     2.107     2.270
    53   1 H        0.926     0.049     2.331     2.388
    54   1 H        0.926     0.060     2.197     2.318
    55   1 H        0.924     0.054     2.269     2.356
    56   1 H        0.924     0.056     2.249     2.345
    57   1 H        0.925     0.082     1.957     2.188
    58   1 H        0.925     0.082     1.962     2.190
    59   1 H        0.924     0.046     2.365     2.405
    60   1 H        0.924     0.052     2.300     2.372
    61   1 H        0.926     0.045     2.387     2.416
    62   1 H        0.924     0.082     1.959     2.189
    63   1 H        0.925     0.083     1.947     2.182
    64   1 H        0.924     0.079     1.986     2.204
    65   1 H        0.924     0.041     2.437     2.442
    66   1 H        0.925     0.043     2.410     2.427
    67   1 H        0.925     0.039     2.464     2.455
    68   1 H        0.925     0.049     2.329     2.386
    69   1 H        0.925     0.039     2.462     2.454
    70   1 H        0.925     0.043     2.410     2.427
    71   1 H        0.925     0.053     2.279     2.361
    72   1 H        0.860     0.152     1.386     1.844

Wiberg/Mayer (AO) data.
largest (>0.10) Wiberg bond orders for each atom

     #   Z sym  total        # sym  WBO       # sym  WBO       # sym  WBO
 ---------------------------------------------------------------------------
     1   7 N    2.999 --     2 C    1.938    72 H    0.945
     2   6 C    3.937 --     1 N    1.938     3 C    0.998    47 H    0.935
     3   6 C    3.980 --     2 C    0.998     4 C    0.973    14 C    0.968
                            31 C    0.932
     4   6 C    3.949 --    13 C    1.415     5 C    1.368     3 C    0.973
     5   6 C    3.962 --     6 C    1.402     4 C    1.368    34 H    0.958
     6   6 C    3.904 --     5 C    1.402     9 C    1.223     7 O    1.098
     7   8 O    2.252 --     6 C    1.098     8 C    0.979
     8   6 C    3.933 --     7 O    0.979    36 H    0.977    37 H    0.973
                            35 H    0.973
     9   6 C    3.900 --    12 C    1.392     6 C    1.223    10 O    1.099
    10   8 O    2.249 --     9 C    1.099    11 C    0.978
    11   6 C    3.932 --    10 O    0.978    39 H    0.977    38 H    0.974
                            40 H    0.974
    12   6 C    3.962 --    13 C    1.406     9 C    1.392    41 H    0.964
    13   6 C    3.953 --     4 C    1.415    12 C    1.406    42 H    0.962
    14   6 C    3.982 --    15 C    1.006    43 H    0.970     3 C    0.968
                            44 H    0.968
    15   6 C    3.979 --    14 C    1.006    16 C    0.984    46 H    0.974
                            45 H    0.971
    16   6 C    3.947 --    15 C    0.984    17 N    0.980    48 H    0.959
                            49 H    0.958
    17   7 N    3.514 --    18 C    1.462    30 C    0.996    16 C    0.980
    18   6 C    3.614 --    17 N    1.462    19 C    1.049    50 H    0.956
    19   6 C    3.986 --    18 C    1.049    52 H    0.966    20 C    0.964
                            51 H    0.934
    20   6 C    3.931 --    21 C    1.409    29 C    1.379    19 C    0.964
    21   6 C    3.953 --    22 C    1.417    20 C    1.409    53 H    0.968
    22   6 C    3.962 --    21 C    1.417    23 C    1.383    54 H    0.963
    23   6 C    3.900 --    22 C    1.383    26 C    1.223    24 O    1.110
    24   8 O    2.258 --    23 C    1.110    25 C    0.976
    25   6 C    3.928 --    57 H    0.977    24 O    0.976    56 H    0.973
                            55 H    0.973
    26   6 C    3.904 --    29 C    1.394    23 C    1.223    27 O    1.101
    27   8 O    2.256 --    26 C    1.101    28 C    0.979
    28   6 C    3.933 --    27 O    0.979    58 H    0.977    59 H    0.974
                            60 H    0.974
    29   6 C    3.960 --    26 C    1.394    20 C    1.379    61 H    0.962
    30   6 C    3.958 --    17 N    0.996    63 H    0.977    62 H    0.969
                            64 H    0.965
    31   6 C    3.982 --    32 C    1.009    33 C    1.009    65 H    0.960
                             3 C    0.932
    32   6 C    3.989 --    31 C    1.009    68 H    0.983    67 H    0.982
                            66 H    0.981
    33   6 C    3.989 --    31 C    1.009    70 H    0.983    69 H    0.982
                            71 H    0.982
    34   1 H    0.996 --     5 C    0.958
    35   1 H    0.993 --     8 C    0.973
    36   1 H    0.993 --     8 C    0.977
    37   1 H    0.994 --     8 C    0.973
    38   1 H    0.993 --    11 C    0.974
    39   1 H    0.993 --    11 C    0.977
    40   1 H    0.993 --    11 C    0.974
    41   1 H    0.996 --    12 C    0.964
    42   1 H    0.998 --    13 C    0.962
    43   1 H    0.996 --    14 C    0.970
    44   1 H    0.993 --    14 C    0.968
    45   1 H    0.997 --    15 C    0.971
    46   1 H    0.996 --    15 C    0.974
    47   1 H    0.986 --     2 C    0.935
    48   1 H    0.990 --    16 C    0.959
    49   1 H    0.989 --    16 C    0.958
    50   1 H    0.994 --    18 C    0.956
    51   1 H    0.974 --    19 C    0.934
    52   1 H    0.995 --    19 C    0.966
    53   1 H    0.997 --    21 C    0.968
    54   1 H    0.995 --    22 C    0.963
    55   1 H    0.992 --    25 C    0.973
    56   1 H    0.992 --    25 C    0.973
    57   1 H    0.993 --    25 C    0.977
    58   1 H    0.993 --    28 C    0.977
    59   1 H    0.994 --    28 C    0.974
    60   1 H    0.994 --    28 C    0.974
    61   1 H    0.997 --    29 C    0.962
    62   1 H    0.986 --    30 C    0.969
    63   1 H    0.993 --    30 C    0.977
    64   1 H    0.985 --    30 C    0.965
    65   1 H    0.996 --    31 C    0.960
    66   1 H    0.997 --    32 C    0.981
    67   1 H    0.998 --    32 C    0.982
    68   1 H    0.996 --    32 C    0.983
    69   1 H    0.997 --    33 C    0.982
    70   1 H    0.997 --    33 C    0.983
    71   1 H    0.995 --    33 C    0.982
    72   1 H    0.972 --     1 N    0.945
 ---------------------------------------------------------------------------

molecular dipole:
                 x           y           z       tot (Debye)
 q only:        0.989      -0.275      -1.088
   full:        0.750      -0.212      -0.738       2.729

           -------------------------------------------------
          | TOTAL ENERGY              -99.409645270901 Eh   |
          | GRADIENT NORM               0.002475936814 Eh/α |
          | HOMO-LUMO GAP               1.797042169703 eV   |
           -------------------------------------------------

 * finished run on 2024/04/06 at 11:14:02.849
