   * xtb version 6.6.1 (8d0f1dd) compiled by 'conda@1efc2f54142f' on 2023-08-01
          program call               : xtb struc.xyz --opt loose --input .xc1 --gfn2

   ID    Z sym.   atoms
    1    6 C      1, 3, 5-7, 10, 11, 14
    2    7 N      2, 4, 9, 13
    3    8 O      8, 12
    4    1 H      15-25
constraining bond 3 16 to    3.7133300 Å, actual value:    2.7548643 Å

          :  Hamiltonian                  GFN2-xTB          :
 * total energy  :   -43.8881491 Eh     change       -0.6650680E-10 Eh
 * total energy  :   -47.2467154 Eh     change       -0.3358566E+01 Eh
 * total energy  :   -52.4173045 Eh     change       -0.5170589E+01 Eh
 * total energy  :   -58.9498016 Eh     change       -0.6532497E+01 Eh
 * total energy  :   -38.3853034 Eh     change        0.2056450E+02 Eh
 * total energy  :   -56.6012418 Eh     change       -0.1821594E+02 Eh
 * total energy  :   -56.8136204 Eh     change       -0.2123786E+00 Eh
 * total energy  :   -58.5366406 Eh     change       -0.1723020E+01 Eh
 * total energy  :   -57.8400188 Eh     change        0.6966218E+00 Eh
 * total energy  :   -59.2945235 Eh     change       -0.1454505E+01 Eh
 * total energy  :   -59.7422422 Eh     change       -0.6838759E-01 Eh
 * total energy  :   -59.7422793 Eh     change       -0.3714638E-04 Eh
 * total energy  :   -59.7423371 Eh     change       -0.5774148E-04 Eh
 * total energy  :   -59.7423568 Eh     change       -0.1972231E-04 Eh
 * total energy  :   -59.7423956 Eh     change       -0.3882183E-04 Eh
 * total energy  :   -59.7424304 Eh     change       -0.3474770E-04 Eh
 * total energy  :   -59.7424722 Eh     change       -0.4184488E-04 Eh
 * total energy  :   -59.7425026 Eh     change       -0.3042862E-04 Eh
 * total energy  :   -59.7425195 Eh     change       -0.1687149E-04 Eh
   *** GEOMETRY OPTIMIZATION CONVERGED AFTER 53 ITERATIONS ***

 final structure:
================
25
 xtb: 6.6.1 (8d0f1dd)
C            3.24224050628902        1.21547374040251       -0.05798089927503
N            2.19296461138614        0.28805886403181       -0.05327374934587
C            3.51340666253436       -0.29320912322987       -0.15432500911227
N            1.18690540533138       -2.20251126395619       -0.10467613118739
C            0.35983963836766       -1.23837511398510       -0.05987148523715
C            0.91467604831867        0.10756672209631       -0.01491836829846
C            0.04866598967645        1.30222828670021        0.07398561765137
O            0.51554178142921        2.41736185294270        0.13895875306353
N           -1.29639117650736        1.03270222250232        0.07531428174557
C           -2.22593120694967        2.14631658210657        0.14971351688580
C           -1.87371065120273       -0.23200884684384        0.00578626449247
O           -3.06827581463210       -0.36341565662419        0.00140542936191
N           -1.01732658703160       -1.32593804443116       -0.05194666881861
C           -1.62942750516195       -2.64188524442217       -0.12060727507645
H            3.41959447721796        1.77185101960416        0.85498038783574
H            3.65231493397017       -0.48938128256282       -0.50404053024121
H            3.35207191857350        1.81528304745606       -0.95626445852268
H            3.78704364547299       -0.69271033717594        0.86198470367035
H           -1.65546250155449        3.06023702285028        0.30063937144044
H           -2.80302344990287        2.21235097676909       -0.77409704891157
H           -2.92345071173793        1.98829851993011        0.97286079288317
H           -1.32677911963041       -3.24669344699336        0.73584391196017
H           -1.34463355168032       -3.14430819629234       -1.04682639824064
H           -2.71053181490960       -2.51488399010419       -0.10261412936530
H            0.85010998643387       -3.15416976917098       -0.13885926145808

          :  Hamiltonian                  GFN2-xTB          :
         :: total energy             -59.742519521012 Eh    ::
         :: gradient norm              0.003445637548 Eh/a0 ::
         :: HOMO-LUMO gap              1.713474364772 eV    ::
         :: SCC energy               -42.696828138244 Eh    ::
         :: -> dispersion             -0.021791751500 Eh    ::
         :: repulsion energy           2.268899800078 Eh    ::

    * Orbital Energies and Occupations

         #    Occupation            Energy/Eh            Energy/eV
      -------------------------------------------------------------
         1        2.0000           -0.8963871             -24.3919
       ...           ...                  ...                  ...
        25        1.9994           -0.6590514             -17.9337
        26        1.9993           -0.6566440             -17.8682
        27        1.9989           -0.6483359             -17.6421
        28        1.9988           -0.6471741             -17.6105
        29        1.9980           -0.6397171             -17.4076
        30        1.9966           -0.6309695             -17.1696
        31        1.9961           -0.6285852             -17.1047
        32        1.9921           -0.6175726             -16.8050
        33        1.9707           -0.5965913             -16.2341
        34        1.9499           -0.5879469             -15.9988
        35        1.9396           -0.5848955             -15.9158
        36        1.8895           -0.5749133             -15.6442
        37        1.8634           -0.5713413             -15.5470 (HOMO)
        38        0.4073           -0.5083723             -13.8335 (LUMO)
        39        0.0006           -0.4008877             -10.9087
        40        0.0003           -0.3901138             -10.6155
        41        0.0000           -0.3038677              -8.2687
        42        0.0000           -0.3023116              -8.2263
        43                         -0.2182593              -5.9391
        44                         -0.1749799              -4.7614
        45                         -0.1398730              -3.8061
        46                         -0.0989196              -2.6917
        47                         -0.0685997              -1.8667
        48                         -0.0536260              -1.4592
       ...                                ...                  ...
        67                         10.7271035             291.8993
      -------------------------------------------------------------
                  HL-Gap            0.0629690 Eh            1.7135 eV

     #   Z          covCN         q      C6AA      α(0)
     1   6 C        3.737    -0.020    21.017     6.542
     2   7 N        2.747     0.080    19.851     6.617
     3   6 C        3.731    -0.065    21.853     6.673
     4   7 N        1.791    -0.286    28.241     7.871
     5   6 C        2.827     0.164    24.445     8.102
     6   6 C        2.899     0.040    27.097     8.535
     7   6 C        2.772     0.267    22.487     7.767
     8   8 O        0.858    -0.337    20.459     6.064
     9   7 N        2.740    -0.065    22.501     7.045
    10   6 C        3.707    -0.063    21.857     6.683
    11   6 C        2.716     0.323    21.514     7.593
    12   8 O        0.860    -0.335    20.429     6.060
    13   7 N        2.741    -0.069    22.585     7.058
    14   6 C        3.703    -0.064    21.892     6.690
    15   1 H        0.925     0.128     1.547     1.945
    16   1 H        0.936     0.194     1.129     1.661
    17   1 H        0.925     0.131     1.530     1.934
    18   1 H        0.918     0.122     1.596     1.976
    19   1 H        0.925     0.118     1.627     1.995
    20   1 H        0.924     0.112     1.680     2.027
    21   1 H        0.924     0.114     1.665     2.018
    22   1 H        0.924     0.093     1.850     2.127
    23   1 H        0.924     0.093     1.848     2.126
    24   1 H        0.925     0.123     1.585     1.969
    25   1 H        0.860     0.201     1.101     1.643

Wiberg/Mayer (AO) data.
largest (>0.10) Wiberg bond orders for each atom

     #   Z sym  total        # sym  WBO       # sym  WBO       # sym  WBO
 ---------------------------------------------------------------------------
     1   6 C    3.888 --     2 N    0.984     3 C    0.962    15 H    0.944
                            17 H    0.939
     2   7 N    3.519 --     6 C    1.503     1 C    0.984     3 C    0.942
     3   6 C    3.845 --     1 C    0.962     2 N    0.942    16 H    0.940
                            18 H    0.925
     4   7 N    2.844 --     5 C    1.677    25 H    0.921    13 N    0.122
     5   6 C    3.947 --     4 N    1.677    13 N    1.121     6 C    1.058
     6   6 C    3.781 --     2 N    1.503     5 C    1.058     7 C    1.000
     7   6 C    3.930 --     8 O    1.683     9 N    1.151     6 C    1.000
     8   8 O    1.973 --     7 C    1.683     9 N    0.148
     9   7 N    3.523 --     7 C    1.151    11 C    1.080    10 C    0.974
                             8 O    0.148    12 O    0.103
    10   6 C    3.881 --     9 N    0.974    19 H    0.964    21 H    0.951
                            20 H    0.947
    11   6 C    3.949 --    12 O    1.696    13 N    1.091     9 N    1.080
    12   8 O    2.012 --    11 C    1.696    13 N    0.113     9 N    0.103
    13   7 N    3.491 --     5 C    1.121    11 C    1.091    14 C    0.978
                             4 N    0.122    12 O    0.113
    14   6 C    3.904 --    13 N    0.978    24 H    0.961    22 H    0.959
                            23 H    0.959
    15   1 H    0.973 --     1 C    0.944
    16   1 H    0.960 --     3 C    0.940
    17   1 H    0.971 --     1 C    0.939
    18   1 H    0.969 --     3 C    0.925
    19   1 H    0.981 --    10 C    0.964
    20   1 H    0.966 --    10 C    0.947
    21   1 H    0.969 --    10 C    0.951
    22   1 H    0.978 --    14 C    0.959
    23   1 H    0.977 --    14 C    0.959
    24   1 H    0.981 --    14 C    0.961
    25   1 H    0.951 --     4 N    0.921
 ---------------------------------------------------------------------------

molecular dipole:
                 x           y           z       tot (Debye)
 q only:        2.068      -0.626      -0.038
   full:        1.778      -0.833       0.012       4.990

           -------------------------------------------------
          | TOTAL ENERGY              -59.742519521012 Eh   |
          | GRADIENT NORM               0.003445637548 Eh/α |
          | HOMO-LUMO GAP               1.713474364772 eV   |
           -------------------------------------------------

 * finished run on 2024/06/05 at 20:00:24.234
