   * xtb version 6.6.1 (8d0f1dd) compiled by 'conda@1efc2f54142f' on 2023-08-01
          program call               : xtb struc.xyz --opt loose --input .xc1 --gfn2

   ID    Z sym.   atoms
    1    7 N      1, 17
    2    6 C      2-6, 8, 9, 11-16, 18-23, 25, 26, 28-33
    3    8 O      7, 10, 24, 27
    4    1 H      34-72
constraining bond 4 31 to    5.0000000 Å, actual value:    2.5123986 Å

          :  Hamiltonian                  GFN2-xTB          :
 * total energy  :   -98.2992150 Eh     change       -0.4035485E-08 Eh
 * total energy  :   -98.6020326 Eh     change       -0.3028176E+00 Eh
 * total energy  :   -98.7782697 Eh     change       -0.1762371E+00 Eh
 * total energy  :   -98.8942775 Eh     change       -0.1160078E+00 Eh
 * total energy  :   -98.9758447 Eh     change       -0.8156717E-01 Eh
 * total energy  :   -99.0345344 Eh     change       -0.5868975E-01 Eh
 * total energy  :   -99.0751285 Eh     change       -0.4059403E-01 Eh
 * total energy  :   -99.1052236 Eh     change       -0.3009512E-01 Eh
 * total energy  :   -99.1350438 Eh     change       -0.2982017E-01 Eh
 * total energy  :   -99.1661054 Eh     change       -0.3106160E-01 Eh
 * total energy  :   -99.3533544 Eh     change       -0.1005856E-03 Eh
 * total energy  :   -99.3534607 Eh     change       -0.1062391E-03 Eh
 * total energy  :   -99.3535652 Eh     change       -0.1044736E-03 Eh
 * total energy  :   -99.3536656 Eh     change       -0.1004315E-03 Eh
 * total energy  :   -99.3537653 Eh     change       -0.9975456E-04 Eh
 * total energy  :   -99.3538436 Eh     change       -0.7827565E-04 Eh
 * total energy  :   -99.3539033 Eh     change       -0.5966883E-04 Eh
 * total energy  :   -99.3539537 Eh     change       -0.5044655E-04 Eh
 * total energy  :   -99.3539737 Eh     change       -0.1992947E-04 Eh
   *** GEOMETRY OPTIMIZATION CONVERGED AFTER 68 ITERATIONS ***

 final structure:
================
72
 xtb: 6.6.1 (8d0f1dd)
N           -0.73624150279246        1.90478159851159        2.00099026990917
C           -1.32928755256808        1.36193296013896        1.10104830089785
C           -2.18182022797634        0.97916850954710        0.17083994828006
C           -2.99502046472604       -0.21380657889922        0.33588591840365
C           -4.02314702231515       -0.53068234897498       -0.56239502140395
C           -4.79443126396906       -1.66661600933005       -0.39776266545464
O           -5.80330754635700       -2.04644078151110       -1.21161102252873
C           -6.13933700887835       -1.23886729109118       -2.31323034791925
C           -4.54916322114260       -2.53409239172236        0.70225237591005
O           -5.34951353682355       -3.61413534898837        0.77654377058529
C           -5.20491004063032       -4.50386547552259        1.85912528454115
C           -3.53437313759826       -2.21036668397081        1.59509446090259
C           -2.77224226937982       -1.07218661219238        1.41633708331928
C           -2.21195442399507        1.80323451208910       -1.09613814739851
C           -1.58764160938347        1.07149253618999       -2.28914038917411
C           -0.07160458789685        0.90440852116962       -2.16123176047679
N            0.32728857910366        0.08512285825242       -1.03540772374110
C            1.67018721797454        0.32127764046280       -0.56347224218309
C            2.79133662724576       -0.08211271161576       -1.55171429895026
C            4.14160122675569        0.11823412350490       -0.93525646592410
C            4.80612862959962        1.33054010148339       -1.05366064801858
C            6.05268308691599        1.51848580333423       -0.47843373479399
C            6.66324700400852        0.49623083544528        0.23518058240692
O            7.87132350565459        0.56428071942502        0.82734789832130
C            8.62586235421439        1.74820321681336        0.71699176559443
C            5.98838788220852       -0.74866944922097        0.36950949179698
O            6.65242902094157       -1.68821767403451        1.07320363161041
C            6.09229011530873       -2.97194751993033        1.20948753555069
C            4.74156100368873       -0.91162453983790       -0.21369810184924
C           -0.02546252406730       -1.30985495247368       -1.15851953246103
C           -4.83399874743733        4.33039417593723        1.29623795518352
C           -4.87397984185056        2.96621717032980        1.83228395299733
C           -3.59715928819525        5.10132797494351        1.14299798770837
H           -4.22839763207380        0.12861060119305       -1.38854515329626
H           -6.46080885299078       -0.24096983070304       -1.99708686784321
H           -6.96917843516636       -1.74351613520687       -2.80409041973337
H           -5.30573923142215       -1.14856819816120       -3.01731677587651
H           -5.38122125022738       -4.00229232441017        2.81544482127924
H           -5.96164944869004       -5.27150792485242        1.70917721843668
H           -4.21430930966332       -4.96882270003660        1.86740241892149
H           -3.33070548390270       -2.84820672638575        2.43965935549231
H           -1.98753475577042       -0.84319897480655        2.12106913449283
H           -3.24681166920504        2.06284599608107       -1.32908389118515
H           -1.67003905758709        2.73555925871576       -0.92717661617903
H           -2.05875522322094        0.09807883956816       -2.41887033780616
H           -1.77703500346261        1.65624262794700       -3.19167376172903
H            0.37724252087013        1.89234531657355       -2.02828342875618
H            0.30385926558364        0.48558307209502       -3.10975377826149
H            1.80296833568120       -0.24180303955363        0.36481534390285
H            1.77150594959326        1.38602061905867       -0.33327759130345
H            2.70287929371625        0.52500896147111       -2.45352543086377
H            2.66035113507839       -1.13085373987981       -1.82132003400693
H            4.35694672928585        2.13749702155865       -1.61240479024708
H            6.54884507826336        2.46770393541260       -0.59837363764862
H            8.10954213488224        2.59763845597003        1.17494465949808
H            8.85623180245537        1.98079353520537       -0.32717226832897
H            9.55151530887744        1.55600227198405        1.25626597198129
H            6.82187338194640       -3.55071190008939        1.77295353699559
H            5.14873532743714       -2.94241099736442        1.76412919811926
H            5.92952183454859       -3.44454153835404        0.23587117000799
H            4.22554850880963       -1.85501525095890       -0.12559869502869
H            0.36511440591498       -1.76711671606823       -2.07710866031841
H           -1.10880094853168       -1.41651746166933       -1.15778674838673
H            0.36431234708975       -1.85515816429095       -0.30143992570867
H           -5.76677458298910        4.80529328911613        1.03473096297373
H           -3.87666186695036        2.55233459197771        1.96251271065744
H           -5.46072508919006        2.30669835470320        1.18756076448317
H           -5.38506341027781        2.95510085070736        2.80102341744762
H           -2.71963847623083        4.50603828665765        1.38308917160582
H           -3.50795412515162        5.49495152895333        0.12665423905757
H           -3.61550449857381        5.98219489308023        1.79328389290593
H            0.23310015303094        1.76096194936418        2.24087955532203

          :  Hamiltonian                  GFN2-xTB          :
         :: total energy             -99.353973662503 Eh    ::
         :: gradient norm              0.001590065781 Eh/a0 ::
         :: HOMO-LUMO gap              0.940784692380 eV    ::
         :: SCC energy              -100.774361478212 Eh    ::
         :: -> dispersion             -0.070562248743 Eh    ::
         :: repulsion energy           1.419176883915 Eh    ::

    * Orbital Energies and Occupations

         #    Occupation            Energy/Eh            Energy/eV
      -------------------------------------------------------------
         1        2.0000           -0.8059136             -21.9300
       ...           ...                  ...                  ...
        78        1.9991           -0.5347964             -14.5526
        79        1.9987           -0.5298228             -14.4172
        80        1.9984           -0.5264446             -14.3253
        81        1.9984           -0.5263953             -14.3239
        82        1.9977           -0.5202375             -14.1564
        83        1.9970           -0.5162251             -14.0472
        84        1.9961           -0.5118617             -13.9285
        85        1.9886           -0.4948916             -13.4667
        86        1.9739           -0.4816750             -13.1070
        87        1.9579           -0.4739657             -12.8973
        88        1.8915           -0.4584164             -12.4741
        89        1.7867           -0.4468142             -12.1584
        90        1.6688           -0.4387706             -11.9396 (HOMO)
        91        0.7242           -0.4041974             -10.9988 (LUMO)
        92        0.0138           -0.3345108              -9.1025
        93        0.0096           -0.3286532              -8.9431
        94        0.0028           -0.3093399              -8.4176
        95        0.0021           -0.3043092              -8.2807
        96        0.0018           -0.3018277              -8.2132
        97        0.0001           -0.2558756              -6.9627
        98        0.0000           -0.1792566              -4.8778
        99        0.0000           -0.1723067              -4.6887
       100                         -0.0826966              -2.2503
       101                         -0.0603091              -1.6411
       ...                                ...                  ...
       171                          0.9713934              26.4330
      -------------------------------------------------------------
                  HL-Gap            0.0345732 Eh            0.9408 eV

     #   Z          covCN         q      C6AA      α(0)
     1   7 N        1.772    -0.216    26.511     7.624
     2   6 C        1.919     0.111    28.356     8.600
     3   6 C        2.950    -0.019    28.478     8.753
     4   6 C        2.977     0.012    27.734     8.638
     5   6 C        2.919    -0.083    30.075     8.993
     6   6 C        2.862     0.130    25.151     8.220
     7   8 O        1.706    -0.232    17.838     5.702
     8   6 C        3.645     0.029    20.419     6.495
     9   6 C        2.864     0.132    25.116     8.215
    10   8 O        1.706    -0.223    17.699     5.680
    11   6 C        3.645     0.026    20.473     6.503
    12   6 C        2.912    -0.067    29.669     8.932
    13   6 C        2.923    -0.049    29.212     8.863
    14   6 C        3.816    -0.052    21.492     6.598
    15   6 C        3.802    -0.064    21.727     6.636
    16   6 C        3.752     0.001    20.616     6.475
    17   7 N        2.725    -0.128    23.784     7.243
    18   6 C        3.754     0.002    20.608     6.473
    19   6 C        3.806    -0.071    21.852     6.655
    20   6 C        2.968     0.005    27.900     8.664
    21   6 C        2.922    -0.047    29.159     8.855
    22   6 C        2.913    -0.067    29.667     8.932
    23   6 C        2.864     0.133    25.098     8.212
    24   8 O        1.706    -0.222    17.690     5.679
    25   6 C        3.645     0.026    20.475     6.503
    26   6 C        2.862     0.133    25.093     8.211
    27   8 O        1.706    -0.225    17.737     5.686
    28   6 C        3.645     0.028    20.442     6.499
    29   6 C        2.920    -0.078    29.944     8.974
    30   6 C        3.703    -0.043    21.505     6.630
    31   6 C        2.883    -0.015    28.395     8.736
    32   6 C        3.752    -0.113    22.712     6.796
    33   6 C        3.752    -0.113    22.725     6.798
    34   1 H        0.926     0.052     2.289     2.366
    35   1 H        0.924     0.048     2.347     2.396
    36   1 H        0.925     0.080     1.976     2.198
    37   1 H        0.924     0.048     2.341     2.393
    38   1 H        0.924     0.054     2.265     2.354
    39   1 H        0.925     0.081     1.964     2.192
    40   1 H        0.924     0.053     2.278     2.360
    41   1 H        0.926     0.055     2.255     2.348
    42   1 H        0.926     0.040     2.452     2.449
    43   1 H        0.924     0.055     2.255     2.348
    44   1 H        0.924     0.045     2.378     2.412
    45   1 H        0.925     0.052     2.299     2.371
    46   1 H        0.924     0.050     2.314     2.379
    47   1 H        0.924     0.046     2.373     2.409
    48   1 H        0.923     0.034     2.524     2.485
    49   1 H        0.924     0.043     2.409     2.427
    50   1 H        0.924     0.041     2.435     2.440
    51   1 H        0.924     0.048     2.344     2.394
    52   1 H        0.924     0.049     2.326     2.385
    53   1 H        0.926     0.047     2.358     2.401
    54   1 H        0.926     0.057     2.235     2.338
    55   1 H        0.924     0.054     2.274     2.358
    56   1 H        0.924     0.056     2.250     2.346
    57   1 H        0.925     0.081     1.966     2.193
    58   1 H        0.925     0.080     1.974     2.197
    59   1 H        0.924     0.049     2.331     2.388
    60   1 H        0.924     0.053     2.283     2.363
    61   1 H        0.926     0.049     2.331     2.388
    62   1 H        0.923     0.038     2.477     2.461
    63   1 H        0.925     0.054     2.275     2.359
    64   1 H        0.925     0.049     2.333     2.388
    65   1 H        0.926     0.060     2.202     2.321
    66   1 H        0.925     0.064     2.154     2.295
    67   1 H        0.924     0.072     2.059     2.244
    68   1 H        0.924     0.089     1.890     2.150
    69   1 H        0.925     0.064     2.158     2.297
    70   1 H        0.924     0.079     1.993     2.208
    71   1 H        0.924     0.089     1.885     2.147
    72   1 H        0.860     0.198     1.117     1.655

Wiberg/Mayer (AO) data.
largest (>0.10) Wiberg bond orders for each atom

     #   Z sym  total        # sym  WBO       # sym  WBO       # sym  WBO
 ---------------------------------------------------------------------------
     1   7 N    3.244 --     2 C    2.103    72 H    0.904     3 C    0.128
     2   6 C    3.849 --     1 N    2.103     3 C    1.601
     3   6 C    3.881 --     2 C    1.601     4 C    1.094    14 C    0.967
                             1 N    0.128
     4   6 C    3.943 --    13 C    1.340     5 C    1.328     3 C    1.094
     5   6 C    3.948 --     6 C    1.414     4 C    1.328    34 H    0.957
     6   6 C    3.900 --     5 C    1.414     9 C    1.216     7 O    1.095
     7   8 O    2.250 --     6 C    1.095     8 C    0.980
     8   6 C    3.934 --     7 O    0.980    36 H    0.977    35 H    0.974
                            37 H    0.974
     9   6 C    3.867 --    12 C    1.365     6 C    1.216    10 O    1.109
    10   8 O    2.248 --     9 C    1.109    11 C    0.977
    11   6 C    3.930 --    39 H    0.977    10 O    0.977    38 H    0.973
                            40 H    0.973
    12   6 C    3.963 --    13 C    1.449     9 C    1.365    41 H    0.963
    13   6 C    3.925 --    12 C    1.449     4 C    1.340    42 H    0.966
    14   6 C    3.988 --    15 C    0.993    44 H    0.974     3 C    0.967
                            43 H    0.959
    15   6 C    3.981 --    16 C    1.000    14 C    0.993    46 H    0.971
                            45 H    0.970
    16   6 C    3.975 --    17 N    1.004    15 C    1.000    47 H    0.970
                            48 H    0.955
    17   7 N    3.118 --    30 C    1.016    18 C    1.014    16 C    1.004
    18   6 C    3.969 --    17 N    1.014    50 H    0.970    49 H    0.970
                            19 C    0.956
    19   6 C    3.971 --    20 C    1.018    51 H    0.971    52 H    0.969
                            18 C    0.956
    20   6 C    3.936 --    21 C    1.396    29 C    1.379    19 C    1.018
    21   6 C    3.936 --    22 C    1.422    20 C    1.396    53 H    0.968
    22   6 C    3.955 --    21 C    1.422    23 C    1.379    54 H    0.963
    23   6 C    3.881 --    22 C    1.379    26 C    1.217    24 O    1.107
    24   8 O    2.246 --    23 C    1.107    25 C    0.977
    25   6 C    3.929 --    24 O    0.977    57 H    0.977    55 H    0.972
                            56 H    0.972
    26   6 C    3.889 --    29 C    1.394    23 C    1.217    27 O    1.102
    27   8 O    2.247 --    26 C    1.102    28 C    0.979
    28   6 C    3.932 --    27 O    0.979    58 H    0.977    59 H    0.973
                            60 H    0.973
    29   6 C    3.955 --    26 C    1.394    20 C    1.379    61 H    0.962
    30   6 C    3.973 --    17 N    1.016    64 H    0.981    63 H    0.971
                            62 H    0.965
    31   6 C    3.249 --    33 C    1.116    32 C    1.115    65 H    0.971
    32   6 C    3.978 --    31 C    1.115    66 H    0.978    67 H    0.941
                            68 H    0.921
    33   6 C    3.977 --    31 C    1.116    69 H    0.980    70 H    0.936
                            71 H    0.923
    34   1 H    0.996 --     5 C    0.957
    35   1 H    0.994 --     8 C    0.974
    36   1 H    0.993 --     8 C    0.977
    37   1 H    0.994 --     8 C    0.974
    38   1 H    0.992 --    11 C    0.973
    39   1 H    0.993 --    11 C    0.977
    40   1 H    0.992 --    11 C    0.973
    41   1 H    0.995 --    12 C    0.963
    42   1 H    0.998 --    13 C    0.966
    43   1 H    0.992 --    14 C    0.959
    44   1 H    0.997 --    14 C    0.974
    45   1 H    0.997 --    15 C    0.970
    46   1 H    0.995 --    15 C    0.971
    47   1 H    0.997 --    16 C    0.970
    48   1 H    0.981 --    16 C    0.955
    49   1 H    0.995 --    18 C    0.970
    50   1 H    0.996 --    18 C    0.970
    51   1 H    0.995 --    19 C    0.971
    52   1 H    0.995 --    19 C    0.969
    53   1 H    0.997 --    21 C    0.968
    54   1 H    0.995 --    22 C    0.963
    55   1 H    0.991 --    25 C    0.972
    56   1 H    0.991 --    25 C    0.972
    57   1 H    0.993 --    25 C    0.977
    58   1 H    0.993 --    28 C    0.977
    59   1 H    0.992 --    28 C    0.973
    60   1 H    0.992 --    28 C    0.973
    61   1 H    0.996 --    29 C    0.962
    62   1 H    0.982 --    30 C    0.965
    63   1 H    0.992 --    30 C    0.971
    64   1 H    0.997 --    30 C    0.981
    65   1 H    0.996 --    31 C    0.971
    66   1 H    0.995 --    32 C    0.978
    67   1 H    0.962 --    32 C    0.941
    68   1 H    0.945 --    32 C    0.921
    69   1 H    0.995 --    33 C    0.980
    70   1 H    0.958 --    33 C    0.936
    71   1 H    0.947 --    33 C    0.923
    72   1 H    0.948 --     1 N    0.904
 ---------------------------------------------------------------------------

molecular dipole:
                 x           y           z       tot (Debye)
 q only:       -1.249       1.602       0.439
   full:       -0.972       1.496       0.134       4.548

           -------------------------------------------------
          | TOTAL ENERGY              -99.353973662503 Eh   |
          | GRADIENT NORM               0.001590065781 Eh/α |
          | HOMO-LUMO GAP               0.940784692380 eV   |
           -------------------------------------------------

 * finished run on 2024/04/06 at 11:12:20.182
