   * xtb version 6.6.1 (8d0f1dd) compiled by 'conda@1efc2f54142f' on 2023-08-01
          program call               : xtb struc.xyz --opt loose --input .xc1 --gfn2

   ID    Z sym.   atoms
    1    6 C      1, 3, 5-7, 10, 11, 14
    2    7 N      2, 4, 9, 13
    3    8 O      8, 12
    4    1 H      15-25
constraining bond 11 13 to    3.9200000 Å, actual value:    1.4172879 Å

          :  Hamiltonian                  GFN2-xTB          :
 * total energy  :   -31.0640570 Eh     change       -0.6650680E-10 Eh
 * total energy  :   -35.1407929 Eh     change       -0.4076736E+01 Eh
 * total energy  :   -38.6065978 Eh     change       -0.3465805E+01 Eh
 * total energy  :   -40.7556357 Eh     change       -0.2149038E+01 Eh
 * total energy  :   -41.6448765 Eh     change       -0.8892408E+00 Eh
 * total energy  :   -41.7870234 Eh     change       -0.1421468E+00 Eh
 * total energy  :   -41.8080870 Eh     change       -0.2106364E-01 Eh
 * total energy  :   -41.8480296 Eh     change       -0.3994255E-01 Eh
 * total energy  :   -41.8736892 Eh     change       -0.2565959E-01 Eh
 * total energy  :   -41.9127221 Eh     change       -0.3903290E-01 Eh
 * total energy  :   -42.1428229 Eh     change       -0.8460345E-04 Eh
 * total energy  :   -42.1429572 Eh     change       -0.1342616E-03 Eh
 * total energy  :   -42.1430176 Eh     change       -0.6040595E-04 Eh
 * total energy  :   -42.1430706 Eh     change       -0.5298231E-04 Eh
 * total energy  :   -42.1431418 Eh     change       -0.7126387E-04 Eh
 * total energy  :   -42.1432001 Eh     change       -0.5824406E-04 Eh
 * total energy  :   -42.1432583 Eh     change       -0.5825479E-04 Eh
 * total energy  :   -42.1433216 Eh     change       -0.6321802E-04 Eh
 * total energy  :   -42.1433675 Eh     change       -0.4590041E-04 Eh
   *** GEOMETRY OPTIMIZATION CONVERGED AFTER 77 ITERATIONS ***

 final structure:
================
25
 xtb: 6.6.1 (8d0f1dd)
C            2.92866101005638        1.22760149030240       -0.27509151679017
N            2.21336790332441       -0.01354381179420       -0.15664281562226
C            2.76866933820387       -1.20553848308465       -0.18862204149506
N            1.84032475220239       -2.15204632436186       -0.07275673114753
C            0.57169008584894       -1.58331642565137        0.07730643739092
C            0.81732417728459       -0.15304471092916       -0.04906123851770
C            0.05069610116247        1.01452525709921        0.04132449312571
O            0.37361087363372        2.14174783360329        0.30723278105630
N           -1.47400028848265        0.89056130041022       -0.36508640558096
C           -2.40053904594582        1.53069497668370        0.57004128321165
C           -1.69178687451451        0.75725322691488       -1.58585846882976
O           -1.74018300824286        0.52195995016198       -2.70942072174179
N           -0.38239073319666       -2.37544777956291        0.36766785182646
C           -1.72845093198718       -2.04141506096791        0.66120627913328
H            2.76737596163108        1.84436541272045        0.60974230890614
H            3.99033211252129        1.01949017653154       -0.38552497660112
H            2.57893779107012        1.78887462008459       -1.14239799282604
H            3.82139732735810       -1.38748787833720       -0.29884074592764
H           -1.92618048129130        2.43515222808822        0.95605496356566
H           -3.33148714856940        1.78706158146974        0.07082262059523
H           -2.59998832705530        0.84579372911224        1.39326049588451
H           -2.18827387665273       -2.92590938970606        1.10433884595474
H           -2.28612073561433       -1.78553215248983       -0.24490590839802
H           -1.79621806835396       -1.21373663921437        1.37467503237288
H            1.98366359971055       -3.14982458548316       -0.02829221164176

          :  Hamiltonian                  GFN2-xTB          :
         :: total energy             -42.143367454576 Eh    ::
         :: gradient norm              0.002151872478 Eh/a0 ::
         :: HOMO-LUMO gap              1.812982539502 eV    ::
         :: SCC energy               -42.705881069228 Eh    ::
         :: -> dispersion             -0.022400111827 Eh    ::
         :: repulsion energy           0.562236709327 Eh    ::

    * Orbital Energies and Occupations

         #    Occupation            Energy/Eh            Energy/eV
      -------------------------------------------------------------
         1        2.0000           -0.9380996             -25.5270
       ...           ...                  ...                  ...
        25        2.0000           -0.6738196             -18.3356
        26        2.0000           -0.6709171             -18.2566
        27        2.0000           -0.6541709             -17.8009
        28        1.9999           -0.6444548             -17.5365
        29        1.9999           -0.6378055             -17.3556
        30        1.9999           -0.6333054             -17.2331
        31        1.9996           -0.6141257             -16.7112
        32        1.9993           -0.6046371             -16.4530
        33        1.9992           -0.6008331             -16.3495
        34        1.9985           -0.5920801             -16.1113
        35        1.9982           -0.5888860             -16.0244
        36        1.8708           -0.5202225             -14.1560
        37        1.8143           -0.5139848             -13.9862 (HOMO)
        38        0.2538           -0.4473589             -12.1733 (LUMO)
        39        0.0582           -0.4223538             -11.4928
        40        0.0053           -0.3840381             -10.4502
        41        0.0030           -0.3750110             -10.2046
        42        0.0000           -0.3095482              -8.4232
        43        0.0000           -0.2495358              -6.7902
        44                         -0.1706904              -4.6447
        45                         -0.1287389              -3.5032
        46                         -0.0990204              -2.6945
        47                         -0.0696991              -1.8966
        48                         -0.0445972              -1.2136
       ...                                ...                  ...
        67                          0.9810129              26.6947
      -------------------------------------------------------------
                  HL-Gap            0.0666259 Eh            1.8130 eV

     #   Z          covCN         q      C6AA      α(0)
     1   6 C        3.694    -0.083    22.278     6.753
     2   7 N        2.821     0.062    20.167     6.670
     3   6 C        2.969     0.076    26.299     8.412
     4   7 N        2.800    -0.072    22.633     7.066
     5   6 C        2.937     0.141    24.936     8.190
     6   6 C        3.037    -0.051    29.219     8.866
     7   6 C        2.749     0.253    22.755     7.811
     8   8 O        0.857    -0.332    20.373     6.052
     9   7 N        2.707    -0.048    22.174     6.994
    10   6 C        3.699    -0.061    21.839     6.684
    11   6 C        1.800     0.318    24.060     7.927
    12   8 O        0.856    -0.126    16.901     5.512
    13   7 N        1.835    -0.221    26.673     7.653
    14   6 C        3.694    -0.034    21.359     6.612
    15   1 H        0.924     0.119     1.624     1.993
    16   1 H        0.925     0.095     1.827     2.114
    17   1 H        0.924     0.103     1.756     2.072
    18   1 H        0.926     0.116     1.649     2.008
    19   1 H        0.924     0.121     1.602     1.979
    20   1 H        0.925     0.096     1.822     2.111
    21   1 H        0.925     0.100     1.782     2.087
    22   1 H        0.924     0.093     1.850     2.127
    23   1 H        0.924     0.056     2.245     2.343
    24   1 H        0.924     0.047     2.353     2.399
    25   1 H        0.860     0.232     0.956     1.532

Wiberg/Mayer (AO) data.
largest (>0.10) Wiberg bond orders for each atom

     #   Z sym  total        # sym  WBO       # sym  WBO       # sym  WBO
 ---------------------------------------------------------------------------
     1   6 C    3.930 --     2 N    0.992    16 H    0.974    17 H    0.961
                            15 H    0.956
     2   7 N    3.664 --     3 C    1.415     6 C    1.080     1 C    0.992
                             4 N    0.111
     3   6 C    3.891 --     2 N    1.415     4 N    1.331    18 H    0.950
     4   7 N    3.563 --     3 C    1.331     5 C    1.080    25 H    0.918
                             2 N    0.111
     5   6 C    3.941 --    13 N    1.610     6 C    1.119     4 N    1.080
     6   6 C    3.802 --     7 C    1.266     5 C    1.119     2 N    1.080
                             8 O    0.109
     7   6 C    3.846 --     8 O    1.732     6 C    1.266     9 N    0.695
     8   8 O    2.104 --     7 C    1.732     6 C    0.109
     9   7 N    3.545 --    11 C    1.579    10 C    0.929     7 C    0.695
                            12 O    0.235
    10   6 C    3.890 --    20 H    0.977    21 H    0.965    19 H    0.960
                             9 N    0.929
    11   6 C    3.746 --    12 O    2.056     9 N    1.579
    12   8 O    2.384 --    11 C    2.056     9 N    0.235
    13   7 N    2.918 --     5 C    1.610    14 C    1.047
    14   6 C    3.951 --    13 N    1.047    22 H    0.964    24 H    0.952
                            23 H    0.950
    15   1 H    0.983 --     1 C    0.956
    16   1 H    0.989 --     1 C    0.974
    17   1 H    0.986 --     1 C    0.961
    18   1 H    0.985 --     3 C    0.950
    19   1 H    0.985 --    10 C    0.960
    20   1 H    0.990 --    10 C    0.977
    21   1 H    0.989 --    10 C    0.965
    22   1 H    0.977 --    14 C    0.964
    23   1 H    0.978 --    14 C    0.950
    24   1 H    0.979 --    14 C    0.952
    25   1 H    0.945 --     4 N    0.918
 ---------------------------------------------------------------------------

molecular dipole:
                 x           y           z       tot (Debye)
 q only:        1.104      -0.650      -0.124
   full:        1.134      -0.594      -0.241       3.311

           -------------------------------------------------
          | TOTAL ENERGY              -42.143367454576 Eh   |
          | GRADIENT NORM               0.002151872478 Eh/α |
          | HOMO-LUMO GAP               1.812982539502 eV   |
           -------------------------------------------------

 * finished run on 2024/06/05 at 19:58:00.849
