   * xtb version 6.6.1 (8d0f1dd) compiled by 'conda@1efc2f54142f' on 2023-08-01
          program call               : xtb struc.xyz --opt loose --input .xc1 --gfn2

   ID    Z sym.   atoms
    1    6 C      1, 3, 5-7, 10, 11, 14
    2    7 N      2, 4, 9, 13
    3    8 O      8, 12
    4    1 H      15-25
constraining bond 6 17 to    5.1400000 Å, actual value:    2.5833586 Å

          :  Hamiltonian                  GFN2-xTB          :
 * total energy  :   -30.5768799 Eh     change       -0.6650680E-10 Eh
 * total energy  :   -34.9421847 Eh     change       -0.4365305E+01 Eh
 * total energy  :   -38.2343351 Eh     change       -0.3292150E+01 Eh
 * total energy  :   -40.3236386 Eh     change       -0.2089303E+01 Eh
 * total energy  :   -41.3834619 Eh     change       -0.1059823E+01 Eh
 * total energy  :   -41.6925255 Eh     change       -0.3090637E+00 Eh
 * total energy  :   -41.7506532 Eh     change       -0.5812766E-01 Eh
 * total energy  :   -41.7834798 Eh     change       -0.3282662E-01 Eh
 * total energy  :   -41.8438349 Eh     change       -0.6035511E-01 Eh
 * total energy  :   -41.8842295 Eh     change       -0.4039456E-01 Eh
 * total energy  :   -42.1074361 Eh     change       -0.9225339E-03 Eh
 * total energy  :   -42.1077934 Eh     change       -0.3572903E-03 Eh
 * total energy  :   -42.1080812 Eh     change       -0.2878871E-03 Eh
 * total energy  :   -42.1082491 Eh     change       -0.1678413E-03 Eh
 * total energy  :   -42.1084135 Eh     change       -0.1644252E-03 Eh
 * total energy  :   -42.1085095 Eh     change       -0.9601483E-04 Eh
 * total energy  :   -42.1085738 Eh     change       -0.6430385E-04 Eh
 * total energy  :   -42.1086027 Eh     change       -0.2889984E-04 Eh
 * total energy  :   -42.1086296 Eh     change       -0.2682752E-04 Eh
   *** GEOMETRY OPTIMIZATION CONVERGED AFTER 41 ITERATIONS ***

 final structure:
================
25
 xtb: 6.6.1 (8d0f1dd)
C            3.17745528319489        0.84742014067465        0.05961858730846
N            2.26993202874316       -0.12094151984049        0.03544306618037
C            2.48465635627908       -1.45595808017363        0.01752562668577
N            1.29322276176946       -2.11570439930834       -0.00346555758172
C            0.29674105874763       -1.19122927446849       -0.00075058715167
C            0.88847155944970        0.06021415549036        0.02540271961016
C            0.10919290853932        1.27632359673464        0.03975336845628
O            0.55107989500578        2.40075095675444        0.05550153461888
N           -1.25950357264596        0.99718056147126        0.03484830674043
C           -2.17330767443977        2.12938813725660        0.07277891063512
C           -1.87454668799810       -0.24106281834174        0.00605824804419
O           -3.06690108205825       -0.36699577561435        0.00076401506861
N           -1.03327035308992       -1.37559217640615       -0.01640922299838
C           -1.63168790116176       -2.69573808107757       -0.04464645379839
H            2.83685722521735        1.86778091088442        0.07135465590890
H            4.21967839104747        0.59185670193021        0.05386858056008
H            4.03691948471069        4.09422657233706       -0.46615435488341
H            3.44421073362339       -1.92829736774549        0.02629223892598
H           -1.58095588303341        3.04061785310287        0.10729046231537
H           -2.80878722300994        2.12432309669068       -0.81302335703236
H           -2.81288169694247        2.05820533645992        0.95180809210625
H           -1.32671572601560       -3.27169059731589        0.82962384946653
H           -1.35337112088411       -3.22231699608169       -0.95836894759003
H           -2.71330942126543       -2.56549922101096       -0.02579052316096
H            1.18725217031680       -3.11902317080223       -0.02815164053452

          :  Hamiltonian                  GFN2-xTB          :
         :: total energy             -42.108629557891 Eh    ::
         :: gradient norm              0.003031719309 Eh/a0 ::
         :: HOMO-LUMO gap              0.273641332770 eV    ::
         :: SCC energy               -42.632144797647 Eh    ::
         :: -> dispersion             -0.022730780809 Eh    ::
         :: repulsion energy           0.523424587803 Eh    ::

    * Orbital Energies and Occupations

         #    Occupation            Energy/Eh            Energy/eV
      -------------------------------------------------------------
         1        2.0000           -0.9085586             -24.7231
       ...           ...                  ...                  ...
        25        1.9999           -0.6665072             -18.1366
        26        1.9999           -0.6659820             -18.1223
        27        1.9999           -0.6571006             -17.8806
        28        1.9996           -0.6354859             -17.2925
        29        1.9994           -0.6309591             -17.1693
        30        1.9992           -0.6256155             -17.0239
        31        1.9987           -0.6173878             -16.8000
        32        1.9958           -0.5991740             -16.3044
        33        1.9855           -0.5795520             -15.7704
        34        1.9589           -0.5628111             -15.3149
        35        1.9536           -0.5608438             -15.2613
        36        1.9470           -0.5586819             -15.2025
        37        1.2332           -0.5091558             -13.8548 (HOMO)
        38        0.9202           -0.4990997             -13.5812 (LUMO)
        39        0.0058           -0.4091220             -11.1328
        40        0.0032           -0.3995244             -10.8716
        41        0.0004           -0.3664578              -9.9718
        42        0.0000           -0.2847494              -7.7484
        43                         -0.2052184              -5.5843
        44                         -0.1838529              -5.0029
        45                         -0.1427538              -3.8845
        46                         -0.1135789              -3.0906
        47                         -0.0798040              -2.1716
        48                         -0.0474990              -1.2925
       ...                                ...                  ...
        67                          0.5555009              15.1159
      -------------------------------------------------------------
                  HL-Gap            0.0100561 Eh            0.2736 eV

     #   Z          covCN         q      C6AA      α(0)
     1   6 C        2.790    -0.071    29.755     8.935
     2   7 N        2.810     0.130    19.027     6.479
     3   6 C        3.039     0.025    27.418     8.588
     4   7 N        2.780    -0.059    22.387     7.027
     5   6 C        3.024     0.119    25.354     8.259
     6   6 C        3.109    -0.039    28.814     8.794
     7   6 C        2.764     0.275    22.354     7.743
     8   8 O        0.858    -0.362    20.943     6.136
     9   7 N        2.746    -0.082    22.833     7.097
    10   6 C        3.710    -0.062    21.830     6.677
    11   6 C        2.728     0.318    21.594     7.608
    12   8 O        0.860    -0.351    20.730     6.104
    13   7 N        2.738    -0.054    22.286     7.011
    14   6 C        3.696    -0.072    22.065     6.719
    15   1 H        0.926     0.135     1.499     1.915
    16   1 H        0.926     0.107     1.721     2.052
    17   1 H        0.000     0.078     4.975     4.078
    18   1 H        0.927     0.121     1.608     1.983
    19   1 H        0.925     0.115     1.654     2.011
    20   1 H        0.925     0.102     1.763     2.077
    21   1 H        0.925     0.102     1.766     2.078
    22   1 H        0.924     0.085     1.933     2.174
    23   1 H        0.924     0.086     1.923     2.169
    24   1 H        0.925     0.129     1.546     1.944
    25   1 H        0.860     0.227     0.977     1.548

Wiberg/Mayer (AO) data.
largest (>0.10) Wiberg bond orders for each atom

     #   Z sym  total        # sym  WBO       # sym  WBO       # sym  WBO
 ---------------------------------------------------------------------------
     1   6 C    3.400 --     2 N    1.333    16 H    0.967    15 H    0.954
     2   7 N    3.766 --     1 C    1.333     3 C    1.247     6 C    1.088
     3   6 C    3.640 --     2 N    1.247     4 N    1.237    18 H    0.955
     4   7 N    3.526 --     3 C    1.237     5 C    1.196    25 H    0.920
     5   6 C    3.938 --     6 C    1.349    13 N    1.217     4 N    1.196
     6   6 C    3.847 --     5 C    1.349     2 N    1.088     7 C    1.086
     7   6 C    3.959 --     8 O    1.683     9 N    1.094     6 C    1.086
     8   8 O    2.019 --     7 C    1.683     9 N    0.139
     9   7 N    3.533 --    11 C    1.125     7 C    1.094    10 C    0.972
                             8 O    0.139    12 O    0.134
    10   6 C    3.901 --     9 N    0.972    19 H    0.966    21 H    0.959
                            20 H    0.958
    11   6 C    3.958 --    12 O    1.706     9 N    1.125    13 N    1.036
    12   8 O    2.046 --    11 C    1.706     9 N    0.134    13 N    0.118
    13   7 N    3.532 --     5 C    1.217    11 C    1.036    14 C    0.975
                            12 O    0.118
    14   6 C    3.920 --    13 N    0.975    22 H    0.969    23 H    0.968
                            24 H    0.963
    15   1 H    0.981 --     1 C    0.954
    16   1 H    0.987 --     1 C    0.967
    17   1 H    0.004
    18   1 H    0.984 --     3 C    0.955
    19   1 H    0.984 --    10 C    0.966
    20   1 H    0.978 --    10 C    0.958
    21   1 H    0.978 --    10 C    0.959
    22   1 H    0.987 --    14 C    0.969
    23   1 H    0.986 --    14 C    0.968
    24   1 H    0.983 --    14 C    0.963
    25   1 H    0.948 --     4 N    0.920
 ---------------------------------------------------------------------------

molecular dipole:
                 x           y           z       tot (Debye)
 q only:        2.418      -1.799      -0.045
   full:        2.680      -2.278      -0.054       8.942

           -------------------------------------------------
          | TOTAL ENERGY              -42.108629557891 Eh   |
          | GRADIENT NORM               0.003031719309 Eh/α |
          | HOMO-LUMO GAP               0.273641332770 eV   |
           -------------------------------------------------

 * finished run on 2024/06/05 at 19:58:00.886
