   * xtb version 6.6.1 (8d0f1dd) compiled by 'conda@1efc2f54142f' on 2023-08-01
          program call               : xtb struc.xyz --opt loose --input .xc1 --gfn2

   ID    Z sym.   atoms
    1    6 C      1, 3, 5-7, 10, 11, 14
    2    7 N      2, 4, 9, 13
    3    8 O      8, 12
    4    1 H      15-25
constraining bond 11 12 to    3.7600000 Å, actual value:    1.1960413 Å

          :  Hamiltonian                  GFN2-xTB          :
 * total energy  :   -18.7720963 Eh     change       -0.6650680E-10 Eh
 * total energy  :   -28.6282935 Eh     change       -0.9856197E+01 Eh
 * total energy  :   -35.5084396 Eh     change       -0.6880146E+01 Eh
 * total energy  :   -39.6416197 Eh     change       -0.4133180E+01 Eh
 * total energy  :   -41.3529909 Eh     change       -0.1711371E+01 Eh
 * total energy  :   -41.6434421 Eh     change       -0.2904512E+00 Eh
 * total energy  :   -41.6570329 Eh     change       -0.1359087E-01 Eh
 * total energy  :   -41.6785774 Eh     change       -0.2154445E-01 Eh
 * total energy  :   -41.7025378 Eh     change       -0.2396040E-01 Eh
 * total energy  :   -41.7374358 Eh     change       -0.3489804E-01 Eh
 * total energy  :   -42.1664744 Eh     change       -0.1561760E-02 Eh
 * total energy  :   -42.1672653 Eh     change       -0.7908273E-03 Eh
 * total energy  :   -42.1675326 Eh     change       -0.2673396E-03 Eh
 * total energy  :   -42.1682751 Eh     change       -0.7425169E-03 Eh
 * total energy  :   -42.1685885 Eh     change       -0.3133881E-03 Eh
 * total energy  :   -42.1686866 Eh     change       -0.9813037E-04 Eh
 * total energy  :   -42.1687975 Eh     change       -0.1109030E-03 Eh
 * total energy  :   -42.1688555 Eh     change       -0.5792783E-04 Eh
 * total energy  :   -42.1689016 Eh     change       -0.4617243E-04 Eh
   *** GEOMETRY OPTIMIZATION CONVERGED AFTER 99 ITERATIONS ***

 final structure:
================
25
 xtb: 6.6.1 (8d0f1dd)
C            3.22725821125948        0.97633026591898        0.34563189650217
N            2.16256379239056        0.00983126890070        0.32708193277127
C            2.27156722389400       -1.30691863562425        0.48264890425939
N            1.06010544148659       -1.88603115218665        0.35421560352063
C            0.14800293138065       -0.90363644565927        0.10632455099829
C            0.83919569500966        0.29804672721529        0.08822001843395
C            0.16473387958021        1.55102572493760       -0.16095641812574
O            0.65233008605742        2.65571181480212       -0.16765650214887
N           -1.20958427692375        1.32116474285851       -0.42074405817526
C           -1.97412722989168        2.52085737382346       -0.72393982774109
C           -1.87611274716160        0.18110999282063       -0.41713719365014
O           -1.18226096362356       -3.37636940637270        0.55426960461272
N           -1.18794829279161       -0.98833006667748       -0.09847224081315
C           -1.80159185403347       -2.35010543896553       -0.20508835623348
H            3.96733936853055        0.70736275196107        1.09677018947612
H            3.71245627880100        1.01985064814734       -0.63161131184809
H            2.81072228393737        1.95901290293628        0.56376295886782
H            3.18324290597939       -1.83368717983230        0.68183167547230
H           -1.39479777369288        3.15593316304073       -1.39491998004798
H           -2.91680678508208        2.23285595392916       -1.18205796207354
H           -2.16529112091233        3.07882197915492        0.19431842984502
H           -1.70543601155217       -2.66029358993452       -1.25277184159576
H           -2.86032019636446       -2.22850801768698        0.03416937751429
H           -1.58705628594288       -3.44473073657903        1.42648890804215
H            0.82224695376415       -2.87106609934075        0.43079326003479

          :  Hamiltonian                  GFN2-xTB          :
         :: total energy             -42.168901638739 Eh    ::
         :: gradient norm              0.003183595506 Eh/a0 ::
         :: HOMO-LUMO gap              2.263152082659 eV    ::
         :: SCC energy               -42.666508534514 Eh    ::
         :: -> dispersion             -0.022369789104 Eh    ::
         :: repulsion energy           0.497295748787 Eh    ::

    * Orbital Energies and Occupations

         #    Occupation            Energy/Eh            Energy/eV
      -------------------------------------------------------------
         1        2.0000           -0.9034489             -24.5841
       ...           ...                  ...                  ...
        25        2.0000           -0.6633908             -18.0518
        26        2.0000           -0.6541284             -17.7997
        27        2.0000           -0.6440185             -17.5246
        28        1.9999           -0.6389194             -17.3859
        29        1.9999           -0.6316206             -17.1873
        30        1.9997           -0.6127136             -16.6728
        31        1.9997           -0.6109208             -16.6240
        32        1.9994           -0.6007803             -16.3481
        33        1.9991           -0.5933590             -16.1461
        34        1.9977           -0.5784156             -15.7395
        35        1.9955           -0.5677802             -15.4501
        36        1.9880           -0.5520733             -15.0227
        37        1.8605           -0.5121916             -13.9374 (HOMO)
        38        0.1305           -0.4290223             -11.6743 (LUMO)
        39        0.0209           -0.3991128             -10.8604
        40        0.0090           -0.3857434             -10.4966
        41        0.0000           -0.2834525              -7.7131
        42        0.0000           -0.2131354              -5.7997
        43                         -0.1879021              -5.1131
        44                         -0.1506889              -4.1005
        45                         -0.1270322              -3.4567
        46                         -0.1055929              -2.8733
        47                         -0.0704974              -1.9183
        48                         -0.0254519              -0.6926
       ...                                ...                  ...
        67                          0.5441123              14.8060
      -------------------------------------------------------------
                  HL-Gap            0.0831693 Eh            2.2632 eV

     #   Z          covCN         q      C6AA      α(0)
     1   6 C        3.691    -0.087    22.364     6.767
     2   7 N        2.834     0.071    20.011     6.644
     3   6 C        3.058     0.054    26.724     8.478
     4   7 N        2.794    -0.066    22.523     7.049
     5   6 C        3.053     0.117    25.368     8.260
     6   6 C        3.119    -0.015    28.205     8.698
     7   6 C        2.770     0.260    22.619     7.789
     8   8 O        0.857    -0.367    21.033     6.149
     9   7 N        2.747     0.011    21.059     6.816
    10   6 C        3.721    -0.070    21.963     6.693
    11   6 C        1.884    -0.086    33.488     9.346
    12   8 O        1.654    -0.419    21.231     6.220
    13   7 N        2.736    -0.033    21.886     6.948
    14   6 C        3.612     0.114    19.175     6.322
    15   1 H        0.925     0.100     1.784     2.089
    16   1 H        0.924     0.107     1.718     2.050
    17   1 H        0.925     0.130     1.537     1.939
    18   1 H        0.926     0.120     1.612     1.985
    19   1 H        0.924     0.102     1.769     2.080
    20   1 H        0.925     0.101     1.775     2.083
    21   1 H        0.924     0.096     1.825     2.112
    22   1 H        0.924     0.095     1.831     2.116
    23   1 H        0.924     0.093     1.848     2.126
    24   1 H        0.805     0.322     0.660     1.276
    25   1 H        0.860     0.250     0.882     1.471

Wiberg/Mayer (AO) data.
largest (>0.10) Wiberg bond orders for each atom

     #   Z sym  total        # sym  WBO       # sym  WBO       # sym  WBO
 ---------------------------------------------------------------------------
     1   6 C    3.921 --     2 N    0.987    15 H    0.969    17 H    0.962
                            16 H    0.954
     2   7 N    3.666 --     3 C    1.379     6 C    1.155     1 C    0.987
     3   6 C    3.846 --     2 N    1.379     4 N    1.288    18 H    0.953
     4   7 N    3.587 --     3 C    1.288     5 C    1.194    25 H    0.894
     5   6 C    3.943 --     6 C    1.357    13 N    1.196     4 N    1.194
     6   6 C    3.919 --     5 C    1.357     2 N    1.155     7 C    1.088
     7   6 C    3.927 --     8 O    1.701     6 C    1.088     9 N    1.035
     8   8 O    2.024 --     7 C    1.701     9 N    0.122
     9   7 N    3.660 --    11 C    1.436     7 C    1.035    10 C    0.976
                             8 O    0.122
    10   6 C    3.927 --     9 N    0.976    20 H    0.975    19 H    0.966
                            21 H    0.962
    11   6 C    2.847 --     9 N    1.436    13 N    1.203
    12   8 O    2.013 --    14 C    1.029    24 H    0.885
    13   7 N    3.579 --    11 C    1.203     5 C    1.196    14 C    0.936
    14   6 C    3.923 --    12 O    1.029    23 H    0.965    22 H    0.955
                            13 N    0.936
    15   1 H    0.988 --     1 C    0.969
    16   1 H    0.985 --     1 C    0.954
    17   1 H    0.982 --     1 C    0.962
    18   1 H    0.984 --     3 C    0.953
    19   1 H    0.988 --    10 C    0.966
    20   1 H    0.989 --    10 C    0.975
    21   1 H    0.988 --    10 C    0.962
    22   1 H    0.988 --    14 C    0.955
    23   1 H    0.990 --    14 C    0.965
    24   1 H    0.896 --    12 O    0.885
    25   1 H    0.937 --     4 N    0.894
 ---------------------------------------------------------------------------

molecular dipole:
                 x           y           z       tot (Debye)
 q only:        0.971      -1.779       0.492
   full:        1.332      -2.185       0.765       6.789

           -------------------------------------------------
          | TOTAL ENERGY              -42.168901638739 Eh   |
          | GRADIENT NORM               0.003183595506 Eh/α |
          | HOMO-LUMO GAP               2.263152082659 eV   |
           -------------------------------------------------

 * finished run on 2024/06/05 at 19:59:20.381
