   * xtb version 6.6.1 (8d0f1dd) compiled by 'conda@1efc2f54142f' on 2023-08-01
          program call               : xtb xtbopt.xyz --opt crude --input .xc2 --gfn2

   ID    Z sym.   atoms
    1    6 C      1, 3, 5-7, 10, 11, 14
    2    7 N      2, 4, 9, 13
    3    8 O      8, 12
    4    1 H      15-25
########################################################################
[WARNING] Please study the warnings concerning your input carefully
-1- readin_getIntValue: could not parse ''
########################################################################

          :  Hamiltonian                  GFN2-xTB          :
 * total energy  :   -42.1691063 Eh     change        0.2131628E-13 Eh
 * total energy  :   -42.1730913 Eh     change       -0.3984942E-02 Eh
 * total energy  :   -42.1740770 Eh     change       -0.9857496E-03 Eh
 * total energy  :   -42.1744218 Eh     change       -0.3447339E-03 Eh
   *** GEOMETRY OPTIMIZATION CONVERGED AFTER 4 ITERATIONS ***

 final structure:
================
25
 xtb: 6.6.1 (8d0f1dd)
C            3.23415132768298        0.98510315930228        0.35248949992160
N            2.18197246689794        0.00552925823585        0.32104443372093
C            2.30592553102339       -1.31131484175429        0.47269337938397
N            1.10235153099062       -1.90454896723149        0.33300469423198
C            0.18342930262901       -0.93122157880820        0.08144596917415
C            0.85646466383043        0.27950801918446        0.07529709729323
C            0.16124878451757        1.52490041755734       -0.16374200508630
O            0.63325553292548        2.63605269797123       -0.16937635376364
N           -1.21477599543400        1.27888306071084       -0.40482685967540
C           -1.99270094819563        2.47246045663229       -0.69665044473911
C           -1.85532287609552        0.11580083879427       -0.39260200972951
O           -1.23395527885521       -3.23460383096923        0.60960620682554
N           -1.15191586136984       -1.00976716602133       -0.13186635840358
C           -1.82210498454390       -2.30949415993243       -0.24285757202087
H            3.96919420377003        0.72495889648008        1.11172383384805
H            3.72992479425065        1.03522469928686       -0.61916274288936
H            2.80239471114129        1.96224497668698        0.56642760196209
H            3.22124603963058       -1.82851536247875        0.68004609538164
H           -1.43351841680647        3.10075092095776       -1.38944572548462
H           -2.94466945373580        2.17759190473670       -1.12674753125352
H           -2.15937248436367        3.04133945744585        0.21848571671529
H           -1.69644925662326       -2.67474478616032       -1.27145107530739
H           -2.88583906272782       -2.14179555935829       -0.05113610472185
H           -1.69981595289640       -3.28703169225789        1.45407246560908
H            0.86931319645612       -2.88907227742327        0.41469940690543

          :  Hamiltonian                  GFN2-xTB          :
         :: total energy             -42.174421755431 Eh    ::
         :: gradient norm              0.004857718020 Eh/a0 ::
         :: HOMO-LUMO gap              2.241493657855 eV    ::
         :: SCC energy               -42.680172264708 Eh    ::
         :: -> dispersion             -0.022478489382 Eh    ::
         :: repulsion energy           0.505637022391 Eh    ::

    * Orbital Energies and Occupations

         #    Occupation            Energy/Eh            Energy/eV
      -------------------------------------------------------------
         1        2.0000           -0.9035395             -24.5866
       ...           ...                  ...                  ...
        25        2.0000           -0.6621580             -18.0182
        26        2.0000           -0.6523979             -17.7527
        27        2.0000           -0.6428841             -17.4938
        28        1.9999           -0.6365242             -17.3207
        29        1.9999           -0.6310097             -17.1706
        30        1.9997           -0.6108777             -16.6228
        31        1.9997           -0.6107227             -16.6186
        32        1.9994           -0.5994642             -16.3123
        33        1.9991           -0.5912243             -16.0880
        34        1.9978           -0.5779231             -15.7261
        35        1.9955           -0.5664681             -15.4144
        36        1.9885           -0.5515108             -15.0074
        37        1.8563           -0.5104021             -13.8887 (HOMO)
        38        0.1328           -0.4280287             -11.6473 (LUMO)
        39        0.0238           -0.3999381             -10.8829
        40        0.0074           -0.3812187             -10.3735
        41        0.0000           -0.2812709              -7.6538
        42                         -0.1906785              -5.1886
        43                         -0.1775139              -4.8304
        44                         -0.1349966              -3.6734
        45                         -0.1240592              -3.3758
        46                         -0.0929031              -2.5280
        47                         -0.0630424              -1.7155
        48                         -0.0241725              -0.6578
       ...                                ...                  ...
        67                          0.5458317              14.8528
      -------------------------------------------------------------
                  HL-Gap            0.0823734 Eh            2.2415 eV

     #   Z          covCN         q      C6AA      α(0)
     1   6 C        3.691    -0.088    22.366     6.768
     2   7 N        2.835     0.071    20.010     6.644
     3   6 C        3.060     0.054    26.741     8.480
     4   7 N        2.792    -0.061    22.425     7.033
     5   6 C        3.063     0.115    25.412     8.267
     6   6 C        3.116    -0.013    28.176     8.695
     7   6 C        2.770     0.260    22.619     7.789
     8   8 O        0.857    -0.368    21.045     6.151
     9   7 N        2.750     0.002    21.225     6.842
    10   6 C        3.717    -0.070    21.966     6.695
    11   6 C        1.894    -0.090    33.590     9.360
    12   8 O        1.657    -0.422    21.289     6.229
    13   7 N        2.744    -0.016    21.561     6.896
    14   6 C        3.624     0.122    18.992     6.280
    15   1 H        0.925     0.100     1.783     2.088
    16   1 H        0.924     0.108     1.718     2.050
    17   1 H        0.925     0.130     1.536     1.938
    18   1 H        0.926     0.121     1.608     1.983
    19   1 H        0.925     0.101     1.780     2.086
    20   1 H        0.925     0.099     1.790     2.092
    21   1 H        0.924     0.095     1.832     2.117
    22   1 H        0.923     0.088     1.902     2.157
    23   1 H        0.924     0.090     1.878     2.143
    24   1 H        0.805     0.325     0.652     1.268
    25   1 H        0.860     0.249     0.886     1.475

Wiberg/Mayer (AO) data.
largest (>0.10) Wiberg bond orders for each atom

     #   Z sym  total        # sym  WBO       # sym  WBO       # sym  WBO
 ---------------------------------------------------------------------------
     1   6 C    3.921 --     2 N    0.988    15 H    0.969    17 H    0.962
                            16 H    0.954
     2   7 N    3.663 --     3 C    1.376     6 C    1.156     1 C    0.988
     3   6 C    3.841 --     2 N    1.376     4 N    1.287    18 H    0.953
     4   7 N    3.588 --     3 C    1.287     5 C    1.196    25 H    0.899
     5   6 C    3.940 --     6 C    1.363     4 N    1.196    13 N    1.177
     6   6 C    3.919 --     5 C    1.363     2 N    1.156     7 C    1.084
     7   6 C    3.928 --     8 O    1.701     6 C    1.084     9 N    1.040
     8   8 O    2.025 --     7 C    1.701     9 N    0.126
     9   7 N    3.649 --    11 C    1.407     7 C    1.040    10 C    0.979
                             8 O    0.126
    10   6 C    3.929 --     9 N    0.979    20 H    0.976    19 H    0.966
                            21 H    0.962
    11   6 C    2.867 --     9 N    1.407    13 N    1.251
    12   8 O    2.004 --    14 C    1.032    24 H    0.881
    13   7 N    3.603 --    11 C    1.251     5 C    1.177    14 C    0.942
    14   6 C    3.925 --    12 O    1.032    23 H    0.962    22 H    0.952
                            13 N    0.942
    15   1 H    0.988 --     1 C    0.969
    16   1 H    0.984 --     1 C    0.954
    17   1 H    0.982 --     1 C    0.962
    18   1 H    0.984 --     3 C    0.953
    19   1 H    0.988 --    10 C    0.966
    20   1 H    0.989 --    10 C    0.976
    21   1 H    0.988 --    10 C    0.962
    22   1 H    0.989 --    14 C    0.952
    23   1 H    0.991 --    14 C    0.962
    24   1 H    0.894 --    12 O    0.881
    25   1 H    0.937 --     4 N    0.899
 ---------------------------------------------------------------------------

molecular dipole:
                 x           y           z       tot (Debye)
 q only:        1.005      -1.854       0.475
   full:        1.334      -2.262       0.701       6.909

           -------------------------------------------------
          | TOTAL ENERGY              -42.174421755431 Eh   |
          | GRADIENT NORM               0.004857718020 Eh/α |
          | HOMO-LUMO GAP               2.241493657855 eV   |
           -------------------------------------------------

 * finished run on 2024/06/05 at 19:59:20.615
