   * xtb version 6.6.1 (8d0f1dd) compiled by 'conda@1efc2f54142f' on 2023-08-01
          program call               : xtb struc.xyz --opt loose --input .xc1 --gfn2

   ID    Z sym.   atoms
    1    6 C      1, 3, 5-7, 10, 11, 14
    2    7 N      2, 4, 9, 13
    3    8 O      8, 12
    4    1 H      15-25
constraining bond 4 18 to    2.6866700 Å, actual value:    2.1494719 Å

          :  Hamiltonian                  GFN2-xTB          :
 * total energy  :   -42.7631306 Eh     change       -0.6650680E-10 Eh
 * total energy  :   -44.8301708 Eh     change       -0.2067040E+01 Eh
 * total energy  :   -48.1433687 Eh     change       -0.3313198E+01 Eh
 * total energy  :   -24.3777596 Eh     change        0.2376561E+02 Eh
 * total energy  :   -49.3557085 Eh     change       -0.2497795E+02 Eh
 * total energy  :   -49.3257209 Eh     change        0.2998765E-01 Eh
 * total energy  :   -49.4689246 Eh     change       -0.1432037E+00 Eh
 * total energy  :   -49.4965871 Eh     change       -0.2766254E-01 Eh
 * total energy  :   -49.5131823 Eh     change       -0.1659518E-01 Eh
 * total energy  :   -49.5229194 Eh     change       -0.9737139E-02 Eh
 * total energy  :   -49.7424185 Eh     change       -0.9641954E-04 Eh
 * total energy  :   -49.7424880 Eh     change       -0.6948019E-04 Eh
 * total energy  :   -49.7425829 Eh     change       -0.9490019E-04 Eh
 * total energy  :   -49.7427185 Eh     change       -0.1355934E-03 Eh
 * total energy  :   -49.7428317 Eh     change       -0.1132164E-03 Eh
 * total energy  :   -49.7428160 Eh     change        0.1568792E-04 Eh
 * total energy  :   -49.7428243 Eh     change       -0.8319096E-05 Eh
 * total energy  :   -49.7429670 Eh     change       -0.1426247E-03 Eh
 * total energy  :   -49.7429853 Eh     change       -0.1833588E-04 Eh
   *** GEOMETRY OPTIMIZATION CONVERGED AFTER 71 ITERATIONS ***

 final structure:
================
25
 xtb: 6.6.1 (8d0f1dd)
C            2.96838584438304        1.08786672252264        0.57961847916830
N            2.26945425007677       -0.03105032645149       -0.06183192398397
C            2.95047853669668       -0.93315618021833       -0.62366672398814
N            3.64310811817055       -1.76457657263809       -1.11184616381782
C            0.17983330507510       -1.25696770079236        0.15530523220391
C            0.84275988616445       -0.08306442448970       -0.02721336909583
C            0.10079090872148        1.16253502304818       -0.23370428025599
O            0.61302749796631        2.23264076319437       -0.47825335676999
N           -1.27076013824304        1.00939402359777       -0.12853923838318
C           -2.10445009839966        2.19388009582796       -0.26830563673338
C           -1.95621070253850       -0.17420014358871        0.05803831785350
O           -3.15404930532253       -0.22675114486792        0.10897273730391
N           -1.16078049528460       -1.32172677579365        0.18811246965096
C           -1.83432725788178       -2.59323311908603        0.36130061204719
H            2.65806149525532        1.14874108571741        1.62255288616970
H            4.04292159264192        0.92982177042941        0.52508266860012
H            2.70194741711030        2.01743693888023        0.07353297951585
H            3.94484123999992       -2.11089027003785       -1.29886833403738
H           -1.45580268162374        3.06471392694031       -0.32152532968809
H           -2.70768081925519        2.12029237994269       -1.17309277164437
H           -2.77579159823831        2.26519839520082        0.58671728092311
H           -1.44900478694070       -3.11033343204010        1.23878250558585
H           -1.69647909056592       -3.21934008369626       -0.52089538065892
H           -2.89742905901869       -2.39636406552164        0.49255076620278
H            0.70758745512340       -2.19262834448222        0.28834719173123

          :  Hamiltonian                  GFN2-xTB          :
         :: total energy             -49.742985299548 Eh    ::
         :: gradient norm              0.003717408978 Eh/a0 ::
         :: HOMO-LUMO gap              2.564413083623 eV    ::
         :: SCC energy               -42.799832264259 Eh    ::
         :: -> dispersion             -0.021699352959 Eh    ::
         :: repulsion energy           1.626053953837 Eh    ::

    * Orbital Energies and Occupations

         #    Occupation            Energy/Eh            Energy/eV
      -------------------------------------------------------------
         1        2.0000           -0.8930838             -24.3020
       ...           ...                  ...                  ...
        25        2.0000           -0.6686818             -18.1958
        26        2.0000           -0.6646646             -18.0864
        27        1.9999           -0.6528729             -17.7656
        28        1.9998           -0.6441090             -17.5271
        29        1.9996           -0.6305301             -17.1576
        30        1.9993           -0.6225328             -16.9400
        31        1.9990           -0.6176083             -16.8060
        32        1.9982           -0.6074978             -16.5309
        33        1.9967           -0.5981051             -16.2753
        34        1.9828           -0.5716754             -15.5561
        35        1.9659           -0.5607290             -15.2582
        36        1.9632           -0.5595227             -15.2254
        37        1.9311           -0.5493090             -14.9475 (HOMO)
        38        0.1358           -0.4550686             -12.3830 (LUMO)
        39        0.0247           -0.4271716             -11.6239
        40        0.0035           -0.3959222             -10.7736
        41        0.0006           -0.3687057             -10.0330
        42        0.0000           -0.2908179              -7.9136
        43                         -0.2262742              -6.1572
        44                         -0.1616485              -4.3987
        45                         -0.1213703              -3.3027
        46                         -0.0637706              -1.7353
        47                         -0.0485177              -1.3202
        48                         -0.0153453              -0.4176
       ...                                ...                  ...
        67                          4.2259458             114.9938
      -------------------------------------------------------------
                  HL-Gap            0.0942404 Eh            2.5644 eV

     #   Z          covCN         q      C6AA      α(0)
     1   6 C        3.714    -0.083    22.223     6.735
     2   7 N        2.731     0.072    19.987     6.640
     3   6 C        1.909     0.182    26.752     8.353
     4   7 N        1.774    -0.131    24.578     7.341
     5   6 C        2.857     0.018    27.594     8.610
     6   6 C        2.922    -0.014    28.371     8.735
     7   6 C        2.770     0.270    22.437     7.758
     8   8 O        0.858    -0.379    21.260     6.182
     9   7 N        2.743    -0.074    22.682     7.073
    10   6 C        3.709    -0.061    21.819     6.676
    11   6 C        2.725     0.316    21.629     7.614
    12   8 O        0.859    -0.358    20.861     6.124
    13   7 N        2.743    -0.020    21.630     6.907
    14   6 C        3.702    -0.075    22.105     6.723
    15   1 H        0.925     0.108     1.717     2.049
    16   1 H        0.925     0.098     1.804     2.101
    17   1 H        0.924     0.143     1.437     1.874
    18   1 H        0.889     0.279     0.777     1.380
    19   1 H        0.925     0.112     1.677     2.025
    20   1 H        0.925     0.100     1.787     2.090
    21   1 H        0.925     0.102     1.768     2.079
    22   1 H        0.925     0.091     1.871     2.139
    23   1 H        0.924     0.092     1.862     2.134
    24   1 H        0.925     0.124     1.578     1.965
    25   1 H        0.925     0.088     1.903     2.157

Wiberg/Mayer (AO) data.
largest (>0.10) Wiberg bond orders for each atom

     #   Z sym  total        # sym  WBO       # sym  WBO       # sym  WBO
 ---------------------------------------------------------------------------
     1   6 C    3.885 --    16 H    0.975    15 H    0.966    17 H    0.947
                             2 N    0.917
     2   7 N    3.628 --     3 C    1.487     6 C    0.969     1 C    0.917
                             4 N    0.206
     3   6 C    3.815 --     4 N    2.220     2 N    1.487
     4   7 N    3.443 --     3 C    2.220    18 H    0.916     2 N    0.206
     5   6 C    3.945 --     6 C    1.545    13 N    1.274    25 H    0.952
     6   6 C    3.864 --     5 C    1.545     7 C    1.058     2 N    0.969
     7   6 C    3.955 --     8 O    1.670     9 N    1.122     6 C    1.058
     8   8 O    2.009 --     7 C    1.670     9 N    0.144
     9   7 N    3.556 --     7 C    1.122    11 C    1.117    10 C    0.971
                             8 O    0.144    12 O    0.135
    10   6 C    3.907 --     9 N    0.971    19 H    0.967    21 H    0.961
                            20 H    0.959
    11   6 C    3.959 --    12 O    1.698     9 N    1.117    13 N    1.052
    12   8 O    2.039 --    11 C    1.698     9 N    0.135    13 N    0.113
    13   7 N    3.596 --     5 C    1.274    11 C    1.052    14 C    0.978
                            12 O    0.113
    14   6 C    3.918 --    13 N    0.978    22 H    0.968    24 H    0.964
                            23 H    0.964
    15   1 H    0.987 --     1 C    0.966
    16   1 H    0.989 --     1 C    0.975
    17   1 H    0.977 --     1 C    0.947
    18   1 H    0.922 --     4 N    0.916
    19   1 H    0.985 --    10 C    0.967
    20   1 H    0.981 --    10 C    0.959
    21   1 H    0.982 --    10 C    0.961
    22   1 H    0.986 --    14 C    0.968
    23   1 H    0.984 --    14 C    0.964
    24   1 H    0.983 --    14 C    0.964
    25   1 H    0.991 --     5 C    0.952
 ---------------------------------------------------------------------------

molecular dipole:
                 x           y           z       tot (Debye)
 q only:        2.888      -1.726       0.012
   full:        3.153      -2.085      -0.019       9.608

           -------------------------------------------------
          | TOTAL ENERGY              -49.742985299548 Eh   |
          | GRADIENT NORM               0.003717408978 Eh/α |
          | HOMO-LUMO GAP               2.564413083623 eV   |
           -------------------------------------------------

 * finished run on 2024/06/05 at 20:00:24.771
