   * xtb version 6.6.1 (8d0f1dd) compiled by 'conda@1efc2f54142f' on 2023-08-01
          program call               : xtb struc.xyz --opt loose --input .xc1 --gfn2

   ID    Z sym.   atoms
    1    6 C      1, 3, 5-7, 10, 11, 14
    2    7 N      2, 4, 9, 13
    3    8 O      8, 12
    4    1 H      15-25
constraining bond 6 25 to    3.7133300 Å, actual value:    3.1881491 Å

          :  Hamiltonian                  GFN2-xTB          :
 * total energy  :   -42.7403350 Eh     change       -0.6650680E-10 Eh
 * total energy  :   -44.6630833 Eh     change       -0.1922748E+01 Eh
 * total energy  :   -47.3509650 Eh     change       -0.2687882E+01 Eh
 * total energy  :   -50.5169253 Eh     change       -0.3165960E+01 Eh
 * total energy  :   -54.0472302 Eh     change       -0.3530305E+01 Eh
 * total energy  :   -56.8793354 Eh     change       -0.2832105E+01 Eh
 * total energy  :   -57.9230545 Eh     change       -0.1043719E+01 Eh
 * total energy  :   -58.8718583 Eh     change       -0.9488038E+00 Eh
 * total energy  :   -58.9283419 Eh     change       -0.5648362E-01 Eh
 * total energy  :   -56.0067306 Eh     change        0.2921611E+01 Eh
 * total energy  :   -59.7419997 Eh     change       -0.1057537E-03 Eh
 * total energy  :   -59.7420566 Eh     change       -0.5699112E-04 Eh
 * total energy  :   -59.7421198 Eh     change       -0.6318078E-04 Eh
 * total energy  :   -59.7421633 Eh     change       -0.4349492E-04 Eh
 * total energy  :   -59.7422026 Eh     change       -0.3930870E-04 Eh
 * total energy  :   -59.7422277 Eh     change       -0.2502770E-04 Eh
 * total energy  :   -59.7422469 Eh     change       -0.1924034E-04 Eh
 * total energy  :   -59.7422575 Eh     change       -0.1058471E-04 Eh
 * total energy  :   -59.7422657 Eh     change       -0.8237399E-05 Eh
   *** GEOMETRY OPTIMIZATION CONVERGED AFTER 85 ITERATIONS ***

 final structure:
================
25
 xtb: 6.6.1 (8d0f1dd)
C            5.02713162087502        0.76813943912520       -0.53525519672174
N            3.75552232629036        0.19554798212938       -0.51828720620466
C            2.99027939690335       -0.01506601801836        0.48737349443882
N            1.76364345496394       -0.41254954534554        0.42263771848974
C           -0.48368808564482       -0.68815705533087        0.12469569323620
C            0.82848819945304       -1.29537771758347        0.15718369515021
C           -0.78980900086227        0.74177124552630        0.33093971842507
O           -0.02882622193921        1.64296514884389        0.57608958511011
N           -2.16130261854980        0.82745242008338        0.17947543600755
C           -2.92726566964440        2.04357934889951        0.28740868033382
C           -2.71754505207562       -0.40230212777228       -0.10163620612682
O           -3.86361115274695       -0.67742639694077       -0.29300599417812
N           -1.64323495534995       -1.32592088616934       -0.12716590222319
C           -1.84466969014020       -2.71934942796541       -0.39662637030260
H            5.45888564536890        0.92295986135252        0.46249078304720
H            5.68981979622900        0.12423603462434       -1.12197922768014
H            4.97626260897393        1.73217115927494       -1.05428579436501
H            3.31499861937622        0.24399981121776        1.50991905107562
H           -2.23126398239728        2.87896314481695        0.34033835043045
H           -3.57958740624292        2.14543274355178       -0.58068497895717
H           -3.54689992957389        2.02291075489973        1.18621722766059
H           -1.48094581160488       -3.32901008558765        0.43239549443156
H           -1.32351244004378       -3.01567950204168       -1.30921829280221
H           -2.91517799439002       -2.88073715688115       -0.52464621304707
H            0.89273985690537       -1.71031463309724        0.09679807267512

          :  Hamiltonian                  GFN2-xTB          :
         :: total energy             -59.742265721422 Eh    ::
         :: gradient norm              0.002485653402 Eh/a0 ::
         :: HOMO-LUMO gap              0.549371094280 eV    ::
         :: SCC energy               -42.707010920398 Eh    ::
         :: -> dispersion             -0.019707621277 Eh    ::
         :: repulsion energy           2.281325549634 Eh    ::

    * Orbital Energies and Occupations

         #    Occupation            Energy/Eh            Energy/eV
      -------------------------------------------------------------
         1        2.0000           -0.8911003             -24.2481
       ...           ...                  ...                  ...
        25        1.9998           -0.6680547             -18.1787
        26        1.9995           -0.6517547             -17.7351
        27        1.9992           -0.6438682             -17.5205
        28        1.9984           -0.6335396             -17.2395
        29        1.9984           -0.6330678             -17.2267
        30        1.9968           -0.6224357             -16.9373
        31        1.9955           -0.6171581             -16.7937
        32        1.9920           -0.6079952             -16.5444
        33        1.9806           -0.5938085             -16.1584
        34        1.9364           -0.5746322             -15.6365
        35        1.9150           -0.5698556             -15.5066
        36        1.6427           -0.5447004             -14.8221
        37        1.5516           -0.5402021             -14.6996 (HOMO)
        38        0.9832           -0.5200130             -14.1503 (LUMO)
        39        0.0110           -0.4382849             -11.9263
        40        0.0002           -0.3732062             -10.1555
        41        0.0000           -0.3489673              -9.4959
        42        0.0000           -0.3255061              -8.8575
        43                         -0.1846841              -5.0255
        44                         -0.1384209              -3.7666
        45                         -0.1113293              -3.0294
        46                         -0.0529331              -1.4404
        47                         -0.0278491              -0.7578
        48                         -0.0083838              -0.2281
       ...                                ...                  ...
        67                         10.5200287             286.2646
      -------------------------------------------------------------
                  HL-Gap            0.0201890 Eh            0.5494 eV

     #   Z          covCN         q      C6AA      α(0)
     1   6 C        3.695    -0.050    21.642     6.655
     2   7 N        1.833    -0.109    24.150     7.282
     3   6 C        2.760     0.140    24.922     8.175
     4   7 N        1.901    -0.063    23.197     7.141
     5   6 C        3.036     0.021    27.515     8.604
     6   6 C        2.824     0.011    27.752     8.632
     7   6 C        2.843     0.268    22.488     7.772
     8   8 O        0.857    -0.315    20.058     6.005
     9   7 N        2.795    -0.069    22.584     7.058
    10   6 C        3.690    -0.059    21.840     6.688
    11   6 C        2.828     0.318    21.599     7.616
    12   8 O        0.857    -0.313    20.012     5.998
    13   7 N        2.786    -0.017    21.572     6.898
    14   6 C        3.690    -0.074    22.105     6.729
    15   1 H        0.923     0.096     1.822     2.111
    16   1 H        0.924     0.123     1.588     1.971
    17   1 H        0.924     0.125     1.576     1.963
    18   1 H        0.923     0.118     1.633     1.998
    19   1 H        0.925     0.113     1.673     2.023
    20   1 H        0.924     0.109     1.709     2.044
    21   1 H        0.924     0.107     1.722     2.052
    22   1 H        0.924     0.103     1.757     2.073
    23   1 H        0.924     0.104     1.750     2.069
    24   1 H        0.925     0.123     1.587     1.970
    25   1 H        0.982     0.190     1.145     1.672

Wiberg/Mayer (AO) data.
largest (>0.10) Wiberg bond orders for each atom

     #   Z sym  total        # sym  WBO       # sym  WBO       # sym  WBO
 ---------------------------------------------------------------------------
     1   6 C    3.876 --     2 N    1.094    16 H    0.920    15 H    0.919
                            17 H    0.910
     2   7 N    2.771 --     3 C    1.543     1 C    1.094
     3   6 C    3.926 --     2 N    1.543     4 N    1.418    18 H    0.855
     4   7 N    3.138 --     6 C    1.531     3 C    1.418
     5   6 C    3.686 --    13 N    1.267     6 C    1.218     7 C    1.013
     6   6 C    3.850 --     4 N    1.531     5 C    1.218    25 H    0.928
     7   6 C    3.922 --     8 O    1.705     9 N    1.114     5 C    1.013
     8   8 O    1.972 --     7 C    1.705     9 N    0.126
     9   7 N    3.511 --     7 C    1.114    11 C    1.109    10 C    0.982
                             8 O    0.126    12 O    0.116
    10   6 C    3.893 --     9 N    0.982    19 H    0.967    20 H    0.955
                            21 H    0.949
    11   6 C    3.930 --    12 O    1.727     9 N    1.109    13 N    1.011
    12   8 O    2.011 --    11 C    1.727     9 N    0.116
    13   7 N    3.460 --     5 C    1.267    11 C    1.011    14 C    0.996
    14   6 C    3.911 --    13 N    0.996    24 H    0.965    22 H    0.953
                            23 H    0.951
    15   1 H    0.924 --     1 C    0.919
    16   1 H    0.945 --     1 C    0.920
    17   1 H    0.935 --     1 C    0.910
    18   1 H    0.898 --     3 C    0.855
    19   1 H    0.981 --    10 C    0.967
    20   1 H    0.971 --    10 C    0.955
    21   1 H    0.967 --    10 C    0.949
    22   1 H    0.971 --    14 C    0.953
    23   1 H    0.970 --    14 C    0.951
    24   1 H    0.983 --    14 C    0.965
    25   1 H    0.951 --     6 C    0.928
 ---------------------------------------------------------------------------

molecular dipole:
                 x           y           z       tot (Debye)
 q only:        1.912      -0.890       0.027
   full:        2.098      -0.987       0.247       5.926

           -------------------------------------------------
          | TOTAL ENERGY              -59.742265721422 Eh   |
          | GRADIENT NORM               0.002485653402 Eh/α |
          | HOMO-LUMO GAP               0.549371094280 eV   |
           -------------------------------------------------

 * finished run on 2024/06/05 at 20:00:19.989
