   * xtb version 6.6.1 (8d0f1dd) compiled by 'conda@1efc2f54142f' on 2023-08-01
          program call               : xtb xtbopt.xyz --opt crude --input .xc2 --gfn2

   ID    Z sym.   atoms
    1    6 C      1, 3, 5-7, 10, 11, 14
    2    7 N      2, 4, 9, 13
    3    8 O      8, 12
    4    1 H      15-25
########################################################################
[WARNING] Please study the warnings concerning your input carefully
-1- readin_getIntValue: could not parse ''
########################################################################

          :  Hamiltonian                  GFN2-xTB          :
 * total energy  :   -40.4257321 Eh     change       -0.2486900E-12 Eh
 * total energy  :   -42.1273955 Eh     change       -0.1701663E+01 Eh
 * total energy  :   -42.1498715 Eh     change       -0.2247593E-01 Eh
 * total energy  :   -42.1537893 Eh     change       -0.3917796E-02 Eh
 * total energy  :   -42.1556016 Eh     change       -0.1812385E-02 Eh
 * total energy  :   -42.1561647 Eh     change       -0.5630345E-03 Eh
 * total energy  :   -42.1568026 Eh     change       -0.6379590E-03 Eh
 * total energy  :   -42.1572496 Eh     change       -0.4469399E-03 Eh
 * total energy  :   -42.1576026 Eh     change       -0.3530145E-03 Eh
   *** GEOMETRY OPTIMIZATION CONVERGED AFTER 9 ITERATIONS ***

 final structure:
================
25
 xtb: 6.6.1 (8d0f1dd)
C            5.05093406367539        0.80116665750147       -0.52651748931632
N            3.77623262874532        0.23746551674992       -0.52491335101057
C            3.01848000342058       -0.02752307741827        0.47055779617045
N            1.78679468752970       -0.40390825295925        0.38377969175910
C           -0.49188353935226       -0.65136738590786        0.12705528624289
C            0.80470695419236       -1.18167019918108        0.17323380212702
C           -0.80136954660039        0.77667023040332        0.32029262562172
O           -0.05431676726702        1.69228066245958        0.55365342540459
N           -2.17613719513069        0.85062577021992        0.17164005063714
C           -2.95876311057495        2.05469088059210        0.28296982572660
C           -2.72566280421099       -0.38484355913971       -0.09433742912080
O           -3.87177940394808       -0.66541894328179       -0.28139103644180
N           -1.64898382299200       -1.30183188562716       -0.11217170355097
C           -1.84767654324798       -2.69550856059353       -0.37967341458542
H            5.46925862086216        0.95527078914496        0.47695815141990
H            5.71826294346399        0.15302489741346       -1.10290474537597
H            5.00724760833602        1.76375239388050       -1.04705179306111
H            3.35131622464648        0.17403682138047        1.50428432490904
H           -2.27829144333186        2.90232407579064        0.33352562279266
H           -3.61635850572108        2.14389463852212       -0.58248045057167
H           -3.57489753099498        2.02100885055064        1.18373287190648
H           -1.49514236420805       -3.30407015861469        0.45489516972819
H           -1.32104050947825       -2.99415935174263       -1.28818927856553
H           -2.91797064180082       -2.85223389183789       -0.51539219739226
H            0.95747150812042       -2.24543837669312        0.04961586244994

          :  Hamiltonian                  GFN2-xTB          :
         :: total energy             -42.157602584005 Eh    ::
         :: gradient norm              0.009889821384 Eh/a0 ::
         :: HOMO-LUMO gap              0.614094886432 eV    ::
         :: SCC energy               -42.706627912733 Eh    ::
         :: -> dispersion             -0.019633639192 Eh    ::
         :: repulsion energy           0.549072354912 Eh    ::

    * Orbital Energies and Occupations

         #    Occupation            Energy/Eh            Energy/eV
      -------------------------------------------------------------
         1        2.0000           -0.8895233             -24.2052
       ...           ...                  ...                  ...
        25        1.9998           -0.6661086             -18.1257
        26        1.9995           -0.6510863             -17.7170
        27        1.9992           -0.6423072             -17.4781
        28        1.9985           -0.6333134             -17.2333
        29        1.9985           -0.6328470             -17.2206
        30        1.9969           -0.6215784             -16.9140
        31        1.9955           -0.6157774             -16.7562
        32        1.9923           -0.6072485             -16.5241
        33        1.9804           -0.5922746             -16.1166
        34        1.9318           -0.5721641             -15.5694
        35        1.9121           -0.5679743             -15.4554
        36        1.6350           -0.5429523             -14.7745
        37        1.5902           -0.5406805             -14.7127 (HOMO)
        38        0.9654           -0.5181130             -14.0986 (LUMO)
        39        0.0050           -0.4244241             -11.5492
        40        0.0002           -0.3735634             -10.1652
        41        0.0000           -0.3451025              -9.3907
        42        0.0000           -0.3153689              -8.5816
        43                         -0.1815836              -4.9411
        44                         -0.1388757              -3.7790
        45                         -0.1003298              -2.7301
        46                         -0.0491799              -1.3383
        47                         -0.0397118              -1.0806
        48                         -0.0188155              -0.5120
       ...                                ...                  ...
        67                          0.6299197              17.1410
      -------------------------------------------------------------
                  HL-Gap            0.0225676 Eh            0.6141 eV

     #   Z          covCN         q      C6AA      α(0)
     1   6 C        3.695    -0.050    21.643     6.655
     2   7 N        1.835    -0.109    24.152     7.283
     3   6 C        2.761     0.140    24.924     8.176
     4   7 N        1.859    -0.037    22.677     7.058
     5   6 C        3.018     0.028    27.359     8.580
     6   6 C        2.823     0.070    26.434     8.425
     7   6 C        2.842     0.270    22.458     7.766
     8   8 O        0.857    -0.317    20.091     6.010
     9   7 N        2.797    -0.071    22.609     7.062
    10   6 C        3.690    -0.059    21.829     6.686
    11   6 C        2.830     0.318    21.599     7.616
    12   8 O        0.857    -0.316    20.076     6.007
    13   7 N        2.787    -0.016    21.566     6.897
    14   6 C        3.690    -0.073    22.090     6.726
    15   1 H        0.923     0.095     1.830     2.115
    16   1 H        0.924     0.122     1.599     1.978
    17   1 H        0.924     0.125     1.577     1.964
    18   1 H        0.923     0.116     1.644     2.005
    19   1 H        0.925     0.112     1.677     2.025
    20   1 H        0.924     0.108     1.711     2.045
    21   1 H        0.924     0.106     1.730     2.057
    22   1 H        0.924     0.101     1.773     2.082
    23   1 H        0.924     0.102     1.768     2.079
    24   1 H        0.925     0.124     1.581     1.967
    25   1 H        0.925     0.110     1.693     2.034

Wiberg/Mayer (AO) data.
largest (>0.10) Wiberg bond orders for each atom

     #   Z sym  total        # sym  WBO       # sym  WBO       # sym  WBO
 ---------------------------------------------------------------------------
     1   6 C    3.877 --     2 N    1.092    16 H    0.920    15 H    0.919
                            17 H    0.912
     2   7 N    2.785 --     3 C    1.555     1 C    1.092
     3   6 C    3.925 --     2 N    1.555     4 N    1.405    18 H    0.856
     4   7 N    3.185 --     6 C    1.593     3 C    1.405
     5   6 C    3.688 --    13 N    1.256     6 C    1.246     7 C    1.013
     6   6 C    3.899 --     4 N    1.593     5 C    1.246    25 H    0.910
     7   6 C    3.923 --     8 O    1.705     9 N    1.110     5 C    1.013
     8   8 O    1.965 --     7 C    1.705     9 N    0.126
     9   7 N    3.509 --     7 C    1.110    11 C    1.110    10 C    0.984
                             8 O    0.126    12 O    0.117
    10   6 C    3.893 --     9 N    0.984    19 H    0.967    20 H    0.955
                            21 H    0.949
    11   6 C    3.930 --    12 O    1.721     9 N    1.110    13 N    1.017
    12   8 O    2.003 --    11 C    1.721     9 N    0.117
    13   7 N    3.455 --     5 C    1.256    11 C    1.017    14 C    0.996
    14   6 C    3.913 --    13 N    0.996    24 H    0.965    22 H    0.953
                            23 H    0.952
    15   1 H    0.923 --     1 C    0.919
    16   1 H    0.945 --     1 C    0.920
    17   1 H    0.938 --     1 C    0.912
    18   1 H    0.899 --     3 C    0.856
    19   1 H    0.981 --    10 C    0.967
    20   1 H    0.971 --    10 C    0.955
    21   1 H    0.967 --    10 C    0.949
    22   1 H    0.971 --    14 C    0.953
    23   1 H    0.970 --    14 C    0.952
    24   1 H    0.982 --    14 C    0.965
    25   1 H    0.950 --     6 C    0.910
 ---------------------------------------------------------------------------

molecular dipole:
                 x           y           z       tot (Debye)
 q only:        1.974      -0.901       0.063
   full:        2.152      -1.102       0.291       6.188

           -------------------------------------------------
          | TOTAL ENERGY              -42.157602584005 Eh   |
          | GRADIENT NORM               0.009889821384 Eh/α |
          | HOMO-LUMO GAP               0.614094886432 eV   |
           -------------------------------------------------

 * finished run on 2024/06/05 at 20:00:20.298
