   * xtb version 6.6.1 (8d0f1dd) compiled by 'conda@1efc2f54142f' on 2023-08-01
          program call               : xtb struc.xyz --opt loose --input .xc1 --gfn2

   ID    Z sym.   atoms
    1    6 C      1, 3, 5-7, 10, 11, 14
    2    7 N      2, 4, 9, 13
    3    8 O      8, 12
    4    1 H      15-25
constraining bond 13 25 to    5.0600000 Å, actual value:    2.8316178 Å

          :  Hamiltonian                  GFN2-xTB          :
 * total energy  :   -24.5150713 Eh     change       -0.6650680E-10 Eh
 * total energy  :   -32.7348836 Eh     change       -0.8219812E+01 Eh
 * total energy  :   -37.7239293 Eh     change       -0.4989046E+01 Eh
 * total energy  :   -40.4889509 Eh     change       -0.2765022E+01 Eh
 * total energy  :   -41.6102757 Eh     change       -0.1121325E+01 Eh
 * total energy  :   -41.7958690 Eh     change       -0.1855933E+00 Eh
 * total energy  :   -41.8147472 Eh     change       -0.1887823E-01 Eh
 * total energy  :   -41.8408797 Eh     change       -0.2613248E-01 Eh
 * total energy  :   -41.8575090 Eh     change       -0.1662934E-01 Eh
 * total energy  :   -41.8742845 Eh     change       -0.1677544E-01 Eh
 * total energy  :   -42.0942379 Eh     change       -0.4440186E-02 Eh
 * total energy  :   -42.1198871 Eh     change       -0.2564917E-01 Eh
 * total energy  :   -42.1299663 Eh     change       -0.1007922E-01 Eh
 * total energy  :   -42.1309927 Eh     change       -0.1026345E-02 Eh
 * total energy  :   -42.1313701 Eh     change       -0.3774400E-03 Eh
 * total energy  :   -42.1315336 Eh     change       -0.1635130E-03 Eh
 * total energy  :   -42.1316130 Eh     change       -0.7940912E-04 Eh
 * total energy  :   -42.1316656 Eh     change       -0.5252998E-04 Eh
 * total energy  :   -42.1317143 Eh     change       -0.4876928E-04 Eh
   *** GEOMETRY OPTIMIZATION CONVERGED AFTER 29 ITERATIONS ***

 final structure:
================
25
 xtb: 6.6.1 (8d0f1dd)
C            3.19004016332362        1.15593017833727        0.02401318210083
N            2.19276710643257        0.12338992363152        0.00992839481210
C            2.40352566006308       -1.21342682265008        0.00872187234367
N            1.29171691986453       -1.91244935509471        0.00669006112099
C            0.29242493160195       -1.00361595858902        0.00807434874004
C            0.84196868257647        0.28964228430020        0.00998728146269
C            0.01845557348647        1.47343412676721       -0.00151182662059
O            0.41657878401044        2.61626295174202       -0.01439263938495
N           -1.33876682277200        1.15114043548708        0.00017648237192
C           -2.29241575238486        2.24603911511740       -0.00895182041579
C           -1.90476896105645       -0.11623209665760        0.00605484240736
O           -3.09819828151120       -0.26804521544543        0.00909944465091
N           -1.03656994332006       -1.21539502583600        0.00745595449457
C           -1.58890419540729       -2.54901969702137        0.00985445287945
H            3.69944143752389        1.17653378469201        0.99009590068067
H            3.93135192087966        0.97177783797148       -0.75429930983901
H            2.71096810415606        2.12014932952329       -0.14343913395163
H            3.38170160846985       -1.65387493072726        0.00960742732994
H           -1.74123016370501        3.18460660036661       -0.00427311135776
H           -2.92430750227467        2.18112862336299       -0.89668758658099
H           -2.94062878325912        2.18081705460355        0.86688175496482
H           -1.23182719161667       -3.09465112509486        0.88401532140994
H           -1.27170377717161       -3.08373316915321       -0.88615253474964
H           -2.67423445238619       -2.46918753707046        0.03270560766236
H            2.83304644857868       -4.47298277096472       -0.14248274863126

          :  Hamiltonian                  GFN2-xTB          :
         :: total energy             -42.131714327367 Eh    ::
         :: gradient norm              0.003859262325 Eh/a0 ::
         :: HOMO-LUMO gap              0.691224444345 eV    ::
         :: SCC energy               -42.643387548695 Eh    ::
         :: -> dispersion             -0.022411449974 Eh    ::
         :: repulsion energy           0.511580594300 Eh    ::

    * Orbital Energies and Occupations

         #    Occupation            Energy/Eh            Energy/eV
      -------------------------------------------------------------
         1        2.0000           -0.8929373             -24.2981
       ...           ...                  ...                  ...
        25        1.9996           -0.6675359             -18.1646
        26        1.9991           -0.6568804             -17.8746
        27        1.9982           -0.6455109             -17.5652
        28        1.9976           -0.6409828             -17.4420
        29        1.9941           -0.6265454             -17.0492
        30        1.9890           -0.6165721             -16.7778
        31        1.9869           -0.6137590             -16.7012
        32        1.9780           -0.6055145             -16.4769
        33        1.9644           -0.5978020             -16.2670
        34        1.9152           -0.5836691             -15.8824
        35        1.8837           -0.5783996             -15.7391
        36        1.8756           -0.5772615             -15.7081
        37        1.5699           -0.5548050             -15.0970 (HOMO)
        38        0.8464           -0.5294029             -14.4058 (LUMO)
        39        0.0030           -0.4312754             -11.7356
        40        0.0002           -0.3893913             -10.5959
        41        0.0001           -0.3738381             -10.1727
        42        0.0000           -0.2949199              -8.0252
        43                         -0.2058083              -5.6003
        44                         -0.1581609              -4.3038
        45                         -0.1378066              -3.7499
        46                         -0.0800447              -2.1781
        47                         -0.0580629              -1.5800
        48                         -0.0379472              -1.0326
       ...                                ...                  ...
        67                          0.5358261              14.5806
      -------------------------------------------------------------
                  HL-Gap            0.0254020 Eh            0.6912 eV

     #   Z          covCN         q      C6AA      α(0)
     1   6 C        3.689    -0.082    22.268     6.754
     2   7 N        2.828     0.052    20.336     6.698
     3   6 C        3.189     0.096    25.417     8.224
     4   7 N        1.898    -0.207    26.336     7.608
     5   6 C        3.163     0.134    24.766     8.134
     6   6 C        3.123    -0.007    28.002     8.666
     7   6 C        2.763     0.274    22.375     7.746
     8   8 O        0.858    -0.330    20.340     6.047
     9   7 N        2.746    -0.068    22.561     7.055
    10   6 C        3.709    -0.062    21.842     6.680
    11   6 C        2.729     0.317    21.614     7.611
    12   8 O        0.860    -0.330    20.333     6.046
    13   7 N        2.739    -0.018    21.599     6.902
    14   6 C        3.700    -0.073    22.065     6.718
    15   1 H        0.924     0.110     1.700     2.039
    16   1 H        0.924     0.107     1.725     2.054
    17   1 H        0.925     0.126     1.566     1.957
    18   1 H        0.926     0.106     1.727     2.055
    19   1 H        0.925     0.123     1.592     1.973
    20   1 H        0.924     0.115     1.651     2.009
    21   1 H        0.924     0.116     1.648     2.007
    22   1 H        0.924     0.114     1.663     2.017
    23   1 H        0.924     0.114     1.663     2.017
    24   1 H        0.925     0.128     1.551     1.947
    25   1 H        0.000     0.147     3.518     3.430

Wiberg/Mayer (AO) data.
largest (>0.10) Wiberg bond orders for each atom

     #   Z sym  total        # sym  WBO       # sym  WBO       # sym  WBO
 ---------------------------------------------------------------------------
     1   6 C    3.904 --     2 N    0.994    17 H    0.960    16 H    0.957
                            15 H    0.948
     2   7 N    3.637 --     3 C    1.268     6 C    1.217     1 C    0.994
     3   6 C    3.869 --     4 N    1.489     2 N    1.268    18 H    0.954
     4   7 N    2.964 --     3 C    1.489     5 C    1.266
     5   6 C    3.900 --     4 N    1.266     6 C    1.254    13 N    1.210
     6   6 C    3.796 --     5 C    1.254     2 N    1.217     7 C    1.076
     7   6 C    3.946 --     8 O    1.673     9 N    1.100     6 C    1.076
     8   8 O    1.960 --     7 C    1.673     9 N    0.127
     9   7 N    3.502 --    11 C    1.109     7 C    1.100    10 C    0.979
                             8 O    0.127    12 O    0.117
    10   6 C    3.868 --     9 N    0.979    19 H    0.960    21 H    0.943
                            20 H    0.943
    11   6 C    3.951 --    12 O    1.684     9 N    1.109    13 N    1.067
    12   8 O    1.973 --    11 C    1.684     9 N    0.117    13 N    0.101
    13   7 N    3.482 --     5 C    1.210    11 C    1.067    14 C    0.983
                            12 O    0.101
    14   6 C    3.883 --    13 N    0.983    24 H    0.961    22 H    0.947
                            23 H    0.946
    15   1 H    0.974 --     1 C    0.948
    16   1 H    0.978 --     1 C    0.957
    17   1 H    0.978 --     1 C    0.960
    18   1 H    0.986 --     3 C    0.954
    19   1 H    0.978 --    10 C    0.960
    20   1 H    0.960 --    10 C    0.943
    21   1 H    0.961 --    10 C    0.943
    22   1 H    0.963 --    14 C    0.947
    23   1 H    0.962 --    14 C    0.946
    24   1 H    0.980 --    14 C    0.961
    25   1 H    0.007
 ---------------------------------------------------------------------------

molecular dipole:
                 x           y           z       tot (Debye)
 q only:        1.754      -1.559      -0.015
   full:        2.027      -1.440      -0.009       6.319

           -------------------------------------------------
          | TOTAL ENERGY              -42.131714327367 Eh   |
          | GRADIENT NORM               0.003859262325 Eh/α |
          | HOMO-LUMO GAP               0.691224444345 eV   |
           -------------------------------------------------

 * finished run on 2024/06/05 at 19:59:20.501
