   * xtb version 6.6.1 (8d0f1dd) compiled by 'conda@1efc2f54142f' on 2023-08-01
          program call               : xtb struc.xyz --opt loose --input .xc1 --gfn2

   ID    Z sym.   atoms
    1    6 C      1, 3, 5-7, 10, 11, 14
    2    7 N      2, 4, 9, 13
    3    8 O      8, 12
    4    1 H      15-25
constraining bond 22 23 to    3.2800000 Å, actual value:    1.7896004 Å

          :  Hamiltonian                  GFN2-xTB          :
 * total energy  :   -38.2790971 Eh     change       -0.6633627E-10 Eh
 * total energy  :   -40.3422098 Eh     change       -0.2063113E+01 Eh
 * total energy  :   -41.6556977 Eh     change       -0.1313488E+01 Eh
 * total energy  :   -42.0377078 Eh     change       -0.3820101E+00 Eh
 * total energy  :   -42.0635150 Eh     change       -0.2580724E-01 Eh
 * total energy  :   -42.0639584 Eh     change       -0.4433729E-03 Eh
 * total energy  :   -42.0650770 Eh     change       -0.1118594E-02 Eh
 * total energy  :   -42.0654137 Eh     change       -0.3367015E-03 Eh
 * total energy  :   -42.0657084 Eh     change       -0.2947295E-03 Eh
 * total energy  :   -42.0660430 Eh     change       -0.3346213E-03 Eh
 * total energy  :   -42.0668452 Eh     change       -0.3356767E-03 Eh
 * total energy  :   -42.0669911 Eh     change       -0.1459356E-03 Eh
 * total energy  :   -42.0670441 Eh     change       -0.5294661E-04 Eh
 * total energy  :   -42.0670814 Eh     change       -0.3729029E-04 Eh
 * total energy  :   -42.0671110 Eh     change       -0.2963114E-04 Eh
 * total energy  :   -42.0671284 Eh     change       -0.1737599E-04 Eh
 * total energy  :   -42.0671418 Eh     change       -0.1341946E-04 Eh
 * total energy  :   -42.0671552 Eh     change       -0.1341271E-04 Eh
 * total energy  :   -42.0671666 Eh     change       -0.1140343E-04 Eh
   *** GEOMETRY OPTIMIZATION CONVERGED AFTER 20 ITERATIONS ***

 final structure:
================
25
 xtb: 6.6.1 (8d0f1dd)
C            3.21733506787636        1.13423992009244        0.01835784170451
N            2.27246549412317        0.04747322715939        0.00022872817752
C            2.54466976953647       -1.24560959098785       -0.00845517772086
N            1.39833150124305       -1.95687248609025       -0.00864582886068
C            0.35711308056029       -1.07428953753648        0.00035210780153
C            0.90908613787376        0.19397369225451        0.00638590781121
C            0.07366674323119        1.38929109276313       -0.00286087730394
O            0.48163084726277        2.52354265737606       -0.01692210949827
N           -1.27434063181368        1.05302419313773        0.00153409956198
C           -2.23255825507628        2.15602718747204       -0.00227842385459
C           -1.84953975386129       -0.20633160975314        0.00480371377457
O           -3.03211259660741       -0.37973016405644        0.00858279762971
N           -0.96239364801178       -1.32560677021536        0.00180867363191
C           -1.47250505635383       -2.65178831727867       -0.00005522113282
H            3.71375954773970        1.18479303580058        0.98808489747997
H            3.96973126087174        0.99300587613812       -0.75578069745076
H            2.68191315795246        2.06857733021236       -0.15058892912831
H            3.53046753828614       -1.67016696517044       -0.01538436770240
H           -1.67192669200161        3.08723703701220        0.00510869687476
H           -2.85732122516844        2.09855975977040       -0.89208059925326
H           -2.87090097934856        2.09154095360191        0.87726586076292
H           -1.25153702746950       -3.05358864665531        1.61112744503220
H           -1.27204436313949       -3.04007081519489       -1.62763302366250
H           -2.55562965861388       -2.63409066121783        0.00478237719430
H            1.31307125500866       -2.96490185703420       -0.01656627396869

          :  Hamiltonian                  GFN2-xTB          :
         :: total energy             -42.067166611678 Eh    ::
         :: gradient norm              0.003806013645 Eh/a0 ::
         :: HOMO-LUMO gap              2.867811562390 eV    ::
         :: SCC energy               -42.569464360970 Eh    ::
         :: -> dispersion             -0.023809136083 Eh    ::
         :: repulsion energy           0.499110119013 Eh    ::

    * Orbital Energies and Occupations

         #    Occupation            Energy/Eh            Energy/eV
      -------------------------------------------------------------
         1        2.0000           -0.9223384             -25.0981
       ...           ...                  ...                  ...
        25        2.0000           -0.6636508             -18.0589
        26        2.0000           -0.6601150             -17.9626
        27        2.0000           -0.6521659             -17.7463
        28        2.0000           -0.6378881             -17.3578
        29        2.0000           -0.6275238             -17.0758
        30        2.0000           -0.6220754             -16.9275
        31        2.0000           -0.6024029             -16.3922
        32        2.0000           -0.5969533             -16.2439
        33        1.9999           -0.5803034             -15.7909
        34        1.9997           -0.5675840             -15.4447
        35        1.9995           -0.5639453             -15.3457
        36        1.9992           -0.5598885             -15.2353
        37        1.9975           -0.5504018             -14.9772 (HOMO)
        38        0.0026           -0.4450116             -12.1094 (LUMO)
        39        0.0014           -0.4398060             -11.9677
        40        0.0000           -0.4104758             -11.1696
        41        0.0000           -0.3778156             -10.2809
        42                         -0.3254430              -8.8558
        43                         -0.2788456              -7.5878
        44                         -0.2037279              -5.5437
        45                         -0.2008208              -5.4646
        46                         -0.1381186              -3.7584
        47                         -0.1309602              -3.5636
        48                         -0.0734972              -2.0000
       ...                                ...                  ...
        67                          0.5612947              15.2736
      -------------------------------------------------------------
                  HL-Gap            0.1053901 Eh            2.8678 eV

     #   Z          covCN         q      C6AA      α(0)
     1   6 C        3.692    -0.098    22.563     6.797
     2   7 N        2.840     0.095    19.597     6.575
     3   6 C        3.069     0.058    26.641     8.463
     4   7 N        2.802    -0.053    22.257     7.007
     5   6 C        3.054     0.117    25.379     8.262
     6   6 C        3.133    -0.025    28.408     8.725
     7   6 C        2.764     0.277    22.323     7.738
     8   8 O        0.858    -0.364    20.980     6.141
     9   7 N        2.745    -0.086    22.907     7.108
    10   6 C        3.710    -0.063    21.851     6.680
    11   6 C        2.725     0.316    21.631     7.614
    12   8 O        0.859    -0.351    20.717     6.102
    13   7 N        2.737    -0.060    22.405     7.030
    14   6 C        1.909    -0.036    32.071     9.146
    15   1 H        0.924     0.113     1.668     2.020
    16   1 H        0.925     0.109     1.706     2.042
    17   1 H        0.925     0.141     1.453     1.885
    18   1 H        0.926     0.131     1.524     1.930
    19   1 H        0.925     0.113     1.673     2.023
    20   1 H        0.925     0.097     1.817     2.108
    21   1 H        0.925     0.097     1.812     2.105
    22   1 H        0.030     0.060     5.483     4.281
    23   1 H        0.025     0.059     5.507     4.291
    24   1 H        0.925     0.114     1.659     2.014
    25   1 H        0.860     0.239     0.927     1.509

Wiberg/Mayer (AO) data.
largest (>0.10) Wiberg bond orders for each atom

     #   Z sym  total        # sym  WBO       # sym  WBO       # sym  WBO
 ---------------------------------------------------------------------------
     1   6 C    3.911 --     2 N    0.982    16 H    0.963    17 H    0.959
                            15 H    0.954
     2   7 N    3.734 --     3 C    1.426     6 C    1.175     1 C    0.982
     3   6 C    3.929 --     2 N    1.426     4 N    1.292    18 H    0.950
     4   7 N    3.617 --     3 C    1.292     5 C    1.190    25 H    0.914
     5   6 C    3.962 --     6 C    1.364    13 N    1.210     4 N    1.190
     6   6 C    3.936 --     5 C    1.364     2 N    1.175     7 C    1.048
     7   6 C    3.966 --     8 O    1.705     9 N    1.118     6 C    1.048
     8   8 O    2.071 --     7 C    1.705     9 N    0.159
     9   7 N    3.577 --    11 C    1.124     7 C    1.118    10 C    0.963
                             8 O    0.159    12 O    0.140
    10   6 C    3.918 --    19 H    0.969    21 H    0.968    20 H    0.968
                             9 N    0.963
    11   6 C    3.960 --    12 O    1.733     9 N    1.124    13 N    0.997
    12   8 O    2.091 --    11 C    1.733     9 N    0.140    13 N    0.119
    13   7 N    3.577 --     5 C    1.210    14 C    1.031    11 C    0.997
                            12 O    0.119
    14   6 C    3.820 --    13 N    1.031    24 H    0.968    22 H    0.889
                            23 H    0.887
    15   1 H    0.987 --     1 C    0.954
    16   1 H    0.987 --     1 C    0.963
    17   1 H    0.980 --     1 C    0.959
    18   1 H    0.982 --     3 C    0.950
    19   1 H    0.987 --    10 C    0.969
    20   1 H    0.990 --    10 C    0.968
    21   1 H    0.989 --    10 C    0.968
    22   1 H    0.989 --    14 C    0.889
    23   1 H    0.989 --    14 C    0.887
    24   1 H    0.986 --    14 C    0.968
    25   1 H    0.942 --     4 N    0.914
 ---------------------------------------------------------------------------

molecular dipole:
                 x           y           z       tot (Debye)
 q only:        2.837      -1.940       0.009
   full:        3.032      -2.373       0.014       9.785

           -------------------------------------------------
          | TOTAL ENERGY              -42.067166611678 Eh   |
          | GRADIENT NORM               0.003806013645 Eh/α |
          | HOMO-LUMO GAP               2.867811562390 eV   |
           -------------------------------------------------

 * finished run on 2024/06/05 at 19:58:08.060
