   * xtb version 6.6.1 (8d0f1dd) compiled by 'conda@1efc2f54142f' on 2023-08-01
          program call               : xtb xtbopt.xyz --opt crude --input .xc2 --gfn2

   ID    Z sym.   atoms
    1    6 C      1, 3, 5-7, 10, 11, 14
    2    7 N      2, 4, 9, 13
    3    8 O      8, 12
    4    1 H      15-25

          :  Hamiltonian                  GFN2-xTB          :
 * total energy  :   -42.0701895 Eh     change       -0.2131628E-13 Eh
 * total energy  :   -42.1604657 Eh     change       -0.9027620E-01 Eh
 * total energy  :   -42.2350431 Eh     change       -0.7457741E-01 Eh
 * total energy  :   -42.2413177 Eh     change       -0.6274550E-02 Eh
 * total energy  :   -42.2386713 Eh     change        0.2646410E-02 Eh
 * total energy  :   -42.2379996 Eh     change        0.6716762E-03 Eh
 * total energy  :   -42.2442969 Eh     change       -0.6297350E-02 Eh
 * total energy  :   -42.2413445 Eh     change        0.2952462E-02 Eh
 * total energy  :   -42.2446453 Eh     change       -0.3300796E-02 Eh
 * total energy  :   -42.2331758 Eh     change        0.1146949E-01 Eh
 * total energy  :   -42.2447184 Eh     change       -0.1154263E-01 Eh
 * total energy  :   -42.2434065 Eh     change        0.1311908E-02 Eh
 * total energy  :   -42.2451651 Eh     change       -0.1758608E-02 Eh
 * total energy  :   -42.2449095 Eh     change        0.2556682E-03 Eh
 * total energy  :   -42.2452778 Eh     change       -0.3683851E-03 Eh
   *** GEOMETRY OPTIMIZATION CONVERGED AFTER 15 ITERATIONS ***

 final structure:
================
25
 xtb: 6.6.1 (8d0f1dd)
C            3.21808911770350        1.13557946196253        0.01596982678940
N            2.27032691269861        0.05187711436242       -0.00103315972286
C            2.54130705073613       -1.24004815259766       -0.00943952773978
N            1.39314295792374       -1.95095374742027       -0.00825133737663
C            0.35243813809705       -1.06723487668110        0.00107634518570
C            0.90753291757694        0.20090262287864        0.00616742753351
C            0.07582109894688        1.39870151413025       -0.00272860047036
O            0.48675919638939        2.53188941860640       -0.01721543038886
N           -1.27249313640915        1.06682454874440        0.00276624503947
C           -2.23246305524124        2.16675911555556        0.00037778067521
C           -1.84914130998753       -0.19144682103927        0.00579821957398
O           -3.03310804025360       -0.36105436470165        0.01029010020401
N           -0.96635413360510       -1.30011936874879        0.00206870906084
C           -1.52007373794067       -2.64049937490210       -0.00180665574670
H            3.71679619948024        1.18488761378111        0.98475696805731
H            3.96965230920429        0.99393375167723       -0.75924882342970
H            2.68329178810509        2.07034130958868       -0.15161465665222
H            3.52433451527153       -1.67017244109485       -0.01698739007870
H           -1.67697924264805        3.10066135917860        0.00760408399435
H           -2.85870654585656        2.10604571298911       -0.88836736753243
H           -2.87050942940520        2.09816304978932        0.88004463912492
H           -1.22117031323068       -3.18162142886763        0.89708734496853
H           -1.19972716223670       -3.18269848144946       -0.89419762496749
H           -2.60497078709631       -2.54309694956184       -0.01669254577532
H            1.32663620587767       -2.95938204457995       -0.01525295242628

          :  Hamiltonian                  GFN2-xTB          :
         :: total energy             -42.245277841326 Eh    ::
         :: gradient norm              0.001984917635 Eh/a0 ::
         :: HOMO-LUMO gap              3.236630147679 eV    ::
         :: SCC energy               -42.776084705808 Eh    ::
         :: -> dispersion             -0.022661375250 Eh    ::
         :: repulsion energy           0.530692688163 Eh    ::

    * Orbital Energies and Occupations

         #    Occupation            Energy/Eh            Energy/eV
      -------------------------------------------------------------
         1        2.0000           -0.9218711             -25.0854
       ...           ...                  ...                  ...
        25        2.0000           -0.6686090             -18.1938
        26        2.0000           -0.6639123             -18.0660
        27        2.0000           -0.6556043             -17.8399
        28        2.0000           -0.6380873             -17.3632
        29        2.0000           -0.6305813             -17.1590
        30        2.0000           -0.6250849             -17.0094
        31        2.0000           -0.6246469             -16.9975
        32        2.0000           -0.6188464             -16.8397
        33        2.0000           -0.5946341             -16.1808
        34        1.9999           -0.5766414             -15.6912
        35        1.9996           -0.5616243             -15.2826
        36        1.9994           -0.5584587             -15.1964
        37        1.9993           -0.5575709             -15.1723 (HOMO)
        38        0.0017           -0.4386270             -11.9356 (LUMO)
        39        0.0000           -0.4060401             -11.0489
        40        0.0000           -0.3720729             -10.1246
        41                         -0.2883253              -7.8457
        42                         -0.2063649              -5.6155
        43                         -0.2020718              -5.4987
        44                         -0.1474819              -4.0132
        45                         -0.1320882              -3.5943
        46                         -0.0849254              -2.3109
        47                         -0.0497477              -1.3537
        48                         -0.0377378              -1.0269
       ...                                ...                  ...
        67                          0.5638450              15.3430
      -------------------------------------------------------------
                  HL-Gap            0.1189440 Eh            3.2366 eV

     #   Z          covCN         q      C6AA      α(0)
     1   6 C        3.692    -0.098    22.558     6.796
     2   7 N        2.839     0.096    19.587     6.573
     3   6 C        3.068     0.056    26.670     8.468
     4   7 N        2.802    -0.057    22.337     7.020
     5   6 C        3.047     0.117    25.380     8.263
     6   6 C        3.134    -0.026    28.430     8.728
     7   6 C        2.764     0.276    22.328     7.738
     8   8 O        0.858    -0.367    21.031     6.149
     9   7 N        2.745    -0.086    22.923     7.111
    10   6 C        3.711    -0.063    21.842     6.679
    11   6 C        2.728     0.319    21.584     7.606
    12   8 O        0.859    -0.355    20.803     6.115
    13   7 N        2.738    -0.061    22.415     7.032
    14   6 C        3.696    -0.072    22.058     6.719
    15   1 H        0.924     0.113     1.672     2.022
    16   1 H        0.925     0.108     1.710     2.045
    17   1 H        0.925     0.141     1.453     1.885
    18   1 H        0.926     0.130     1.537     1.939
    19   1 H        0.925     0.111     1.685     2.030
    20   1 H        0.925     0.096     1.819     2.109
    21   1 H        0.925     0.097     1.815     2.107
    22   1 H        0.924     0.081     1.965     2.192
    23   1 H        0.924     0.080     1.976     2.198
    24   1 H        0.925     0.129     1.544     1.943
    25   1 H        0.860     0.233     0.951     1.528

Wiberg/Mayer (AO) data.
largest (>0.10) Wiberg bond orders for each atom

     #   Z sym  total        # sym  WBO       # sym  WBO       # sym  WBO
 ---------------------------------------------------------------------------
     1   6 C    3.911 --     2 N    0.982    16 H    0.963    17 H    0.959
                            15 H    0.954
     2   7 N    3.735 --     3 C    1.429     6 C    1.174     1 C    0.982
     3   6 C    3.928 --     2 N    1.429     4 N    1.284    18 H    0.951
     4   7 N    3.610 --     3 C    1.284     5 C    1.187    25 H    0.917
     5   6 C    3.962 --     6 C    1.357    13 N    1.228     4 N    1.187
     6   6 C    3.934 --     5 C    1.357     2 N    1.174     7 C    1.049
     7   6 C    3.966 --     8 O    1.703     9 N    1.120     6 C    1.049
     8   8 O    2.073 --     7 C    1.703     9 N    0.160
     9   7 N    3.578 --    11 C    1.121     7 C    1.120    10 C    0.965
                             8 O    0.160    12 O    0.139
    10   6 C    3.920 --    19 H    0.970    21 H    0.968    20 H    0.968
                             9 N    0.965
    11   6 C    3.960 --    12 O    1.724     9 N    1.121    13 N    1.024
    12   8 O    2.084 --    11 C    1.724     9 N    0.139    13 N    0.124
    13   7 N    3.567 --     5 C    1.228    11 C    1.024    14 C    0.973
                            12 O    0.124
    14   6 C    3.926 --    13 N    0.973    23 H    0.972    22 H    0.972
                            24 H    0.963
    15   1 H    0.987 --     1 C    0.954
    16   1 H    0.988 --     1 C    0.963
    17   1 H    0.980 --     1 C    0.959
    18   1 H    0.982 --     3 C    0.951
    19   1 H    0.987 --    10 C    0.970
    20   1 H    0.990 --    10 C    0.968
    21   1 H    0.990 --    10 C    0.968
    22   1 H    0.992 --    14 C    0.972
    23   1 H    0.992 --    14 C    0.972
    24   1 H    0.983 --    14 C    0.963
    25   1 H    0.945 --     4 N    0.917
 ---------------------------------------------------------------------------

molecular dipole:
                 x           y           z       tot (Debye)
 q only:        2.751      -2.066       0.005
   full:        3.060      -2.606       0.009      10.216

           -------------------------------------------------
          | TOTAL ENERGY              -42.245277841326 Eh   |
          | GRADIENT NORM               0.001984917635 Eh/α |
          | HOMO-LUMO GAP               3.236630147679 eV   |
           -------------------------------------------------

 * finished run on 2024/06/05 at 19:58:08.615
