   * xtb version 6.6.1 (8d0f1dd) compiled by 'conda@1efc2f54142f' on 2023-08-01
          program call               : xtb xtbopt.xyz --opt crude --input .xc2 --gfn2

   ID    Z sym.   atoms
    1    6 C      1, 3, 5-7, 10, 11, 14
    2    7 N      2, 4, 9, 13
    3    8 O      8, 12
    4    1 H      15-25
########################################################################
[WARNING] Please study the warnings concerning your input carefully
-1- readin_getIntValue: could not parse ''
########################################################################

          :  Hamiltonian                  GFN2-xTB          :
 * total energy  :   -42.1990827 Eh     change       -0.2700062E-12 Eh
   *** GEOMETRY OPTIMIZATION CONVERGED AFTER 1 ITERATIONS ***

 final structure:
================
25
 xtb: 6.6.1 (8d0f1dd)
C            3.41728274857456        0.70759724455148        0.06908949504131
N            2.45415125722284       -0.19931512587295        0.02824126789589
C            2.57866561307267       -1.54647296192102       -0.01906699656024
N            1.33841414123440       -2.13285696463602       -0.05230007106876
C            0.40815728767678       -1.16754796234530       -0.02860145633312
C            1.07432218306288        0.07429637050754        0.02206396943250
C            0.32196496103409        1.24540959671148        0.05184183448099
O            0.86196717599297        2.45560002167279        0.10984390872137
N           -1.04689924555351        1.09760385748231        0.01761718468087
C           -1.88384984588099        2.29119814025539        0.00156816976137
C           -1.73109499548107       -0.12936400410916       -0.00382426313984
O           -2.92930064832336       -0.18149074156880       -0.00290339467673
N           -0.94518476530106       -1.27518822778318       -0.02985556903369
C           -1.59057032738087       -2.57331374097123       -0.06666530399194
H            3.15855420152524        1.74455395057431        0.11174358005589
H            4.43870228112757        0.38501233977343        0.06521920635763
H            0.20208324057285        3.17442211157521        0.12455435651986
H            3.50400323127744       -2.07804669762723       -0.02989253935159
H           -1.64754758905173        2.91443870982692       -0.86210594658239
H           -2.91853600163453        1.95930665801498       -0.09374962525214
H           -1.78701005737080        2.85440676884596        0.93262589518739
H           -1.29487601699991       -3.16771288488797        0.79785881848980
H           -1.33512329200284       -3.09723046147010       -0.98763337641434
H           -2.66650553915627       -2.40979341670551       -0.03622907143345
H            1.17866151595107       -3.12727403830940       -0.08826845487359

          :  Hamiltonian                  GFN2-xTB          :
         :: total energy             -42.199082697634 Eh    ::
         :: gradient norm              0.008003990051 Eh/a0 ::
         :: HOMO-LUMO gap              1.421320559221 eV    ::
         :: SCC energy               -42.720074656586 Eh    ::
         :: -> dispersion             -0.023007572074 Eh    ::
         :: repulsion energy           0.520874716067 Eh    ::

    * Orbital Energies and Occupations

         #    Occupation            Energy/Eh            Energy/eV
      -------------------------------------------------------------
         1        2.0000           -0.8974422             -24.4206
       ...           ...                  ...                  ...
        25        2.0000           -0.6645321             -18.0828
        26        2.0000           -0.6596217             -17.9492
        27        2.0000           -0.6564787             -17.8637
        28        2.0000           -0.6498523             -17.6834
        29        2.0000           -0.6457933             -17.5729
        30        2.0000           -0.6225700             -16.9410
        31        1.9999           -0.6185491             -16.8316
        32        1.9999           -0.6087230             -16.5642
        33        1.9998           -0.6034949             -16.4219
        34        1.9996           -0.5900162             -16.0552
        35        1.9991           -0.5748190             -15.6416
        36        1.9966           -0.5544512             -15.0874
        37        1.6668           -0.4789456             -13.0328 (HOMO)
        38        0.3119           -0.4267131             -11.6115 (LUMO)
        39        0.0232           -0.3830993             -10.4247
        40        0.0031           -0.3508335              -9.5467
        41        0.0001           -0.2884184              -7.8483
        42        0.0000           -0.2082134              -5.6658
        43                         -0.1667614              -4.5378
        44                         -0.1360781              -3.7029
        45                         -0.1225364              -3.3344
        46                         -0.1149259              -3.1273
        47                         -0.0649825              -1.7683
        48                         -0.0461346              -1.2554
       ...                                ...                  ...
        67                          0.5317116              14.4686
      -------------------------------------------------------------
                  HL-Gap            0.0522326 Eh            1.4213 eV

     #   Z          covCN         q      C6AA      α(0)
     1   6 C        2.790    -0.103    30.582     9.059
     2   7 N        2.795     0.117    19.242     6.515
     3   6 C        3.028    -0.009    28.213     8.713
     4   7 N        2.768    -0.061    22.421     7.033
     5   6 C        3.020     0.099    25.794     8.331
     6   6 C        3.085    -0.020    28.406     8.737
     7   6 C        2.773     0.200    23.742     7.980
     8   8 O        1.659    -0.328    19.511     5.963
     9   7 N        2.743    -0.085    22.903     7.108
    10   6 C        3.701    -0.072    22.033     6.712
    11   6 C        2.722     0.315    21.639     7.615
    12   8 O        0.859    -0.372    21.125     6.162
    13   7 N        2.737    -0.058    22.356     7.022
    14   6 C        3.699    -0.071    22.033     6.713
    15   1 H        0.927     0.099     1.792     2.093
    16   1 H        0.926     0.088     1.894     2.152
    17   1 H        0.804     0.353     0.582     1.198
    18   1 H        0.927     0.105     1.742     2.064
    19   1 H        0.924     0.082     1.960     2.189
    20   1 H        0.924     0.130     1.535     1.938
    21   1 H        0.924     0.083     1.945     2.181
    22   1 H        0.925     0.083     1.951     2.184
    23   1 H        0.925     0.083     1.945     2.181
    24   1 H        0.925     0.124     1.584     1.968
    25   1 H        0.860     0.218     1.018     1.581

Wiberg/Mayer (AO) data.
largest (>0.10) Wiberg bond orders for each atom

     #   Z sym  total        # sym  WBO       # sym  WBO       # sym  WBO
 ---------------------------------------------------------------------------
     1   6 C    3.580 --     2 N    1.347    16 H    0.970    15 H    0.968
                             3 C    0.162
     2   7 N    3.733 --     1 C    1.347     3 C    1.233     6 C    1.065
     3   6 C    3.681 --     2 N    1.233     4 N    1.176    18 H    0.960
                             1 C    0.162
     4   7 N    3.550 --     5 C    1.262     3 C    1.176    25 H    0.924
     5   6 C    3.849 --     4 N    1.262     6 C    1.232    13 N    1.162
     6   6 C    3.906 --     7 C    1.310     5 C    1.232     2 N    1.065
     7   6 C    3.750 --     6 C    1.310     9 N    1.161     8 O    1.160
     8   8 O    2.177 --     7 C    1.160    17 H    0.836
     9   7 N    3.498 --     7 C    1.161    11 C    1.066    10 C    0.976
                            12 O    0.128
    10   6 C    3.928 --     9 N    0.976    19 H    0.968    21 H    0.967
                            20 H    0.959
    11   6 C    3.944 --    12 O    1.698    13 N    1.090     9 N    1.066
    12   8 O    2.058 --    11 C    1.698    13 N    0.134     9 N    0.128
    13   7 N    3.510 --     5 C    1.162    11 C    1.090    14 C    0.974
                            12 O    0.134
    14   6 C    3.927 --    13 N    0.974    22 H    0.971    23 H    0.970
                            24 H    0.966
    15   1 H    0.990 --     1 C    0.968
    16   1 H    0.991 --     1 C    0.970
    17   1 H    0.875 --     8 O    0.836
    18   1 H    0.988 --     3 C    0.960
    19   1 H    0.989 --    10 C    0.968
    20   1 H    0.983 --    10 C    0.959
    21   1 H    0.988 --    10 C    0.967
    22   1 H    0.989 --    14 C    0.971
    23   1 H    0.989 --    14 C    0.970
    24   1 H    0.984 --    14 C    0.966
    25   1 H    0.952 --     4 N    0.924
 ---------------------------------------------------------------------------

molecular dipole:
                 x           y           z       tot (Debye)
 q only:        1.425      -0.491      -0.023
   full:        1.508      -0.577      -0.028       4.103

           -------------------------------------------------
          | TOTAL ENERGY              -42.199082697634 Eh   |
          | GRADIENT NORM               0.008003990051 Eh/α |
          | HOMO-LUMO GAP               1.421320559221 eV   |
           -------------------------------------------------

 * finished run on 2024/06/05 at 19:57:54.103
