   * xtb version 6.6.1 (8d0f1dd) compiled by 'conda@1efc2f54142f' on 2023-08-01
          program call               : xtb struc.xyz --opt loose --input .xc1 --gfn2

   ID    Z sym.   atoms
    1    7 N      1, 17
    2    6 C      2-6, 8, 9, 11-16, 18-23, 25, 26, 28-33
    3    8 O      7, 10, 24, 27
    4    1 H      34-72
constraining bond 17 20 to    5.9200000 Å, actual value:    3.7707446 Å

          :  Hamiltonian                  GFN2-xTB          :
 * total energy  :   -98.5793403 Eh     change       -0.4035485E-08 Eh
 * total energy  :   -98.8205279 Eh     change       -0.2411876E+00 Eh
 * total energy  :   -98.9538291 Eh     change       -0.1333012E+00 Eh
 * total energy  :   -99.0219031 Eh     change       -0.6807403E-01 Eh
 * total energy  :   -99.0611419 Eh     change       -0.3923875E-01 Eh
 * total energy  :   -99.0920236 Eh     change       -0.3088172E-01 Eh
 * total energy  :   -99.1239903 Eh     change       -0.3196665E-01 Eh
 * total energy  :   -99.1632914 Eh     change       -0.3930113E-01 Eh
 * total energy  :   -99.1861126 Eh     change       -0.2282119E-01 Eh
 * total energy  :   -99.1990750 Eh     change       -0.1296239E-01 Eh
 * total energy  :   -99.3444321 Eh     change       -0.1729790E-03 Eh
 * total energy  :   -99.3445933 Eh     change       -0.1612540E-03 Eh
 * total energy  :   -99.3447264 Eh     change       -0.1330746E-03 Eh
 * total energy  :   -99.3448186 Eh     change       -0.9214069E-04 Eh
 * total energy  :   -99.3449016 Eh     change       -0.8304094E-04 Eh
 * total energy  :   -99.3449796 Eh     change       -0.7801866E-04 Eh
 * total energy  :   -99.3450477 Eh     change       -0.6810246E-04 Eh
 * total energy  :   -99.3451009 Eh     change       -0.5317093E-04 Eh
 * total energy  :   -99.3451424 Eh     change       -0.4153652E-04 Eh
   *** GEOMETRY OPTIMIZATION CONVERGED AFTER 58 ITERATIONS ***

 final structure:
================
72
 xtb: 6.6.1 (8d0f1dd)
N           -2.39597571394123        2.08668773191323        2.48201807086130
C           -2.39341762503705        2.40772739139610        1.27099089487352
C           -3.46858925124555        1.99405920445109        0.30266583519717
C           -3.96221117047953        0.56506945745066        0.47021848972582
C           -4.92758198835770        0.09319131752069       -0.42427629155112
C           -5.41176404404967       -1.20292381369309       -0.35853383560448
O           -6.33347437756736       -1.73278407228139       -1.19071178230050
C           -6.92020761408881       -0.91852692233592       -2.17801312647584
C           -4.91945069814279       -2.08251394743106        0.64436926027970
O           -5.43634179982448       -3.32659248304255        0.63498679143111
C           -5.02020058765157       -4.24687464187429        1.61676597863546
C           -3.96628931760434       -1.60490406968036        1.53147865479926
C           -3.49387237819825       -0.30393073436842        1.44301404341173
C           -2.94342851557724        2.18629138454387       -1.14293269028384
C           -2.13603771376212        0.99675358473727       -1.67341464192058
C           -0.97413306388773        0.63594633409224       -0.79851019328197
N           -0.55807764067294       -0.49999878110959       -0.46723984065651
C            3.76180743329970        0.04889747022292       -1.15849683299073
C            4.43370551252577       -0.49058149025371       -2.35213120936199
C            5.30192912845363       -0.05291483744208       -1.15251464418730
C            6.06333235411486        1.17031276433584       -1.28836871248506
C            7.28626760708282        1.31760588589326       -0.70513965119340
C            7.86055972677370        0.28797419305379        0.05767485263436
O            9.04667204928498        0.33986338463905        0.66075982329638
C            9.83192641421607        1.51020247171739        0.57565472866911
C            7.13832327017663       -0.94431425848141        0.22803340124830
O            7.77937182519711       -1.86165951740737        0.97855989783505
C            7.16791998590710       -3.11386776267471        1.19115740234068
C            5.91155934473895       -1.09975818631088       -0.34759062154375
C           -1.15503296895113       -1.73628892394049       -0.86918464973860
C           -4.68060802859415        2.95739417197213        0.56388568730018
C           -5.36626066959589        2.63148535171260        1.88666928425382
C           -4.27802627414963        4.43106995793505        0.53528899933984
H           -5.31020832850374        0.75127135685696       -1.18684242542805
H           -7.43314160111281       -0.05875759361092       -1.73637950470968
H           -7.64743910815566       -1.55069272699669       -2.68372399333583
H           -6.17928085784943       -0.56989898811254       -2.90506670270688
H           -5.26070704704401       -3.89374507393381        2.62382442947416
H           -5.57295047530421       -5.16168413628496        1.41267031053037
H           -3.94665687526236       -4.44791126956283        1.54754692092914
H           -3.57746065250211       -2.24428525050185        2.30688703069073
H           -2.76217013141481        0.03145403925004        2.15764948562099
H           -3.78310369905233        2.35291325604631       -1.81941905500393
H           -2.31946685608923        3.08097905522871       -1.18207247426647
H           -2.78049165513648        0.12764918062368       -1.80928967246620
H           -1.73070266904892        1.26495937020483       -2.65488826955969
H           -1.64555604020132        3.08657395498177        0.84024840589032
H           -0.38904981462354        1.47066517789748       -0.42336013451335
H            3.23025811172415       -0.62373220001621       -0.50366171332509
H            3.34893755844861        1.04503562410788       -1.19697379826164
H            4.50187870759224        0.11935479115420       -3.23911128839439
H            4.39034468229913       -1.55077567282180       -2.54485026691349
H            5.64060761931025        1.97230916273981       -1.87238997792287
H            7.82319035098983        2.24343479196646       -0.83579195672230
H            9.30909668583869        2.37211517076342        1.00063808958795
H           10.11694480123691        1.72545144737649       -0.45826761539425
H           10.72618734345290        1.30469397761759        1.16149495140853
H            7.86806231899145       -3.68066449458014        1.80120611940998
H            6.22041213742230       -3.00950417696166        1.72823678733529
H            6.99966077557160       -3.64050188943996        0.24695086443605
H            5.35329426390391       -2.01337828241914       -0.22719078123473
H           -0.90109076914450       -1.95575810372836       -1.90880624189588
H           -2.24402387741628       -1.73717072458864       -0.76853652036547
H           -0.73840941763054       -2.52172090263620       -0.23892835270793
H           -5.39875534538437        2.78979104886697       -0.24526355449983
H           -4.65039459768315        2.66410097354958        2.70426434449563
H           -5.80865162354826        1.63919935979241        1.86422002127234
H           -6.15243466912533        3.35602737271850        2.08240642610465
H           -3.63117308649832        4.67407828733167        1.37465746514700
H           -3.77125782954847        4.69452145767939       -0.38942692175166
H           -5.17008362463688        5.04834226066691        0.61251517088674
H           -1.66009231850351        2.46730227554207        3.06895586777311

          :  Hamiltonian                  GFN2-xTB          :
         :: total energy             -99.345142444015 Eh    ::
         :: gradient norm              0.001865619913 Eh/a0 ::
         :: HOMO-LUMO gap              1.354830831945 eV    ::
         :: SCC energy              -100.735135312579 Eh    ::
         :: -> dispersion             -0.070962409398 Eh    ::
         :: repulsion energy           1.388454417298 Eh    ::

    * Orbital Energies and Occupations

         #    Occupation            Energy/Eh            Energy/eV
      -------------------------------------------------------------
         1        2.0000           -0.8229104             -22.3925
       ...           ...                  ...                  ...
        78        1.9983           -0.5289306             -14.3929
        79        1.9978           -0.5249682             -14.2851
        80        1.9970           -0.5202076             -14.1556
        81        1.9958           -0.5148587             -14.0100
        82        1.9953           -0.5131174             -13.9626
        83        1.9946           -0.5107810             -13.8991
        84        1.9936           -0.5080168             -13.8238
        85        1.9915           -0.5035819             -13.7032
        86        1.9657           -0.4812971             -13.0968
        87        1.9615           -0.4794372             -13.0461
        88        1.9028           -0.4642954             -12.6341
        89        1.8802           -0.4608025             -12.5391
        90        1.7859           -0.4507928             -12.2667 (HOMO)
        91        0.5289           -0.4010037             -10.9119 (LUMO)
        92        0.0110           -0.3348589              -9.1120
        93        0.0048           -0.3218243              -8.7573
        94        0.0039           -0.3183840              -8.6637
        95        0.0019           -0.3071377              -8.3576
        96        0.0014           -0.3021587              -8.2222
        97        0.0000           -0.2430733              -6.6144
        98        0.0000           -0.1808561              -4.9213
        99                         -0.1341795              -3.6512
       100                         -0.0725755              -1.9749
       101                         -0.0637849              -1.7357
       ...                                ...                  ...
       171                          0.5825645              15.8524
      -------------------------------------------------------------
                  HL-Gap            0.0497891 Eh            1.3548 eV

     #   Z          covCN         q      C6AA      α(0)
     1   7 N        1.774    -0.276    27.982     7.833
     2   6 C        2.825     0.103    25.720     8.310
     3   6 C        3.907     0.007    20.402     6.420
     4   6 C        2.970     0.016    27.647     8.625
     5   6 C        2.922    -0.077    29.918     8.970
     6   6 C        2.861     0.129    25.163     8.222
     7   8 O        1.706    -0.228    17.779     5.693
     8   6 C        3.644     0.028    20.439     6.498
     9   6 C        2.864     0.131    25.133     8.218
    10   8 O        1.706    -0.224    17.711     5.682
    11   6 C        3.646     0.026    20.476     6.503
    12   6 C        2.914    -0.067    29.671     8.932
    13   6 C        2.921    -0.043    29.069     8.842
    14   6 C        3.808    -0.062    21.687     6.629
    15   6 C        3.802    -0.072    21.869     6.658
    16   6 C        2.836     0.070    26.430     8.425
    17   7 N        1.820    -0.197    26.099     7.570
    18   6 C        3.806    -0.056    21.575     6.612
    19   6 C        3.806    -0.055    21.553     6.609
    20   6 C        3.919     0.035    19.924     6.344
    21   6 C        2.909    -0.035    28.866     8.810
    22   6 C        2.903    -0.064    29.586     8.919
    23   6 C        2.864     0.142    24.899     8.179
    24   8 O        1.706    -0.193    17.218     5.602
    25   6 C        3.645     0.018    20.605     6.524
    26   6 C        2.853     0.135    25.044     8.202
    27   8 O        1.706    -0.230    17.808     5.698
    28   6 C        3.646     0.024    20.502     6.507
    29   6 C        2.907    -0.078    29.947     8.973
    30   6 C        3.703    -0.032    21.300     6.599
    31   6 C        3.857    -0.007    20.665     6.465
    32   6 C        3.755    -0.117    22.791     6.807
    33   6 C        3.754    -0.111    22.683     6.791
    34   1 H        0.926     0.052     2.297     2.370
    35   1 H        0.924     0.054     2.272     2.357
    36   1 H        0.925     0.081     1.969     2.194
    37   1 H        0.924     0.049     2.334     2.389
    38   1 H        0.924     0.057     2.230     2.335
    39   1 H        0.925     0.081     1.966     2.193
    40   1 H        0.924     0.052     2.291     2.367
    41   1 H        0.926     0.058     2.220     2.330
    42   1 H        0.926     0.076     2.017     2.221
    43   1 H        0.924     0.048     2.342     2.393
    44   1 H        0.924     0.044     2.394     2.420
    45   1 H        0.924     0.052     2.300     2.371
    46   1 H        0.924     0.064     2.158     2.297
    47   1 H        0.923     0.018     2.759     2.598
    48   1 H        0.925     0.049     2.330     2.387
    49   1 H        0.926     0.070     2.089     2.260
    50   1 H        0.926     0.064     2.155     2.296
    51   1 H        0.926     0.067     2.120     2.277
    52   1 H        0.926     0.067     2.114     2.274
    53   1 H        0.926     0.063     2.159     2.298
    54   1 H        0.926     0.068     2.112     2.273
    55   1 H        0.924     0.063     2.161     2.299
    56   1 H        0.924     0.065     2.147     2.291
    57   1 H        0.925     0.090     1.877     2.142
    58   1 H        0.925     0.084     1.934     2.175
    59   1 H        0.924     0.053     2.289     2.366
    60   1 H        0.924     0.053     2.279     2.361
    61   1 H        0.926     0.063     2.164     2.300
    62   1 H        0.924     0.058     2.221     2.330
    63   1 H        0.924     0.042     2.424     2.435
    64   1 H        0.925     0.061     2.188     2.313
    65   1 H        0.924     0.042     2.419     2.432
    66   1 H        0.925     0.061     2.185     2.312
    67   1 H        0.925     0.042     2.418     2.432
    68   1 H        0.925     0.052     2.289     2.366
    69   1 H        0.925     0.041     2.429     2.437
    70   1 H        0.925     0.039     2.458     2.452
    71   1 H        0.925     0.052     2.290     2.367
    72   1 H        0.860     0.159     1.341     1.814

Wiberg/Mayer (AO) data.
largest (>0.10) Wiberg bond orders for each atom

     #   Z sym  total        # sym  WBO       # sym  WBO       # sym  WBO
 ---------------------------------------------------------------------------
     1   7 N    3.010 --     2 C    1.935    72 H    0.940
     2   6 C    3.941 --     1 N    1.935     3 C    1.002    47 H    0.930
     3   6 C    3.973 --     2 C    1.002     4 C    0.979    14 C    0.971
                            31 C    0.913
     4   6 C    3.925 --    13 C    1.405     5 C    1.368     3 C    0.979
     5   6 C    3.951 --     6 C    1.398     4 C    1.368    34 H    0.957
     6   6 C    3.885 --     5 C    1.398     9 C    1.214     7 O    1.098
     7   8 O    2.241 --     6 C    1.098     8 C    0.979
     8   6 C    3.931 --     7 O    0.979    36 H    0.977    35 H    0.973
                            37 H    0.973
     9   6 C    3.879 --    12 C    1.382     6 C    1.214    10 O    1.106
    10   8 O    2.242 --     9 C    1.106    11 C    0.977
    11   6 C    3.929 --    10 O    0.977    39 H    0.977    40 H    0.972
                            38 H    0.972
    12   6 C    3.951 --    13 C    1.413     9 C    1.382    41 H    0.962
    13   6 C    3.926 --    12 C    1.413     4 C    1.405    42 H    0.949
    14   6 C    3.985 --    15 C    0.995     3 C    0.971    44 H    0.970
                            43 H    0.970
    15   6 C    3.971 --    16 C    1.004    14 C    0.995    45 H    0.962
                            46 H    0.942
    16   6 C    3.951 --    17 N    1.902    15 C    1.004    48 H    0.947
    17   7 N    3.044 --    16 C    1.902    30 C    1.035
    18   6 C    3.863 --    19 C    1.031    50 H    0.975    49 H    0.974
                            20 C    0.825
    19   6 C    3.857 --    18 C    1.031    51 H    0.975    52 H    0.974
                            20 C    0.819
    20   6 C    3.937 --    21 C    1.123    29 C    1.104    18 C    0.825
                            19 C    0.819
    21   6 C    3.790 --    22 C    1.572    20 C    1.123    53 H    0.966
    22   6 C    3.979 --    21 C    1.572    23 C    1.288    54 H    0.960
    23   6 C    3.741 --    22 C    1.288    24 O    1.162    26 C    1.154
    24   8 O    2.280 --    23 C    1.162    25 C    0.967
    25   6 C    3.921 --    57 H    0.976    55 H    0.971    56 H    0.971
                            24 O    0.967
    26   6 C    3.935 --    29 C    1.529    23 C    1.154    27 O    1.101
    27   8 O    2.266 --    26 C    1.101    28 C    0.975
    28   6 C    3.930 --    58 H    0.977    27 O    0.975    60 H    0.974
                            59 H    0.974
    29   6 C    3.829 --    26 C    1.529    20 C    1.104    61 H    0.961
    30   6 C    3.971 --    17 N    1.035    64 H    0.976    62 H    0.959
                            63 H    0.958
    31   6 C    3.975 --    32 C    1.012    33 C    1.008    65 H    0.957
                             3 C    0.913
    32   6 C    3.982 --    31 C    1.012    67 H    0.981    68 H    0.980
                            66 H    0.973
    33   6 C    3.988 --    31 C    1.008    70 H    0.983    69 H    0.983
                            71 H    0.981
    34   1 H    0.995 --     5 C    0.957
    35   1 H    0.992 --     8 C    0.973
    36   1 H    0.993 --     8 C    0.977
    37   1 H    0.992 --     8 C    0.973
    38   1 H    0.990 --    11 C    0.972
    39   1 H    0.993 --    11 C    0.977
    40   1 H    0.991 --    11 C    0.972
    41   1 H    0.994 --    12 C    0.962
    42   1 H    0.991 --    13 C    0.949
    43   1 H    0.994 --    14 C    0.970
    44   1 H    0.996 --    14 C    0.970
    45   1 H    0.996 --    15 C    0.962
    46   1 H    0.994 --    15 C    0.942
    47   1 H    0.978 --     2 C    0.930
    48   1 H    0.990 --    16 C    0.947
    49   1 H    0.993 --    18 C    0.974
    50   1 H    0.993 --    18 C    0.975
    51   1 H    0.993 --    19 C    0.975
    52   1 H    0.993 --    19 C    0.974
    53   1 H    0.996 --    21 C    0.966
    54   1 H    0.994 --    22 C    0.960
    55   1 H    0.990 --    25 C    0.971
    56   1 H    0.990 --    25 C    0.971
    57   1 H    0.991 --    25 C    0.976
    58   1 H    0.992 --    28 C    0.977
    59   1 H    0.995 --    28 C    0.974
    60   1 H    0.995 --    28 C    0.974
    61   1 H    0.995 --    29 C    0.961
    62   1 H    0.993 --    30 C    0.959
    63   1 H    0.989 --    30 C    0.958
    64   1 H    0.990 --    30 C    0.976
    65   1 H    0.993 --    31 C    0.957
    66   1 H    0.993 --    32 C    0.973
    67   1 H    0.996 --    32 C    0.981
    68   1 H    0.995 --    32 C    0.980
    69   1 H    0.997 --    33 C    0.983
    70   1 H    0.997 --    33 C    0.983
    71   1 H    0.995 --    33 C    0.981
    72   1 H    0.967 --     1 N    0.940
 ---------------------------------------------------------------------------

molecular dipole:
                 x           y           z       tot (Debye)
 q only:        2.508       0.235      -0.731
   full:        2.496       0.718      -1.138       7.206

           -------------------------------------------------
          | TOTAL ENERGY              -99.345142444015 Eh   |
          | GRADIENT NORM               0.001865619913 Eh/α |
          | HOMO-LUMO GAP               1.354830831945 eV   |
           -------------------------------------------------

 * finished run on 2024/04/06 at 11:13:33.102
