   * xtb version 6.6.1 (8d0f1dd) compiled by 'conda@1efc2f54142f' on 2023-08-01
          program call               : xtb struc.xyz --opt loose --input .xc1 --gfn2

   ID    Z sym.   atoms
    1    7 N      1, 17
    2    6 C      2-6, 8, 9, 11-16, 18-23, 25, 26, 28-33
    3    8 O      7, 10, 24, 27
    4    1 H      34-72
constraining bond 7 9 to    4.7600000 Å, actual value:    2.3393834 Å

          :  Hamiltonian                  GFN2-xTB          :
 * total energy  :   -98.3579190 Eh     change       -0.4035485E-08 Eh
 * total energy  :   -98.5917984 Eh     change       -0.2338794E+00 Eh
 * total energy  :   -98.7411139 Eh     change       -0.1493155E+00 Eh
 * total energy  :   -98.8433742 Eh     change       -0.1022603E+00 Eh
 * total energy  :   -98.9219335 Eh     change       -0.7855935E-01 Eh
 * total energy  :   -98.9828832 Eh     change       -0.6094969E-01 Eh
 * total energy  :   -99.0305102 Eh     change       -0.4762702E-01 Eh
 * total energy  :   -99.0652252 Eh     change       -0.3471497E-01 Eh
 * total energy  :   -99.0903216 Eh     change       -0.2509637E-01 Eh
 * total energy  :   -99.1131085 Eh     change       -0.2278688E-01 Eh
 * total energy  :   -99.2648435 Eh     change       -0.6783217E-04 Eh
 * total energy  :   -99.2648982 Eh     change       -0.5470010E-04 Eh
 * total energy  :   -99.2649955 Eh     change       -0.9730025E-04 Eh
 * total energy  :   -99.2650723 Eh     change       -0.7680356E-04 Eh
 * total energy  :   -99.2651543 Eh     change       -0.8201017E-04 Eh
 * total energy  :   -99.2652053 Eh     change       -0.5102130E-04 Eh
 * total energy  :   -99.2652552 Eh     change       -0.4993878E-04 Eh
 * total energy  :   -99.2653047 Eh     change       -0.4944514E-04 Eh
 * total energy  :   -99.2653420 Eh     change       -0.3726885E-04 Eh
   *** GEOMETRY OPTIMIZATION CONVERGED AFTER 60 ITERATIONS ***

 final structure:
================
72
 xtb: 6.6.1 (8d0f1dd)
N           -1.92773595517026        3.00013092432361        2.07419477341771
C           -1.87694751136175        2.11805082778670        1.19230570049415
C           -3.02124290465473        1.74481380880884        0.29343462204541
C           -3.35855628720234        0.28357086534492        0.49706623525473
C           -4.13898177363165       -0.40457977303972       -0.44412481143949
C           -4.47081915838707       -1.67347629404924       -0.23589648675634
O           -4.94846768353345        0.65000685470187       -2.71917983844876
C           -6.18252155841912        0.26953173082668       -3.09924237054995
C           -4.15969618856807       -2.45261172795996        0.84830839686982
O           -4.57579406737859       -3.72426615915861        0.93452068939097
C           -4.31606822476909       -4.46218088320091        2.10719344567336
C           -3.37894506133963       -1.77238886836732        1.80198297074992
C           -2.99902633932525       -0.45084770986735        1.62238805064583
C           -2.53812709544446        1.99605456686001       -1.15823570313680
C           -1.55306968068503        0.95087535692253       -1.71070318659237
C           -0.21963045389057        0.97529488471114       -1.08263744534278
N            0.45373129892046       -0.08374147688800       -0.66941402408617
C            1.83730948738117        0.03365232201572       -0.27035992320100
C            2.79232758814571       -0.38916974547354       -1.40387374565840
C            4.21644856559783       -0.16542256150751       -0.97869092332561
C            4.83016983652546        1.05927088120183       -1.19094229590590
C            6.13021614799234        1.28534081622520       -0.76757092992288
C            6.84419634338977        0.28881603166520       -0.11639813880580
O            8.10285086694427        0.39616339492262        0.34227507910899
C            8.79984426136293        1.60899800210473        0.16921793803338
C            6.22398195781568       -0.97393517278478        0.10235861516667
O            6.99006284058158       -1.88440472526112        0.73193683043632
C            6.47870723340654       -3.17424968720731        0.97030680273631
C            4.92144678046922       -1.17495068452971       -0.32819815001479
C           -0.11807626392891       -1.40991676108080       -0.69179651310018
C           -4.32171198002266        2.56607670540147        0.54690332485476
C           -4.86613081893720        2.34533558393076        1.95581376307839
C           -4.14427781846284        4.05992303087852        0.29308537441434
H           -4.48603389249951        0.09879221599194       -1.38665852588533
H           -6.94736158923027        0.53397096772037       -2.34635464907586
H           -6.24388711387674       -0.81920580560400       -3.28463744187209
H           -6.45351033869899        0.78270644935531       -4.03890000889451
H           -4.74949470616141       -3.97850455417808        2.98752061523572
H           -4.79230839284790       -5.42873865057293        1.95559290556109
H           -3.24212357229445       -4.60921094893919        2.25975588533188
H           -3.08045111173632       -2.28458084650144        2.70412220051193
H           -2.42199320365282        0.02357252584602        2.40334280817707
H           -3.40800032931631        1.98534512100664       -1.81479973215902
H           -2.08075713439003        2.98451306437498       -1.20730499992735
H           -2.00779400381065       -0.03583636286729       -1.67324587772920
H           -1.41517712406632        1.20560278048988       -2.76900564663471
H           -0.96272551976266        1.54318448823365        0.94862234313369
H            0.30255462282298        1.92147798290886       -1.05187792613527
H            2.01349774392183       -0.59299071219269        0.60769367042931
H            2.04983363911442        1.06992840422262        0.00087927984624
H            2.57020772211473        0.20861019737354       -2.28942276059539
H            2.63114192189298       -1.44002226941577       -1.64656668225396
H            4.29943102287633        1.84773775770946       -1.70250024855095
H            6.58313514287315        2.24513478955579       -0.95403376968770
H            8.29581162126967        2.43596343217521        0.67845759247683
H            8.92346401117170        1.85212637984734       -0.89016357619296
H            9.77769996076043        1.45010908348692        0.61959179106942
H            7.27742795043498       -3.71643877353880        1.47257321996445
H            5.59886114950543       -3.14337989458810        1.62085463485103
H            6.22685190939036       -3.68472477387547        0.03569458735751
H            4.44535553066661       -2.13042816411243       -0.17263358096374
H           -0.27896099820792       -1.75410949614135       -1.71517169271509
H           -1.07531450890779       -1.42021673626469       -0.16647591915796
H            0.55805278042419       -2.10090653437778       -0.19492997677005
H           -5.05857343490118        2.18292339561590       -0.16788637319869
H           -4.17481397543381        2.74644355534561        2.69093373876581
H           -5.02687646883798        1.28914610544956        2.15849383518623
H           -5.81785511087638        2.85877809558592        2.06205444877624
H           -3.35490552614084        4.45950970671498        0.92302238505104
H           -3.91756397709282        4.26837708930718       -0.74847966537281
H           -5.06895222235846        4.57472478677583        0.54055975263231
H           -1.08684326060159        3.19899131235533        2.60652007592886

          :  Hamiltonian                  GFN2-xTB          :
         :: total energy             -99.265341966207 Eh    ::
         :: gradient norm              0.002404367497 Eh/a0 ::
         :: HOMO-LUMO gap              1.034906137893 eV    ::
         :: SCC energy              -100.650555331010 Eh    ::
         :: -> dispersion             -0.074130692466 Eh    ::
         :: repulsion energy           1.383711416416 Eh    ::

    * Orbital Energies and Occupations

         #    Occupation            Energy/Eh            Energy/eV
      -------------------------------------------------------------
         1        2.0000           -0.8154452             -22.1894
       ...           ...                  ...                  ...
        78        1.9970           -0.5285814             -14.3834
        79        1.9967           -0.5271668             -14.3449
        80        1.9965           -0.5260165             -14.3136
        81        1.9935           -0.5164179             -14.0524
        82        1.9924           -0.5139363             -13.9849
        83        1.9902           -0.5098039             -13.8725
        84        1.9882           -0.5068840             -13.7930
        85        1.9751           -0.4948909             -13.4667
        86        1.9284           -0.4778058             -13.0018
        87        1.9092           -0.4739037             -12.8956
        88        1.8176           -0.4620738             -12.5737
        89        1.7683           -0.4578451             -12.4586
        90        1.6751           -0.4516381             -12.2897 (HOMO)
        91        0.6365           -0.4136060             -11.2548 (LUMO)
        92        0.3292           -0.3999468             -10.8831
        93        0.0106           -0.3427760              -9.3274
        94        0.0031           -0.3232673              -8.7966
        95        0.0024           -0.3188748              -8.6770
        96        0.0022           -0.3175784              -8.6417
        97        0.0020           -0.3166543              -8.6166
        98        0.0000           -0.1942280              -5.2852
        99        0.0000           -0.1884740              -5.1286
       100                         -0.1414715              -3.8496
       101                         -0.0704123              -1.9160
       ...                                ...                  ...
       171                          0.6050229              16.4635
      -------------------------------------------------------------
                  HL-Gap            0.0380321 Eh            1.0349 eV

     #   Z          covCN         q      C6AA      α(0)
     1   7 N        1.774    -0.265    27.692     7.793
     2   6 C        2.827     0.103    25.712     8.309
     3   6 C        3.907     0.010    20.357     6.413
     4   6 C        2.988     0.012    27.744     8.640
     5   6 C        2.922    -0.050    29.230     8.866
     6   6 C        2.035    -0.049    32.320     9.182
     7   8 O        0.869    -0.473    23.193     6.457
     8   6 C        3.621     0.078    19.720     6.402
     9   6 C        2.859     0.164    24.454     8.105
    10   8 O        1.705    -0.228    17.788     5.694
    11   6 C        3.645     0.027    20.450     6.499
    12   6 C        2.944    -0.072    29.787     8.951
    13   6 C        2.925    -0.047    29.174     8.858
    14   6 C        3.812    -0.077    21.955     6.669
    15   6 C        3.803    -0.074    21.921     6.666
    16   6 C        2.845     0.018    27.609     8.611
    17   7 N        2.729     0.020    20.908     6.791
    18   6 C        3.757    -0.018    20.949     6.526
    19   6 C        3.808    -0.071    21.852     6.654
    20   6 C        2.969     0.001    27.996     8.679
    21   6 C        2.922    -0.048    29.184     8.859
    22   6 C        2.913    -0.067    29.657     8.930
    23   6 C        2.864     0.135    25.050     8.204
    24   8 O        1.706    -0.217    17.611     5.666
    25   6 C        3.645     0.024    20.513     6.509
    26   6 C        2.862     0.134    25.061     8.206
    27   8 O        1.706    -0.221    17.664     5.674
    28   6 C        3.645     0.026    20.475     6.504
    29   6 C        2.919    -0.079    29.974     8.978
    30   6 C        3.701    -0.073    22.058     6.716
    31   6 C        3.854    -0.010    20.711     6.473
    32   6 C        3.756    -0.118    22.806     6.809
    33   6 C        3.755    -0.120    22.862     6.818
    34   1 H        0.934     0.190     1.148     1.675
    35   1 H        0.922     0.040     2.454     2.450
    36   1 H        0.922     0.042     2.422     2.434
    37   1 H        0.923     0.063     2.170     2.303
    38   1 H        0.924     0.056     2.247     2.344
    39   1 H        0.925     0.082     1.958     2.188
    40   1 H        0.924     0.049     2.333     2.389
    41   1 H        0.926     0.059     2.210     2.325
    42   1 H        0.926     0.048     2.345     2.395
    43   1 H        0.925     0.109     1.708     2.044
    44   1 H        0.924     0.056     2.249     2.345
    45   1 H        0.925     0.079     1.989     2.205
    46   1 H        0.924     0.098     1.801     2.099
    47   1 H        0.922     0.003     3.015     2.715
    48   1 H        0.926     0.075     2.036     2.231
    49   1 H        0.924     0.069     2.096     2.264
    50   1 H        0.924     0.069     2.098     2.265
    51   1 H        0.924     0.058     2.227     2.333
    52   1 H        0.924     0.058     2.224     2.332
    53   1 H        0.926     0.048     2.346     2.395
    54   1 H        0.926     0.061     2.188     2.313
    55   1 H        0.924     0.056     2.245     2.343
    56   1 H        0.924     0.058     2.218     2.329
    57   1 H        0.925     0.084     1.934     2.175
    58   1 H        0.925     0.084     1.940     2.178
    59   1 H        0.924     0.050     2.321     2.382
    60   1 H        0.924     0.055     2.262     2.352
    61   1 H        0.926     0.049     2.333     2.388
    62   1 H        0.924     0.084     1.940     2.178
    63   1 H        0.924     0.081     1.967     2.193
    64   1 H        0.925     0.081     1.964     2.192
    65   1 H        0.924     0.056     2.246     2.343
    66   1 H        0.925     0.066     2.128     2.281
    67   1 H        0.925     0.035     2.520     2.482
    68   1 H        0.925     0.054     2.274     2.358
    69   1 H        0.925     0.062     2.171     2.304
    70   1 H        0.925     0.043     2.406     2.425
    71   1 H        0.925     0.058     2.227     2.334
    72   1 H        0.860     0.158     1.345     1.817

Wiberg/Mayer (AO) data.
largest (>0.10) Wiberg bond orders for each atom

     #   Z sym  total        # sym  WBO       # sym  WBO       # sym  WBO
 ---------------------------------------------------------------------------
     1   7 N    3.033 --     2 C    1.955    72 H    0.940
     2   6 C    3.933 --     1 N    1.955     3 C    0.992    47 H    0.907
     3   6 C    3.964 --     2 C    0.992     4 C    0.972    14 C    0.952
                            31 C    0.935
     4   6 C    3.887 --    13 C    1.408     5 C    1.282     3 C    0.972
     5   6 C    3.841 --     6 C    1.633     4 C    1.282    34 H    0.731
                            12 C    0.100
     6   6 C    3.291 --     5 C    1.633     9 C    1.336
     7   8 O    1.410 --     8 C    1.125    34 H    0.166
     8   6 C    3.905 --     7 O    1.125    35 H    0.928    36 H    0.927
                            37 H    0.912
     9   6 C    3.886 --     6 C    1.336    12 C    1.294    10 O    1.107
    10   8 O    2.261 --     9 C    1.107    11 C    0.974
    11   6 C    3.929 --    39 H    0.976    38 H    0.974    40 H    0.974
                            10 O    0.974
    12   6 C    3.908 --    13 C    1.445     9 C    1.294    41 H    0.951
                             5 C    0.100
    13   6 C    3.967 --    12 C    1.445     4 C    1.408    42 H    0.955
    14   6 C    3.959 --    15 C    0.974    44 H    0.972     3 C    0.952
                            43 H    0.950
    15   6 C    3.981 --    16 C    1.072    14 C    0.974    45 H    0.958
                            46 H    0.914
    16   6 C    3.638 --    17 N    1.436    15 C    1.072    48 H    0.956
    17   7 N    3.514 --    16 C    1.436    30 C    0.996    18 C    0.986
    18   6 C    3.954 --    17 N    0.986    50 H    0.967    19 C    0.966
                            49 H    0.964
    19   6 C    3.977 --    20 C    1.008    52 H    0.972    51 H    0.971
                            18 C    0.966
    20   6 C    3.939 --    21 C    1.404    29 C    1.382    19 C    1.008
    21   6 C    3.945 --    22 C    1.420    20 C    1.404    53 H    0.968
    22   6 C    3.956 --    21 C    1.420    23 C    1.379    54 H    0.963
    23   6 C    3.889 --    22 C    1.379    26 C    1.215    24 O    1.116
    24   8 O    2.256 --    23 C    1.116    25 C    0.975
    25   6 C    3.925 --    57 H    0.976    24 O    0.975    55 H    0.972
                            56 H    0.972
    26   6 C    3.893 --    29 C    1.392    23 C    1.215    27 O    1.109
    27   8 O    2.255 --    26 C    1.109    28 C    0.977
    28   6 C    3.930 --    27 O    0.977    58 H    0.976    59 H    0.973
                            60 H    0.973
    29   6 C    3.956 --    26 C    1.392    20 C    1.382    61 H    0.962
    30   6 C    3.955 --    17 N    0.996    64 H    0.977    62 H    0.965
                            63 H    0.964
    31   6 C    3.962 --    32 C    1.008    33 C    1.007    65 H    0.955
                             3 C    0.935
    32   6 C    3.974 --    31 C    1.008    67 H    0.980    68 H    0.980
                            66 H    0.973
    33   6 C    3.973 --    31 C    1.007    70 H    0.981    71 H    0.978
                            69 H    0.973
    34   1 H    0.937 --     5 C    0.731     7 O    0.166
    35   1 H    0.939 --     8 C    0.928
    36   1 H    0.938 --     8 C    0.927
    37   1 H    0.926 --     8 C    0.912
    38   1 H    0.993 --    11 C    0.974
    39   1 H    0.992 --    11 C    0.976
    40   1 H    0.994 --    11 C    0.974
    41   1 H    0.982 --    12 C    0.951
    42   1 H    0.988 --    13 C    0.955
    43   1 H    0.986 --    14 C    0.950
    44   1 H    0.995 --    14 C    0.972
    45   1 H    0.993 --    15 C    0.958
    46   1 H    0.968 --    15 C    0.914
    47   1 H    0.983 --     2 C    0.907
    48   1 H    0.994 --    16 C    0.956
    49   1 H    0.991 --    18 C    0.964
    50   1 H    0.994 --    18 C    0.967
    51   1 H    0.995 --    19 C    0.971
    52   1 H    0.995 --    19 C    0.972
    53   1 H    0.997 --    21 C    0.968
    54   1 H    0.994 --    22 C    0.963
    55   1 H    0.991 --    25 C    0.972
    56   1 H    0.990 --    25 C    0.972
    57   1 H    0.992 --    25 C    0.976
    58   1 H    0.992 --    28 C    0.976
    59   1 H    0.992 --    28 C    0.973
    60   1 H    0.992 --    28 C    0.973
    61   1 H    0.996 --    29 C    0.962
    62   1 H    0.985 --    30 C    0.965
    63   1 H    0.988 --    30 C    0.964
    64   1 H    0.993 --    30 C    0.977
    65   1 H    0.986 --    31 C    0.955
    66   1 H    0.989 --    32 C    0.973
    67   1 H    0.995 --    32 C    0.980
    68   1 H    0.992 --    32 C    0.980
    69   1 H    0.990 --    33 C    0.973
    70   1 H    0.994 --    33 C    0.981
    71   1 H    0.991 --    33 C    0.978
    72   1 H    0.968 --     1 N    0.940
 ---------------------------------------------------------------------------

molecular dipole:
                 x           y           z       tot (Debye)
 q only:        1.878      -0.432       0.406
   full:        1.995      -0.696       0.396       5.464

           -------------------------------------------------
          | TOTAL ENERGY              -99.265341966207 Eh   |
          | GRADIENT NORM               0.002404367497 Eh/α |
          | HOMO-LUMO GAP               1.034906137893 eV   |
           -------------------------------------------------

 * finished run on 2024/04/06 at 11:12:46.978
