   * xtb version 6.6.1 (8d0f1dd) compiled by 'conda@1efc2f54142f' on 2023-08-01
          program call               : xtb struc.xyz --opt loose --input .xc1 --gfn2

   ID    Z sym.   atoms
    1    6 C      1, 3, 5-7, 10, 11, 14
    2    7 N      2, 4, 9, 13
    3    8 O      8, 12
    4    1 H      15-25
constraining bond 1 2 to    3.9200000 Å, actual value:    1.4397841 Å

          :  Hamiltonian                  GFN2-xTB          :
 * total energy  :   -31.2616348 Eh     change       -0.6633627E-10 Eh
 * total energy  :   -35.2507308 Eh     change       -0.3989096E+01 Eh
 * total energy  :   -38.4802782 Eh     change       -0.3229547E+01 Eh
 * total energy  :   -40.4095936 Eh     change       -0.1929315E+01 Eh
 * total energy  :   -41.2701365 Eh     change       -0.8605428E+00 Eh
 * total energy  :   -41.4210672 Eh     change       -0.1509308E+00 Eh
 * total energy  :   -41.4798834 Eh     change       -0.5881614E-01 Eh
 * total energy  :   -41.5594102 Eh     change       -0.7952678E-01 Eh
 * total energy  :   -41.6240362 Eh     change       -0.6462607E-01 Eh
 * total energy  :   -41.6613778 Eh     change       -0.3734161E-01 Eh
 * total energy  :   -42.1090549 Eh     change       -0.1763377E-03 Eh
 * total energy  :   -42.1093012 Eh     change       -0.2462208E-03 Eh
 * total energy  :   -42.1094790 Eh     change       -0.1778523E-03 Eh
 * total energy  :   -42.1096501 Eh     change       -0.1710776E-03 Eh
 * total energy  :   -42.1097048 Eh     change       -0.5475883E-04 Eh
 * total energy  :   -42.1098791 Eh     change       -0.1742240E-03 Eh
 * total energy  :   -42.1099733 Eh     change       -0.9418413E-04 Eh
 * total energy  :   -42.1100564 Eh     change       -0.8311777E-04 Eh
 * total energy  :   -42.1101042 Eh     change       -0.4787185E-04 Eh
   *** GEOMETRY OPTIMIZATION CONVERGED AFTER 55 ITERATIONS ***

 final structure:
================
25
 xtb: 6.6.1 (8d0f1dd)
C            3.81888184455287        2.88403893296542        0.25660026888260
N            2.22158305463809       -0.66699583983828       -0.20171492728852
C            2.26773787664933       -1.96731397175430       -0.22529774476073
N            1.02251809232821       -2.53552126381999       -0.16700868574841
C            0.13977122176412       -1.50628442039262       -0.10567823532194
C            0.91309191064841       -0.33388483382656       -0.12789231767141
C            0.28150196923888        0.96652277983297       -0.07581442409828
O            0.85064937177706        2.03504605191524       -0.09824617672944
N           -1.10652775341982        0.87069784967653        0.01074646064393
C           -1.86878242894593        2.11090139129279        0.07691052898764
C           -1.87737628915588       -0.27427776932582        0.03926664555934
O           -3.07452197507699       -0.24762026832252        0.11904996317017
N           -1.19627661922666       -1.51467839911334       -0.02800778179843
C           -1.96928988116811       -2.73637791939078       -0.01122311614340
H            4.13052169770816        3.09392990402693        1.26434080363505
H            4.53812248491221        2.93843191232606       -0.54032987290971
H            2.78804622364627        2.63080908747849        0.04773052585180
H            3.17134655600298       -2.54081082919142       -0.28077317671853
H           -1.17152562656837        2.94181475348998        0.00811744181629
H           -2.58520113182706        2.14797222048723       -0.74308507894470
H           -2.42004378242315        2.15642235217339        1.01585096559275
H           -1.68054713893379       -3.35772859808597        0.83782835978947
H           -1.82368277170177       -3.29032048889614       -0.93964459607342
H           -3.01995851208822       -2.46377144655813        0.08250511994139
H            0.81039312077218       -3.52276264555339       -0.18305933176026

          :  Hamiltonian                  GFN2-xTB          :
         :: total energy             -42.110104247657 Eh    ::
         :: gradient norm              0.003188340364 Eh/a0 ::
         :: HOMO-LUMO gap              0.508905278039 eV    ::
         :: SCC energy               -42.634327509782 Eh    ::
         :: -> dispersion             -0.021076123937 Eh    ::
         :: repulsion energy           0.524142344378 Eh    ::

    * Orbital Energies and Occupations

         #    Occupation            Energy/Eh            Energy/eV
      -------------------------------------------------------------
         1        2.0000           -0.8838700             -24.0513
       ...           ...                  ...                  ...
        25        2.0000           -0.6526869             -17.7605
        26        2.0000           -0.6417398             -17.4626
        27        2.0000           -0.6328541             -17.2208
        28        2.0000           -0.6308533             -17.1664
        29        2.0000           -0.6264688             -17.0471
        30        2.0000           -0.6215282             -16.9126
        31        1.9998           -0.6063696             -16.5002
        32        1.9996           -0.6011014             -16.3568
        33        1.9964           -0.5828889             -15.8612
        34        1.9677           -0.5654552             -15.3868
        35        1.9540           -0.5625884             -15.3088
        36        1.9164           -0.5577025             -15.1759
        37        1.6083           -0.5440906             -14.8055 (HOMO)
        38        0.5578           -0.5253886             -14.2966 (LUMO)
        39        0.0000           -0.4067752             -11.0689
        40                         -0.3882734             -10.5655
        41                         -0.3589859              -9.7685
        42                         -0.2776430              -7.5550
        43                         -0.1976362              -5.3780
        44                         -0.1542504              -4.1974
        45                         -0.1282624              -3.4902
        46                         -0.0695227              -1.8918
        47                         -0.0449098              -1.2221
        48                         -0.0332578              -0.9050
       ...                                ...                  ...
        67                          0.5565741              15.1452
      -------------------------------------------------------------
                  HL-Gap            0.0187019 Eh            0.5089 eV

     #   Z          covCN         q      C6AA      α(0)
     1   6 C        2.778    -0.054    29.316     8.868
     2   7 N        1.900    -0.177    25.640     7.507
     3   6 C        3.162     0.109    25.292     8.220
     4   7 N        2.786    -0.083    22.845     7.099
     5   6 C        3.052     0.117    25.387     8.263
     6   6 C        3.209     0.027    26.784     8.425
     7   6 C        2.764     0.274    22.363     7.744
     8   8 O        0.858    -0.358    20.859     6.123
     9   7 N        2.744    -0.080    22.803     7.092
    10   6 C        3.711    -0.061    21.815     6.675
    11   6 C        2.730     0.319    21.578     7.605
    12   8 O        0.859    -0.348    20.665     6.095
    13   7 N        2.737    -0.041    22.042     6.973
    14   6 C        3.697    -0.070    22.022     6.713
    15   1 H        0.926     0.150     1.394     1.846
    16   1 H        0.926     0.151     1.384     1.840
    17   1 H        0.925     0.182     1.195     1.709
    18   1 H        0.926     0.107     1.724     2.053
    19   1 H        0.925     0.111     1.689     2.033
    20   1 H        0.925     0.101     1.774     2.083
    21   1 H        0.925     0.100     1.785     2.089
    22   1 H        0.924     0.091     1.871     2.139
    23   1 H        0.924     0.092     1.859     2.132
    24   1 H        0.925     0.128     1.551     1.947
    25   1 H        0.860     0.214     1.036     1.595

Wiberg/Mayer (AO) data.
largest (>0.10) Wiberg bond orders for each atom

     #   Z sym  total        # sym  WBO       # sym  WBO       # sym  WBO
 ---------------------------------------------------------------------------
     1   6 C    2.910 --    15 H    0.976    16 H    0.975    17 H    0.947
     2   7 N    3.014 --     3 C    1.546     6 C    1.289
     3   6 C    3.828 --     2 N    1.546     4 N    1.215    18 H    0.956
     4   7 N    3.582 --     5 C    1.220     3 C    1.215    25 H    0.924
     5   6 C    3.890 --     6 C    1.257    13 N    1.234     4 N    1.220
     6   6 C    3.820 --     2 N    1.289     5 C    1.257     7 C    1.066
     7   6 C    3.950 --     8 O    1.674     9 N    1.108     6 C    1.066
     8   8 O    1.993 --     7 C    1.674     9 N    0.135
     9   7 N    3.545 --    11 C    1.131     7 C    1.108    10 C    0.970
                             8 O    0.135    12 O    0.130
    10   6 C    3.906 --     9 N    0.970    19 H    0.969    20 H    0.961
                            21 H    0.960
    11   6 C    3.954 --    12 O    1.703     9 N    1.131    13 N    1.028
    12   8 O    2.018 --    11 C    1.703     9 N    0.130    13 N    0.104
    13   7 N    3.483 --     5 C    1.234    11 C    1.028    14 C    0.981
                            12 O    0.104
    14   6 C    3.914 --    13 N    0.981    24 H    0.963    22 H    0.961
                            23 H    0.960
    15   1 H    0.977 --     1 C    0.976
    16   1 H    0.977 --     1 C    0.975
    17   1 H    0.967 --     1 C    0.947
    18   1 H    0.987 --     3 C    0.956
    19   1 H    0.987 --    10 C    0.969
    20   1 H    0.980 --    10 C    0.961
    21   1 H    0.979 --    10 C    0.960
    22   1 H    0.978 --    14 C    0.961
    23   1 H    0.977 --    14 C    0.960
    24   1 H    0.983 --    14 C    0.963
    25   1 H    0.953 --     4 N    0.924
 ---------------------------------------------------------------------------

molecular dipole:
                 x           y           z       tot (Debye)
 q only:        2.308      -0.831       0.098
   full:        2.192      -1.557       0.086       6.837

           -------------------------------------------------
          | TOTAL ENERGY              -42.110104247657 Eh   |
          | GRADIENT NORM               0.003188340364 Eh/α |
          | HOMO-LUMO GAP               0.508905278039 eV   |
           -------------------------------------------------

 * finished run on 2024/06/05 at 19:57:53.655
