   * xtb version 6.6.1 (8d0f1dd) compiled by 'conda@1efc2f54142f' on 2023-08-01
          program call               : xtb struc.xyz --opt loose --input .xc1 --gfn2

   ID    Z sym.   atoms
    1    7 N      1, 17
    2    6 C      2-6, 8, 9, 11-16, 18-23, 25, 26, 28-33
    3    8 O      7, 10, 24, 27
    4    1 H      34-72
constraining bond 2 44 to    5.1400000 Å, actual value:    2.5801936 Å

          :  Hamiltonian                  GFN2-xTB          :
 * total energy  :   -98.2341416 Eh     change       -0.4035485E-08 Eh
 * total energy  :   -98.6464227 Eh     change       -0.4122811E+00 Eh
 * total energy  :   -98.9124923 Eh     change       -0.2660696E+00 Eh
 * total energy  :   -99.0506411 Eh     change       -0.1381488E+00 Eh
 * total energy  :   -99.1166571 Eh     change       -0.6601598E-01 Eh
 * total energy  :   -99.1518359 Eh     change       -0.3517889E-01 Eh
 * total energy  :   -99.1775283 Eh     change       -0.2569232E-01 Eh
 * total energy  :   -99.1998918 Eh     change       -0.2236353E-01 Eh
 * total energy  :   -99.2178106 Eh     change       -0.1791878E-01 Eh
 * total energy  :   -99.2314105 Eh     change       -0.1359995E-01 Eh
 * total energy  :   -99.3485646 Eh     change       -0.2214795E-03 Eh
 * total energy  :   -99.3487797 Eh     change       -0.2151205E-03 Eh
 * total energy  :   -99.3489351 Eh     change       -0.1553963E-03 Eh
 * total energy  :   -99.3491007 Eh     change       -0.1656727E-03 Eh
 * total energy  :   -99.3492293 Eh     change       -0.1285339E-03 Eh
 * total energy  :   -99.3493611 Eh     change       -0.1318637E-03 Eh
 * total energy  :   -99.3494645 Eh     change       -0.1033771E-03 Eh
 * total energy  :   -99.3495330 Eh     change       -0.6843239E-04 Eh
 * total energy  :   -99.3495765 Eh     change       -0.4355383E-04 Eh
   *** GEOMETRY OPTIMIZATION CONVERGED AFTER 95 ITERATIONS ***

 final structure:
================
72
 xtb: 6.6.1 (8d0f1dd)
N           -1.37037700640038        1.73977037533436        1.98060185633031
C           -1.85191538922265        0.80894762383348        1.29414838219897
C           -3.00233326384185        0.98464151866792        0.34016080630680
C           -4.04238277520640       -0.07950888906409        0.71401004260703
C           -4.95691015483453       -0.58230209274457       -0.20891132103822
C           -5.90264383274434       -1.53019692403170        0.15199924477234
O           -6.81100297139453       -2.07626945486308       -0.68081730602079
C           -6.81936003375818       -1.70465201652339       -2.03914048467550
C           -5.95719304248050       -1.99628330967594        1.49322431436622
O           -6.90238461049530       -2.91812327446392        1.74873770584191
C           -7.03847994363785       -3.41864526556338        3.05889418045570
C           -5.05687649229280       -1.47570739997552        2.41082449746771
C           -4.11653178502696       -0.53346775751517        2.02528812485993
C           -2.57138360690712        0.78014213386110       -1.08371740637052
C           -1.37384984695089        0.43986414868272       -1.63779310539041
C           -0.11766649205992        0.33946644525405       -1.02621212599906
N            0.95147466402763       -0.23128616883811       -1.58334048734385
C            2.24636724849650       -0.18044089750650       -0.95030393503258
C            3.28218528486908        0.58392882121151       -1.79367083362596
C            4.59908318209163        0.66585052837177       -1.07190088258047
C            5.10767465929434        1.88238246847320       -0.64807567287052
C            6.32891606811112        1.95433945400377        0.00476020790205
C            7.06072175476542        0.80499120455490        0.26635897645558
O            8.25128663578004        0.75560114103602        0.89019695539413
C            8.86453686517625        1.95631409702793        1.29955543922851
C            6.53873916775492       -0.45206388234271       -0.14885360634567
O            7.30167580627899       -1.51954379548026        0.15807527235498
C            6.85772067656447       -2.80856234027901       -0.19147433873240
C            5.32655396928629       -0.49581221909442       -0.81844829788963
C            0.86763198258320       -0.91737299366354       -2.84947937340208
C           -3.69517956407683        2.38605176647472        0.41576451109283
C           -4.23843732893775        2.70246676579909        1.80333963733523
C           -2.75150186300720        3.49249388026585       -0.04666437121265
H           -4.94694643591390       -0.23275255040963       -1.22648295551513
H           -7.04652740968544       -0.64075217875495       -2.16590673856316
H           -7.60965657164400       -2.29589888249744       -2.49809667534948
H           -5.86513358462757       -1.93731923830769       -2.52525125037769
H           -7.29160230038549       -2.62401158583155        3.76646697743381
H           -7.85623777261291       -4.13483104999166        3.01332940092428
H           -6.12846855795665       -3.92699719649559        3.39071390819415
H           -5.07970934659456       -1.79694841658732        3.43904029092081
H           -3.44791970704403       -0.14064308864177        2.77544477664517
H           -3.37866972107056        0.92035258794918       -1.78790429772527
H            0.66514523054834        3.38947077638248       -2.36926844834136
H           -1.39855875594152        0.25216517087232       -2.70382543948497
H            0.34845663685375        2.78303735361448       -1.99359283407912
H           -1.50220105683442       -0.23551505869042        1.33565000814512
H            0.03678049817987        0.76417852138722       -0.04731504449688
H            2.59923651674301       -1.20394451104680       -0.78293648337322
H            2.15125653644338        0.30957588663222        0.02048451611553
H            2.90644507616034        1.58806819802177       -1.99351010385176
H            3.42529042476124        0.07586354634926       -2.74923285061794
H            4.55850675096165        2.79178517943422       -0.83682586833357
H            6.70419439906484        2.91777407791195        0.30737452750580
H            8.25330790314200        2.48798152173878        2.03440077449442
H            9.06554874961476        2.61222190567473        0.44770767919709
H            9.80605537416734        1.66130585919957        1.75863835663109
H            7.61841262335242       -3.49093210098423        0.18244347482490
H            5.89838234135153       -3.04406038027115        0.28047741082971
H            6.77112034314391       -2.92364349584190       -1.27636858229369
H            4.94216964896454       -1.44267107156809       -1.16339461449462
H            0.83624665887593       -0.21095045250314       -3.68277252030021
H           -0.02679988091781       -1.53924918931392       -2.88366277400862
H            1.73708801426462       -1.55853883558621       -2.97053301516689
H           -4.54343768018147        2.33752214946595       -0.27753003174751
H           -3.42737403271874        2.75801409727988        2.52302680269992
H           -4.95533120882805        1.95285668128147        2.12828694116811
H           -4.74131056749448        3.66563516363700        1.77918174030652
H           -1.90661568984356        3.56613900858853        0.63111087154288
H           -2.38268345879087        3.30164886192735       -1.05256404659861
H           -3.27794742790029        4.44340720399055       -0.04829317634009
H           -0.61215492431443        1.50778136307243        2.61561752969167

          :  Hamiltonian                  GFN2-xTB          :
         :: total energy             -99.349576512751 Eh    ::
         :: gradient norm              0.001649855758 Eh/a0 ::
         :: HOMO-LUMO gap              1.420548403247 eV    ::
         :: SCC energy              -100.771159346198 Eh    ::
         :: -> dispersion             -0.072582452958 Eh    ::
         :: repulsion energy           1.420856471252 Eh    ::

    * Orbital Energies and Occupations

         #    Occupation            Energy/Eh            Energy/eV
      -------------------------------------------------------------
         1        2.0000           -0.8075001             -21.9732
       ...           ...                  ...                  ...
        78        1.9980           -0.5290866             -14.3972
        79        1.9979           -0.5280878             -14.3700
        80        1.9970           -0.5228114             -14.2264
        81        1.9962           -0.5188489             -14.1186
        82        1.9959           -0.5177634             -14.0891
        83        1.9950           -0.5145673             -14.0021
        84        1.9940           -0.5117479             -13.9254
        85        1.9892           -0.5023257             -13.6690
        86        1.9730           -0.4877357             -13.2720
        87        1.9728           -0.4876248             -13.2689
        88        1.9249           -0.4711469             -12.8206
        89        1.8148           -0.4559207             -12.4062
        90        1.8137           -0.4558154             -12.4034 (HOMO)
        91        0.5296           -0.4036112             -10.9828 (LUMO)
        92        0.0121           -0.3389935              -9.2245
        93        0.0023           -0.3123964              -8.5007
        94        0.0022           -0.3120669              -8.4918
        95        0.0020           -0.3102615              -8.4426
        96        0.0018           -0.3088718              -8.4048
        97        0.0003           -0.2775210              -7.5517
        98        0.0000           -0.1866833              -5.0799
        99        0.0000           -0.1864763              -5.0743
       100                         -0.1218991              -3.3170
       101                         -0.0617958              -1.6815
       ...                                ...                  ...
       171                          0.5776524              15.7187
      -------------------------------------------------------------
                  HL-Gap            0.0522042 Eh            1.4205 eV

     #   Z          covCN         q      C6AA      α(0)
     1   7 N        1.774    -0.283    28.144     7.856
     2   6 C        2.827     0.107    25.635     8.296
     3   6 C        3.909     0.012    20.308     6.405
     4   6 C        2.979     0.006    27.888     8.662
     5   6 C        2.919    -0.077    29.926     8.971
     6   6 C        2.863     0.133    25.090     8.210
     7   8 O        1.706    -0.223    17.704     5.681
     8   6 C        3.644     0.027    20.461     6.502
     9   6 C        2.864     0.134    25.068     8.207
    10   8 O        1.706    -0.220    17.651     5.672
    11   6 C        3.646     0.025    20.492     6.506
    12   6 C        2.913    -0.068    29.687     8.935
    13   6 C        2.923    -0.044    29.102     8.847
    14   6 C        2.904    -0.028    28.700     8.784
    15   6 C        2.891    -0.057    29.407     8.891
    16   6 C        2.845     0.015    27.666     8.620
    17   7 N        2.732     0.000    21.260     6.848
    18   6 C        3.753    -0.013    20.869     6.514
    19   6 C        3.807    -0.072    21.876     6.658
    20   6 C        2.968     0.003    27.950     8.672
    21   6 C        2.922    -0.046    29.140     8.852
    22   6 C        2.914    -0.066    29.649     8.929
    23   6 C        2.865     0.134    25.063     8.206
    24   8 O        1.706    -0.219    17.642     5.671
    25   6 C        3.645     0.024    20.502     6.507
    26   6 C        2.863     0.134    25.075     8.208
    27   8 O        1.706    -0.223    17.698     5.680
    28   6 C        3.645     0.027    20.455     6.500
    29   6 C        2.920    -0.080    29.989     8.980
    30   6 C        3.701    -0.067    21.945     6.699
    31   6 C        3.855    -0.002    20.586     6.453
    32   6 C        3.755    -0.117    22.793     6.807
    33   6 C        3.755    -0.117    22.798     6.808
    34   1 H        0.926     0.054     2.276     2.359
    35   1 H        0.924     0.054     2.271     2.357
    36   1 H        0.925     0.083     1.952     2.185
    37   1 H        0.924     0.049     2.329     2.386
    38   1 H        0.924     0.057     2.232     2.337
    39   1 H        0.925     0.083     1.948     2.182
    40   1 H        0.924     0.055     2.261     2.352
    41   1 H        0.926     0.059     2.208     2.324
    42   1 H        0.926     0.050     2.326     2.385
    43   1 H        0.926     0.057     2.234     2.337
    44   1 H        0.802     0.013     2.894     2.673
    45   1 H        0.925     0.055     2.253     2.348
    46   1 H        0.802    -0.013     3.364     2.882
    47   1 H        0.923     0.010     2.884     2.656
    48   1 H        0.926     0.064     2.154     2.295
    49   1 H        0.924     0.063     2.166     2.302
    50   1 H        0.924     0.064     2.158     2.297
    51   1 H        0.924     0.058     2.228     2.334
    52   1 H        0.924     0.060     2.205     2.322
    53   1 H        0.926     0.051     2.304     2.373
    54   1 H        0.926     0.061     2.191     2.315
    55   1 H        0.924     0.056     2.247     2.344
    56   1 H        0.924     0.057     2.230     2.335
    57   1 H        0.925     0.083     1.947     2.182
    58   1 H        0.925     0.082     1.954     2.186
    59   1 H        0.924     0.049     2.337     2.391
    60   1 H        0.924     0.053     2.280     2.362
    61   1 H        0.926     0.046     2.368     2.406
    62   1 H        0.924     0.075     2.030     2.228
    63   1 H        0.925     0.076     2.018     2.222
    64   1 H        0.925     0.076     2.017     2.221
    65   1 H        0.924     0.040     2.455     2.450
    66   1 H        0.925     0.063     2.160     2.298
    67   1 H        0.925     0.039     2.466     2.456
    68   1 H        0.925     0.054     2.267     2.355
    69   1 H        0.925     0.067     2.118     2.276
    70   1 H        0.925     0.034     2.535     2.490
    71   1 H        0.925     0.053     2.280     2.362
    72   1 H        0.860     0.152     1.390     1.847

Wiberg/Mayer (AO) data.
largest (>0.10) Wiberg bond orders for each atom

     #   Z sym  total        # sym  WBO       # sym  WBO       # sym  WBO
 ---------------------------------------------------------------------------
     1   7 N    3.009 --     2 C    1.938    72 H    0.944
     2   6 C    3.940 --     1 N    1.938     3 C    0.991    47 H    0.932
     3   6 C    3.974 --    14 C    1.004     2 C    0.991     4 C    0.941
                            31 C    0.915
     4   6 C    3.917 --    13 C    1.396     5 C    1.385     3 C    0.941
     5   6 C    3.956 --     6 C    1.389     4 C    1.385    34 H    0.955
     6   6 C    3.891 --     5 C    1.389     9 C    1.218     7 O    1.104
     7   8 O    2.250 --     6 C    1.104     8 C    0.978
     8   6 C    3.931 --     7 O    0.978    36 H    0.976    37 H    0.973
                            35 H    0.972
     9   6 C    3.888 --    12 C    1.379     6 C    1.218    10 O    1.112
    10   8 O    2.252 --     9 C    1.112    11 C    0.975
    11   6 C    3.927 --    39 H    0.977    10 O    0.975    40 H    0.972
                            38 H    0.972
    12   6 C    3.954 --    13 C    1.418     9 C    1.379    41 H    0.962
    13   6 C    3.941 --    12 C    1.418     4 C    1.396    42 H    0.961
    14   6 C    3.703 --    15 C    1.598     3 C    1.004    43 H    0.958
    15   6 C    3.962 --    14 C    1.598    16 C    1.300    45 H    0.952
    16   6 C    3.708 --    17 N    1.349    15 C    1.300    48 H    0.945
    17   7 N    3.458 --    16 C    1.349    30 C    1.000    18 C    0.994
    18   6 C    3.960 --    17 N    0.994    19 C    0.974    50 H    0.969
                            49 H    0.958
    19   6 C    3.977 --    20 C    1.009    18 C    0.974    51 H    0.974
                            52 H    0.963
    20   6 C    3.937 --    21 C    1.409    29 C    1.377    19 C    1.009
    21   6 C    3.942 --    22 C    1.415    20 C    1.409    53 H    0.967
    22   6 C    3.954 --    21 C    1.415    23 C    1.383    54 H    0.963
    23   6 C    3.888 --    22 C    1.383    26 C    1.214    24 O    1.113
    24   8 O    2.252 --    23 C    1.113    25 C    0.975
    25   6 C    3.926 --    57 H    0.977    24 O    0.975    56 H    0.972
                            55 H    0.972
    26   6 C    3.892 --    29 C    1.397    23 C    1.214    27 O    1.105
    27   8 O    2.251 --    26 C    1.105    28 C    0.979
    28   6 C    3.931 --    27 O    0.979    58 H    0.977    59 H    0.973
                            60 H    0.973
    29   6 C    3.956 --    26 C    1.397    20 C    1.377    61 H    0.961
    30   6 C    3.960 --    17 N    1.000    64 H    0.976    63 H    0.971
                            62 H    0.964
    31   6 C    3.957 --    32 C    1.011    33 C    1.007    65 H    0.962
                             3 C    0.915
    32   6 C    3.979 --    31 C    1.011    67 H    0.980    68 H    0.978
                            66 H    0.976
    33   6 C    3.977 --    31 C    1.007    71 H    0.981    70 H    0.980
                            69 H    0.975
    34   1 H    0.996 --     5 C    0.955
    35   1 H    0.992 --     8 C    0.972
    36   1 H    0.992 --     8 C    0.976
    37   1 H    0.993 --     8 C    0.973
    38   1 H    0.991 --    11 C    0.972
    39   1 H    0.992 --    11 C    0.977
    40   1 H    0.991 --    11 C    0.972
    41   1 H    0.994 --    12 C    0.962
    42   1 H    0.996 --    13 C    0.961
    43   1 H    0.995 --    14 C    0.958
    44   1 H    0.997 --    46 H    0.991
    45   1 H    0.993 --    15 C    0.952
    46   1 H    0.999 --    44 H    0.991
    47   1 H    0.984 --     2 C    0.932
    48   1 H    0.995 --    16 C    0.945
    49   1 H    0.987 --    18 C    0.958
    50   1 H    0.996 --    18 C    0.969
    51   1 H    0.996 --    19 C    0.974
    52   1 H    0.993 --    19 C    0.963
    53   1 H    0.997 --    21 C    0.967
    54   1 H    0.994 --    22 C    0.963
    55   1 H    0.991 --    25 C    0.972
    56   1 H    0.990 --    25 C    0.972
    57   1 H    0.992 --    25 C    0.977
    58   1 H    0.992 --    28 C    0.977
    59   1 H    0.993 --    28 C    0.973
    60   1 H    0.992 --    28 C    0.973
    61   1 H    0.996 --    29 C    0.961
    62   1 H    0.984 --    30 C    0.964
    63   1 H    0.989 --    30 C    0.971
    64   1 H    0.993 --    30 C    0.976
    65   1 H    0.992 --    31 C    0.962
    66   1 H    0.992 --    32 C    0.976
    67   1 H    0.996 --    32 C    0.980
    68   1 H    0.992 --    32 C    0.978
    69   1 H    0.992 --    33 C    0.975
    70   1 H    0.997 --    33 C    0.980
    71   1 H    0.993 --    33 C    0.981
    72   1 H    0.971 --     1 N    0.944
 ---------------------------------------------------------------------------

molecular dipole:
                 x           y           z       tot (Debye)
 q only:        0.511      -0.482      -0.802
   full:        0.613      -0.775      -0.807       3.243

           -------------------------------------------------
          | TOTAL ENERGY              -99.349576512751 Eh   |
          | GRADIENT NORM               0.001649855758 Eh/α |
          | HOMO-LUMO GAP               1.420548403247 eV   |
           -------------------------------------------------

 * finished run on 2024/04/06 at 11:11:55.787
