   * xtb version 6.6.1 (8d0f1dd) compiled by 'conda@1efc2f54142f' on 2023-08-01
          program call               : xtb xtbopt.xyz --opt crude --input .xc2 --gfn2

   ID    Z sym.   atoms
    1    7 N      1, 17
    2    6 C      2-6, 8, 9, 11-16, 18-23, 25, 26, 28-33
    3    8 O      7, 10, 24, 27
    4    1 H      34-72

          :  Hamiltonian                  GFN2-xTB          :
 * total energy  :   -99.2521588 Eh     change       -0.1338663E-10 Eh
   *** GEOMETRY OPTIMIZATION CONVERGED AFTER 1 ITERATIONS ***

 final structure:
================
72
 xtb: 6.6.1 (8d0f1dd)
N           -1.80250512061270        2.86141809281433        2.19238056047372
C           -1.79522416003486        2.08501276345146        1.21566589272981
C           -2.95817492446172        1.87725601790222        0.28365841839409
C           -3.40044219273952        0.42371262304090        0.34725934928722
C           -4.31408421979442       -0.06621349289956       -0.58785410092320
C           -4.76897651882938       -1.37424929360503       -0.53903460908948
O           -5.65490416004092       -1.92269451325054       -1.39281707175533
C           -6.26449361397177       -1.11553383598894       -2.37292993671836
C           -4.28883072853412       -2.24524586309081        0.47915801736206
O           -4.78275910801062       -3.49534486125362        0.45209887360742
C           -4.42210884150760       -4.40008937567296        1.47121604807326
C           -3.37995767423957       -1.75066376511345        1.40298718566409
C           -2.94720446024841       -0.43406068107770        1.33947907231980
C           -2.43358080681363        2.21936444364622       -1.13581404398733
C           -1.49892321121360        1.16188323823195       -1.74388522797518
C           -0.15519131663740        1.13514729056149       -1.12560821576594
N            0.55883353039726        0.06735275833504       -0.85409167501831
C            1.92957987709513        0.19576712695864       -0.43040018764437
C            2.91106170238910       -0.08141592044043       -1.58130092861848
C            4.31648635242399        0.04384331931846       -1.07015629029089
C            5.07660104971531        1.19666826070169       -1.28515678926642
C            6.36289562588305        1.30174725210625       -0.78407842916570
C            6.93790889324764        0.27419807691074       -0.04531689999566
O            8.17506276790558        0.26221859842398        0.47074885174080
C            9.01622379554428        1.37627101211429        0.27144118379286
C            6.16245742631821       -0.90773709673755        0.20511516609645
O            6.72852371297490       -1.87053356117454        0.94037843935200
C            5.95300576346610       -3.03410246768307        1.12870310884372
C            4.90225668505197       -0.94418468816371       -0.32732235959555
C            0.06423890134077       -1.28017622222670       -0.95919000861137
C           -4.18660316789684        2.77459446402981        0.61875962992443
C           -4.76369102077206        2.43960122386434        1.99173335784802
C           -3.88345592507182        4.26801086404689        0.53693549902452
H           -4.68740222178390        0.58948582963877       -1.35712585883094
H           -6.80163192964665       -0.27548435045132       -1.92265979946196
H           -6.97353937387757       -1.76339889513224       -2.88443946595732
H           -5.53394869670969       -0.73945479059911       -3.09651331895172
H           -4.70932682208026       -4.02497049414310        2.45777336065995
H           -4.97240226263793       -5.31426230085911        1.25781120596513
H           -3.34853779372927       -4.61138303491020        1.45845874214624
H           -3.00713293575615       -2.38286727321287        2.19186992388407
H           -2.26414416612893       -0.08098512739278        2.09576508244902
H           -3.28691685326257        2.33927924258766       -1.80261319640131
H           -1.91178311620514        3.17617388888063       -1.09474979598320
H           -1.97936801600804        0.18503723453574       -1.72290396508025
H           -1.35456444188170        1.43275109241231       -2.79790829648199
H           -0.91127150985651        1.49770580917551        0.90526044473866
H            0.34119584099427        2.08875330305027       -1.00383250367318
H            2.10935624261307       -0.55029533317067        0.37295403521645
H            2.10718493680858        1.19898490663079       -0.03753386378215
H            2.73774065353477        0.63432961016260       -2.38823207922910
H            2.75167923123138       -1.09144089317893       -1.96052108400227
H            4.65859435023952        2.00988412076148       -1.85944624024292
H            6.92438600220256        2.20190338485187       -0.97661690129323
H            8.59239430724122        2.28018460656911        0.71905970219106
H            9.20455142422449        1.54808631729002       -0.79259565451966
H            9.95171496909489        1.12991871472275        0.76948955840116
H            6.50748904803235       -3.66753587853922        1.81686397323425
H            4.97312589292496       -2.78650391207014        1.54942941978635
H            5.80460689220952       -3.55658364502936        0.17854009043032
H            1.84080605540392       -2.04203823806964        1.22016677405169
H            0.28053798951917       -1.70306380045728       -1.94069706806477
H           -1.00699119676812       -1.32253338901664       -0.78027982107706
H            0.57524998886526       -1.88819243703910       -0.19858336944427
H           -4.95101302020591        2.54261725553750       -0.13200268187763
H           -4.04671366488635        2.68805676810202        2.76791843135962
H           -5.01454606638930        1.38422870292858        2.06653525913724
H           -5.66778022841783        3.01902712753616        2.15845326833926
H           -3.09553107132036        4.53094134307268        1.23594620859664
H           -3.59192435779183        4.57076308170871       -0.46522719900845
H           -4.77588112858493        4.82700057998632        0.80571858761513
H           -0.95577226653842        2.94819860755856        2.74497105764974

          :  Hamiltonian                  GFN2-xTB          :
         :: total energy             -99.252158815046 Eh    ::
         :: gradient norm              0.002510618078 Eh/a0 ::
         :: HOMO-LUMO gap              0.295135934500 eV    ::
         :: SCC energy              -100.621955438387 Eh    ::
         :: -> dispersion             -0.076794498284 Eh    ::
         :: repulsion energy           1.368365067773 Eh    ::

    * Orbital Energies and Occupations

         #    Occupation            Energy/Eh            Energy/eV
      -------------------------------------------------------------
         1        2.0000           -0.8163400             -22.2137
       ...           ...                  ...                  ...
        78        1.9975           -0.5347274             -14.5507
        79        1.9973           -0.5338754             -14.5275
        80        1.9972           -0.5330596             -14.5053
        81        1.9960           -0.5277201             -14.3600
        82        1.9940           -0.5210328             -14.1780
        83        1.9930           -0.5187852             -14.1169
        84        1.9918           -0.5160712             -14.0430
        85        1.9726           -0.4969046             -13.5215
        86        1.9587           -0.4902870             -13.3414
        87        1.9118           -0.4778949             -13.0042
        88        1.8151           -0.4653551             -12.6630
        89        1.7508           -0.4600635             -12.5190
        90        1.3539           -0.4409081             -11.9977 (HOMO)
        91        1.0274           -0.4300621             -11.7026 (LUMO)
        92        0.2402           -0.3976606             -10.8209
        93        0.0102           -0.3456740              -9.4063
        94        0.0024           -0.3228238              -8.7845
        95        0.0020           -0.3198388              -8.7033
        96        0.0018           -0.3183010              -8.6614
        97        0.0010           -0.3085072              -8.3949
        98        0.0000           -0.1973752              -5.3709
        99        0.0000           -0.1884095              -5.1269
       100                         -0.1299383              -3.5358
       101                         -0.0740009              -2.0137
       ...                                ...                  ...
       171                          0.5693365              15.4924
      -------------------------------------------------------------
                  HL-Gap            0.0108460 Eh            0.2951 eV

     #   Z          covCN         q      C6AA      α(0)
     1   7 N        1.774    -0.261    27.597     7.779
     2   6 C        2.827     0.102    25.732     8.312
     3   6 C        3.908     0.007    20.405     6.421
     4   6 C        2.974     0.003    27.965     8.674
     5   6 C        2.920    -0.080    30.001     8.982
     6   6 C        2.862     0.131    25.130     8.217
     7   8 O        1.706    -0.224    17.716     5.683
     8   6 C        3.644     0.026    20.474     6.504
     9   6 C        2.864     0.132    25.111     8.214
    10   8 O        1.706    -0.220    17.652     5.673
    11   6 C        3.645     0.024    20.507     6.508
    12   6 C        2.913    -0.070    29.744     8.943
    13   6 C        2.921    -0.048    29.198     8.861
    14   6 C        3.812    -0.065    21.744     6.637
    15   6 C        3.802    -0.069    21.825     6.651
    16   6 C        2.846     0.017    27.632     8.615
    17   7 N        2.729     0.042    20.506     6.726
    18   6 C        3.762    -0.027    21.098     6.548
    19   6 C        3.807    -0.063    21.697     6.631
    20   6 C        2.966     0.019    27.575     8.613
    21   6 C        2.932    -0.043    29.078     8.844
    22   6 C        2.911    -0.071    29.772     8.947
    23   6 C        2.870     0.137    25.011     8.198
    24   8 O        1.706    -0.210    17.500     5.648
    25   6 C        3.646     0.023    20.519     6.510
    26   6 C        2.877     0.148    24.782     8.161
    27   8 O        1.705    -0.205    17.419     5.635
    28   6 C        3.663     0.024    20.436     6.485
    29   6 C        2.015    -0.098    33.733     9.380
    30   6 C        3.702    -0.079    22.181     6.735
    31   6 C        3.853    -0.007    20.675     6.467
    32   6 C        3.756    -0.119    22.826     6.812
    33   6 C        3.755    -0.120    22.865     6.818
    34   1 H        0.926     0.053     2.280     2.361
    35   1 H        0.924     0.056     2.246     2.344
    36   1 H        0.925     0.084     1.938     2.177
    37   1 H        0.924     0.050     2.324     2.384
    38   1 H        0.924     0.059     2.213     2.326
    39   1 H        0.925     0.084     1.935     2.175
    40   1 H        0.924     0.055     2.253     2.348
    41   1 H        0.926     0.060     2.193     2.316
    42   1 H        0.926     0.047     2.364     2.404
    43   1 H        0.925     0.063     2.164     2.301
    44   1 H        0.924     0.056     2.244     2.342
    45   1 H        0.925     0.069     2.097     2.265
    46   1 H        0.924     0.086     1.917     2.165
    47   1 H        0.922     0.011     2.872     2.650
    48   1 H        0.925     0.076     2.021     2.223
    49   1 H        0.921     0.112     1.681     2.028
    50   1 H        0.924     0.063     2.168     2.303
    51   1 H        0.924     0.051     2.307     2.376
    52   1 H        0.924     0.068     2.103     2.268
    53   1 H        0.926     0.058     2.225     2.333
    54   1 H        0.926     0.066     2.134     2.284
    55   1 H        0.924     0.059     2.214     2.327
    56   1 H        0.924     0.060     2.200     2.320
    57   1 H        0.925     0.087     1.907     2.160
    58   1 H        0.925     0.082     1.954     2.186
    59   1 H        0.924     0.066     2.130     2.282
    60   1 H        0.924     0.062     2.173     2.305
    61   1 H        0.000    -0.288    51.401    13.109
    62   1 H        0.924     0.084     1.943     2.180
    63   1 H        0.925     0.076     2.019     2.222
    64   1 H        0.923     0.112     1.678     2.026
    65   1 H        0.924     0.039     2.457     2.451
    66   1 H        0.925     0.069     2.093     2.263
    67   1 H        0.925     0.037     2.493     2.469
    68   1 H        0.925     0.054     2.274     2.358
    69   1 H        0.925     0.065     2.144     2.290
    70   1 H        0.925     0.037     2.495     2.470
    71   1 H        0.925     0.057     2.233     2.337
    72   1 H        0.860     0.163     1.319     1.799

Wiberg/Mayer (AO) data.
largest (>0.10) Wiberg bond orders for each atom

     #   Z sym  total        # sym  WBO       # sym  WBO       # sym  WBO
 ---------------------------------------------------------------------------
     1   7 N    3.037 --     2 C    1.961    72 H    0.939
     2   6 C    3.934 --     1 N    1.961     3 C    0.992    47 H    0.903
     3   6 C    3.972 --     2 C    0.992     4 C    0.972    14 C    0.955
                            31 C    0.942
     4   6 C    3.936 --    13 C    1.405     5 C    1.371     3 C    0.972
     5   6 C    3.956 --     6 C    1.396     4 C    1.371    34 H    0.957
     6   6 C    3.893 --     5 C    1.396     9 C    1.213     7 O    1.106
     7   8 O    2.252 --     6 C    1.106     8 C    0.977
     8   6 C    3.929 --     7 O    0.977    36 H    0.976    35 H    0.973
                            37 H    0.972
     9   6 C    3.889 --    12 C    1.382     6 C    1.213    10 O    1.113
    10   8 O    2.253 --     9 C    1.113    11 C    0.975
    11   6 C    3.925 --    39 H    0.976    10 O    0.975    38 H    0.972
                            40 H    0.972
    12   6 C    3.955 --    13 C    1.413     9 C    1.382    41 H    0.962
    13   6 C    3.943 --    12 C    1.413     4 C    1.405    42 H    0.961
    14   6 C    3.976 --    15 C    0.986    44 H    0.972    43 H    0.967
                             3 C    0.955
    15   6 C    3.986 --    16 C    1.059    14 C    0.986    45 H    0.956
                            46 H    0.923
    16   6 C    3.698 --    17 N    1.479    15 C    1.059    48 H    0.954
    17   7 N    3.574 --    16 C    1.479    30 C    1.000    18 C    0.989
    18   6 C    3.894 --    17 N    0.989    50 H    0.967    19 C    0.964
                            49 H    0.893
    19   6 C    3.965 --    20 C    1.001    51 H    0.972    52 H    0.966
                            18 C    0.964
    20   6 C    3.899 --    29 C    1.425    21 C    1.332    19 C    1.001
    21   6 C    3.868 --    22 C    1.432    20 C    1.332    53 H    0.956
    22   6 C    3.947 --    21 C    1.432    23 C    1.373    54 H    0.956
    23   6 C    3.820 --    22 C    1.373    26 C    1.158    24 O    1.122
    24   8 O    2.249 --    23 C    1.122    25 C    0.969
    25   6 C    3.917 --    57 H    0.976    55 H    0.971    56 H    0.971
                            24 O    0.969
    26   6 C    3.848 --    29 C    1.395    23 C    1.158    27 O    1.125
    27   8 O    2.248 --    26 C    1.125    28 C    0.969
    28   6 C    3.912 --    58 H    0.978    60 H    0.970    27 O    0.969
                            59 H    0.969
    29   6 C    3.055 --    20 C    1.425    26 C    1.395
    30   6 C    3.920 --    17 N    1.000    63 H    0.967    62 H    0.958
                            64 H    0.931
    31   6 C    3.968 --    33 C    1.008    32 C    1.008    65 H    0.958
                             3 C    0.942
    32   6 C    3.974 --    31 C    1.008    67 H    0.981    68 H    0.980
                            66 H    0.972
    33   6 C    3.977 --    31 C    1.008    70 H    0.982    71 H    0.979
                            69 H    0.974
    34   1 H    0.996 --     5 C    0.957
    35   1 H    0.992 --     8 C    0.973
    36   1 H    0.992 --     8 C    0.976
    37   1 H    0.992 --     8 C    0.972
    38   1 H    0.990 --    11 C    0.972
    39   1 H    0.992 --    11 C    0.976
    40   1 H    0.990 --    11 C    0.972
    41   1 H    0.994 --    12 C    0.962
    42   1 H    0.997 --    13 C    0.961
    43   1 H    0.994 --    14 C    0.967
    44   1 H    0.996 --    14 C    0.972
    45   1 H    0.994 --    15 C    0.956
    46   1 H    0.974 --    15 C    0.923
    47   1 H    0.982 --     2 C    0.903
    48   1 H    0.994 --    16 C    0.954
    49   1 H    0.984 --    18 C    0.893
    50   1 H    0.994 --    18 C    0.967
    51   1 H    0.994 --    19 C    0.972
    52   1 H    0.992 --    19 C    0.966
    53   1 H    0.983 --    21 C    0.956
    54   1 H    0.987 --    22 C    0.956
    55   1 H    0.989 --    25 C    0.971
    56   1 H    0.989 --    25 C    0.971
    57   1 H    0.991 --    25 C    0.976
    58   1 H    0.992 --    28 C    0.978
    59   1 H    0.988 --    28 C    0.969
    60   1 H    0.987 --    28 C    0.970
    61   1 H    0.143
    62   1 H    0.984 --    30 C    0.958
    63   1 H    0.992 --    30 C    0.967
    64   1 H    0.985 --    30 C    0.931
    65   1 H    0.990 --    31 C    0.958
    66   1 H    0.989 --    32 C    0.972
    67   1 H    0.996 --    32 C    0.981
    68   1 H    0.993 --    32 C    0.980
    69   1 H    0.991 --    33 C    0.974
    70   1 H    0.996 --    33 C    0.982
    71   1 H    0.992 --    33 C    0.979
    72   1 H    0.967 --     1 N    0.939
 ---------------------------------------------------------------------------

molecular dipole:
                 x           y           z       tot (Debye)
 q only:        0.192       0.966      -1.537
   full:        0.565       1.085      -1.743       5.413

           -------------------------------------------------
          | TOTAL ENERGY              -99.252158815046 Eh   |
          | GRADIENT NORM               0.002510618078 Eh/α |
          | HOMO-LUMO GAP               0.295135934500 eV   |
           -------------------------------------------------

 * finished run on 2024/04/06 at 11:14:44.253
