   * xtb version 6.6.1 (8d0f1dd) compiled by 'conda@1efc2f54142f' on 2023-08-01
          program call               : xtb struc.xyz --opt loose --input .xc1 --gfn2

   ID    Z sym.   atoms
    1    6 C      1, 3, 5-7, 10, 11, 14
    2    7 N      2, 4, 9, 13
    3    8 O      8, 12
    4    1 H      15-25
constraining bond 3 4 to    3.9200000 Å, actual value:    1.3504249 Å

          :  Hamiltonian                  GFN2-xTB          :
 * total energy  :   -30.4559222 Eh     change       -0.6633627E-10 Eh
 * total energy  :   -34.6507652 Eh     change       -0.4194843E+01 Eh
 * total energy  :   -38.2370213 Eh     change       -0.3586256E+01 Eh
 * total energy  :   -40.6271627 Eh     change       -0.2390141E+01 Eh
 * total energy  :   -41.6406293 Eh     change       -0.1013467E+01 Eh
 * total energy  :   -41.8035055 Eh     change       -0.1628762E+00 Eh
 * total energy  :   -41.8190660 Eh     change       -0.1556052E-01 Eh
 * total energy  :   -41.8432425 Eh     change       -0.2417644E-01 Eh
 * total energy  :   -41.8663916 Eh     change       -0.2314911E-01 Eh
 * total energy  :   -41.8836946 Eh     change       -0.1730306E-01 Eh
 * total energy  :   -42.0908179 Eh     change       -0.3075292E-02 Eh
 * total energy  :   -42.0924915 Eh     change       -0.1673650E-02 Eh
 * total energy  :   -42.0941570 Eh     change       -0.1665451E-02 Eh
 * total energy  :   -42.0948915 Eh     change       -0.7344859E-03 Eh
 * total energy  :   -42.0952326 Eh     change       -0.3410888E-03 Eh
 * total energy  :   -42.0958429 Eh     change       -0.6103624E-03 Eh
 * total energy  :   -42.0959416 Eh     change       -0.9865821E-04 Eh
 * total energy  :   -42.0960455 Eh     change       -0.1038768E-03 Eh
 * total energy  :   -42.0960721 Eh     change       -0.2666070E-04 Eh
   *** GEOMETRY OPTIMIZATION CONVERGED AFTER 39 ITERATIONS ***

 final structure:
================
25
 xtb: 6.6.1 (8d0f1dd)
C            3.32140588594388        1.06828497231166        0.06223936021235
N            2.36227031083511       -0.07361512352644        0.06059671073797
C            3.62391254013775       -0.34965064416381        0.15742978036343
N            0.56954459731452       -2.75563520380186       -0.23285648961463
C            0.23528554488792       -1.54287434456834       -0.07814777636560
C            1.01500661058225       -0.24429033227508        0.00007865973685
C            0.24806713893743        0.95200204351916       -0.01176212377507
O            0.76130314087685        2.17472105201529       -0.00959356448510
N           -1.08288185714367        0.94518235374012       -0.01888880025667
C           -1.86914033326702        2.16823391663797       -0.05027325503527
C           -1.86019785406678       -0.23951336579365        0.04656430616923
O           -3.05341735750978       -0.16341842366086        0.11058419366602
N           -1.14461159045479       -1.39110834835677        0.02440363574411
C           -1.91458093369212       -2.62937208307779        0.03202972934382
H            3.40149165489481        1.67388991445340        0.96397100159279
H            3.51072983119770        1.58224734767331       -0.87777168477344
H            1.72764755703561        2.21220626324479       -0.00660112724324
H            4.29724379634596       -1.16589566882618        0.24173668676095
H           -1.22296608986243        3.03824343048433       -0.03981167733509
H           -2.48615887962757        2.16551814646852       -0.94870837537683
H           -2.53582692040249        2.17916857708615        0.81154826850551
H           -1.58881560171218       -3.25302207638756        0.86179884061812
H           -1.74176587635168       -3.17342807100539       -0.89487928602608
H           -2.96634290622127       -2.37566767370682        0.13322870968623
H            1.55322910542201       -2.98396811688390       -0.30574410495045

          :  Hamiltonian                  GFN2-xTB          :
         :: total energy             -42.096072119559 Eh    ::
         :: gradient norm              0.002429185342 Eh/a0 ::
         :: HOMO-LUMO gap              1.666863829315 eV    ::
         :: SCC energy               -42.619850501352 Eh    ::
         :: -> dispersion             -0.021954916452 Eh    ::
         :: repulsion energy           0.523396629590 Eh    ::

    * Orbital Energies and Occupations

         #    Occupation            Energy/Eh            Energy/eV
      -------------------------------------------------------------
         1        2.0000           -0.9233575             -25.1258
       ...           ...                  ...                  ...
        25        2.0000           -0.6624264             -18.0255
        26        2.0000           -0.6611564             -17.9910
        27        2.0000           -0.6479691             -17.6321
        28        2.0000           -0.6433801             -17.5073
        29        2.0000           -0.6395537             -17.4031
        30        2.0000           -0.6160348             -16.7632
        31        2.0000           -0.6091946             -16.5770
        32        2.0000           -0.5964421             -16.2300
        33        2.0000           -0.5927898             -16.1306
        34        1.9996           -0.5700072             -15.5107
        35        1.9975           -0.5548847             -15.0992
        36        1.9894           -0.5433013             -14.7840
        37        1.9653           -0.5337742             -14.5247 (HOMO)
        38        0.0482           -0.4725181             -12.8579 (LUMO)
        39        0.0000           -0.4019465             -10.9375
        40        0.0000           -0.3691100             -10.0440
        41                         -0.3211896              -8.7400
        42                         -0.2905985              -7.9076
        43                         -0.2174111              -5.9161
        44                         -0.1585294              -4.3138
        45                         -0.1557063              -4.2370
        46                         -0.1228599              -3.3432
        47                         -0.1114914              -3.0338
        48                         -0.0639873              -1.7412
       ...                                ...                  ...
        67                          0.5719858              15.5645
      -------------------------------------------------------------
                  HL-Gap            0.0612561 Eh            1.6669 eV

     #   Z          covCN         q      C6AA      α(0)
     1   6 C        3.733    -0.026    21.130     6.561
     2   7 N        2.738     0.082    19.829     6.614
     3   6 C        2.817     0.030    27.316     8.563
     4   7 N        1.811    -0.301    28.647     7.930
     5   6 C        2.820     0.156    24.618     8.130
     6   6 C        2.875    -0.046    29.133     8.848
     7   6 C        2.783     0.222    23.329     7.911
     8   8 O        1.664    -0.333    19.597     5.976
     9   7 N        2.744    -0.036    21.935     6.956
    10   6 C        3.705    -0.072    22.025     6.709
    11   6 C        2.726     0.316    21.634     7.615
    12   8 O        0.859    -0.357    20.832     6.119
    13   7 N        2.777    -0.054    22.280     7.011
    14   6 C        3.716    -0.076    22.087     6.714
    15   1 H        0.925     0.095     1.830     2.115
    16   1 H        0.925     0.096     1.825     2.112
    17   1 H        0.805     0.344     0.602     1.219
    18   1 H        0.927     0.144     1.435     1.873
    19   1 H        0.925     0.108     1.716     2.049
    20   1 H        0.925     0.111     1.692     2.034
    21   1 H        0.925     0.114     1.662     2.016
    22   1 H        0.925     0.101     1.772     2.082
    23   1 H        0.925     0.104     1.745     2.066
    24   1 H        0.925     0.113     1.671     2.021
    25   1 H        0.860     0.166     1.299     1.785

Wiberg/Mayer (AO) data.
largest (>0.10) Wiberg bond orders for each atom

     #   Z sym  total        # sym  WBO       # sym  WBO       # sym  WBO
 ---------------------------------------------------------------------------
     1   6 C    3.879 --     3 C    0.987    16 H    0.961    15 H    0.959
                             2 N    0.873
     2   7 N    3.669 --     3 C    1.492     6 C    1.206     1 C    0.873
     3   6 C    3.842 --     2 N    1.492     1 C    0.987    18 H    0.949
                             6 C    0.199
     4   7 N    3.028 --     5 C    1.760    25 H    0.943
     5   6 C    3.964 --     4 N    1.760    13 N    1.105     6 C    1.000
     6   6 C    3.893 --     7 C    1.255     2 N    1.206     5 C    1.000
                             3 C    0.199
     7   6 C    3.931 --     9 N    1.322     6 C    1.255     8 O    1.170
     8   8 O    2.225 --     7 C    1.170    17 H    0.822
     9   7 N    3.621 --     7 C    1.322    11 C    0.990    10 C    0.969
    10   6 C    3.913 --    19 H    0.971     9 N    0.969    21 H    0.959
                            20 H    0.959
    11   6 C    3.957 --    12 O    1.707    13 N    1.175     9 N    0.990
    12   8 O    2.063 --    11 C    1.707    13 N    0.158
    13   7 N    3.583 --    11 C    1.175     5 C    1.105    14 C    0.964
                            12 O    0.158
    14   6 C    3.915 --    24 H    0.968    22 H    0.966    13 N    0.964
                            23 H    0.964
    15   1 H    0.989 --     1 C    0.959
    16   1 H    0.990 --     1 C    0.961
    17   1 H    0.880 --     8 O    0.822
    18   1 H    0.979 --     3 C    0.949
    19   1 H    0.988 --    10 C    0.971
    20   1 H    0.981 --    10 C    0.959
    21   1 H    0.981 --    10 C    0.959
    22   1 H    0.988 --    14 C    0.966
    23   1 H    0.987 --    14 C    0.964
    24   1 H    0.986 --    14 C    0.968
    25   1 H    0.970 --     4 N    0.943
 ---------------------------------------------------------------------------

molecular dipole:
                 x           y           z       tot (Debye)
 q only:        2.781       0.770       0.046
   full:        3.584       1.025       0.049       9.476

           -------------------------------------------------
          | TOTAL ENERGY              -42.096072119559 Eh   |
          | GRADIENT NORM               0.002429185342 Eh/α |
          | HOMO-LUMO GAP               1.666863829315 eV   |
           -------------------------------------------------

 * finished run on 2024/06/05 at 19:57:55.548
