   * xtb version 6.6.1 (8d0f1dd) compiled by 'conda@1efc2f54142f' on 2023-08-01
          program call               : xtb xtbopt.xyz --opt crude --input .xc2 --gfn2

   ID    Z sym.   atoms
    1    6 C      1, 3, 5-7, 10, 11, 14
    2    7 N      2, 4, 9, 13
    3    8 O      8, 12
    4    1 H      15-25
########################################################################
[WARNING] Please study the warnings concerning your input carefully
-1- readin_getIntValue: could not parse ''
########################################################################

          :  Hamiltonian                  GFN2-xTB          :
 * total energy  :   -42.0963415 Eh     change       -0.6394885E-13 Eh
 * total energy  :   -42.1025908 Eh     change       -0.6249310E-02 Eh
 * total energy  :   -42.1071270 Eh     change       -0.4536164E-02 Eh
 * total energy  :   -42.1088830 Eh     change       -0.1756027E-02 Eh
 * total energy  :   -42.1097103 Eh     change       -0.8272736E-03 Eh
 * total energy  :   -42.1101230 Eh     change       -0.4127176E-03 Eh
   *** GEOMETRY OPTIMIZATION CONVERGED AFTER 6 ITERATIONS ***

 final structure:
================
25
 xtb: 6.6.1 (8d0f1dd)
C            3.41252031347902        0.86478357292486        0.07440590432083
N            2.27135994259635       -0.05711820202153        0.03230883537273
C            3.42646551164022       -0.60955815997891        0.09255014935506
N            0.81379884895326       -2.54581073737478       -0.12196109449089
C            0.26210905600365       -1.41400143274373       -0.04761948478000
C            0.93495621581139       -0.09784284155174       -0.01342515544167
C            0.17685773666696        1.08302610298040       -0.02536600512868
O            0.70039810103340        2.30044881742769       -0.04027092683155
N           -1.15256714530103        1.00612088338638       -0.01934252595447
C           -1.98921239042075        2.19372816218640       -0.04071245341364
C           -1.87004757110192       -0.23158735729491        0.02968205595045
O           -3.06530426970186       -0.20501879702801        0.07929465272722
N           -1.11524670631495       -1.36582219641176        0.01280491242892
C           -1.80986955765843       -2.64502502464437        0.02267324591486
H            3.59107657808405        1.40886542764203        0.99725815281659
H            3.67982731570555        1.38437130931628       -0.84094022939160
H            1.66851802087320        2.31406239597080       -0.05915443306180
H            3.95529906684913       -1.52990172553422        0.14305095943033
H           -1.36737636078021        3.08282955654943       -0.02512694235252
H           -2.60775994208530        2.18093054657153       -0.93799051429116
H           -2.65312817775175        2.17970195866264        0.82335419533101
H           -1.44659436617372       -3.24296638733148        0.85621848149346
H           -1.59832239447275       -3.17917342733955       -0.90217206107859
H           -2.87610451958215       -2.45907380758911        0.11928202445000
H            1.81877820774878       -2.59773009517413       -0.17763012547498

          :  Hamiltonian                  GFN2-xTB          :
         :: total energy             -42.110123002998 Eh    ::
         :: gradient norm              0.006818329601 Eh/a0 ::
         :: HOMO-LUMO gap              1.654877667900 eV    ::
         :: SCC energy               -42.649616739225 Eh    ::
         :: -> dispersion             -0.022194034063 Eh    ::
         :: repulsion energy           0.539380169119 Eh    ::

    * Orbital Energies and Occupations

         #    Occupation            Energy/Eh            Energy/eV
      -------------------------------------------------------------
         1        2.0000           -0.9252287             -25.1768
       ...           ...                  ...                  ...
        25        2.0000           -0.6634608             -18.0537
        26        2.0000           -0.6623742             -18.0241
        27        2.0000           -0.6501512             -17.6915
        28        2.0000           -0.6453637             -17.5612
        29        2.0000           -0.6423509             -17.4793
        30        2.0000           -0.6179534             -16.8154
        31        2.0000           -0.6127113             -16.6727
        32        2.0000           -0.5987151             -16.2919
        33        2.0000           -0.5952548             -16.1977
        34        1.9998           -0.5738571             -15.6154
        35        1.9983           -0.5564727             -15.1424
        36        1.9920           -0.5443567             -14.8127
        37        1.9626           -0.5320118             -14.4768 (HOMO)
        38        0.0473           -0.4711962             -12.8219 (LUMO)
        39        0.0000           -0.4002056             -10.8901
        40        0.0000           -0.3692948             -10.0490
        41                         -0.3061600              -8.3310
        42                         -0.2846796              -7.7465
        43                         -0.2007988              -5.4640
        44                         -0.1625661              -4.4236
        45                         -0.1560253              -4.2457
        46                         -0.1181934              -3.2162
        47                         -0.1022687              -2.7829
        48                         -0.0606511              -1.6504
       ...                                ...                  ...
        67                          0.5922809              16.1168
      -------------------------------------------------------------
                  HL-Gap            0.0608156 Eh            1.6549 eV

     #   Z          covCN         q      C6AA      α(0)
     1   6 C        3.735    -0.026    21.130     6.560
     2   7 N        2.739     0.096    19.586     6.573
     3   6 C        2.818     0.024    27.449     8.584
     4   7 N        1.792    -0.318    29.059     7.985
     5   6 C        2.830     0.159    24.561     8.121
     6   6 C        2.889    -0.050    29.227     8.864
     7   6 C        2.777     0.223    23.297     7.906
     8   8 O        1.661    -0.322    19.404     5.947
     9   7 N        2.744    -0.039    21.987     6.964
    10   6 C        3.703    -0.071    22.014     6.708
    11   6 C        2.719     0.315    21.648     7.616
    12   8 O        0.859    -0.351    20.716     6.102
    13   7 N        2.755    -0.052    22.243     7.005
    14   6 C        3.710    -0.074    22.055     6.712
    15   1 H        0.925     0.093     1.846     2.124
    16   1 H        0.925     0.093     1.852     2.128
    17   1 H        0.805     0.346     0.599     1.216
    18   1 H        0.927     0.143     1.437     1.875
    19   1 H        0.925     0.107     1.724     2.053
    20   1 H        0.925     0.110     1.694     2.035
    21   1 H        0.925     0.113     1.668     2.020
    22   1 H        0.925     0.102     1.769     2.080
    23   1 H        0.925     0.101     1.775     2.083
    24   1 H        0.925     0.112     1.680     2.027
    25   1 H        0.860     0.163     1.313     1.795

Wiberg/Mayer (AO) data.
largest (>0.10) Wiberg bond orders for each atom

     #   Z sym  total        # sym  WBO       # sym  WBO       # sym  WBO
 ---------------------------------------------------------------------------
     1   6 C    3.872 --     3 C    0.977    15 H    0.966    16 H    0.966
                             2 N    0.882
     2   7 N    3.688 --     3 C    1.503     6 C    1.212     1 C    0.882
     3   6 C    3.844 --     2 N    1.503     1 C    0.977    18 H    0.949
                             6 C    0.187
     4   7 N    3.008 --     5 C    1.743    25 H    0.941    13 N    0.100
     5   6 C    3.969 --     4 N    1.743    13 N    1.113     6 C    1.016
     6   6 C    3.905 --     7 C    1.264     2 N    1.212     5 C    1.016
                             3 C    0.187
     7   6 C    3.933 --     9 N    1.317     6 C    1.264     8 O    1.166
     8   8 O    2.230 --     7 C    1.166    17 H    0.844
     9   7 N    3.617 --     7 C    1.317    11 C    0.981    10 C    0.971
    10   6 C    3.914 --    19 H    0.972     9 N    0.971    21 H    0.960
                            20 H    0.960
    11   6 C    3.956 --    12 O    1.719    13 N    1.169     9 N    0.981
    12   8 O    2.073 --    11 C    1.719    13 N    0.157
    13   7 N    3.585 --    11 C    1.169     5 C    1.113    14 C    0.964
                            12 O    0.157     4 N    0.100
    14   6 C    3.916 --    24 H    0.970    22 H    0.967    23 H    0.966
                            13 N    0.964
    15   1 H    0.990 --     1 C    0.966
    16   1 H    0.991 --     1 C    0.966
    17   1 H    0.880 --     8 O    0.844
    18   1 H    0.979 --     3 C    0.949
    19   1 H    0.988 --    10 C    0.972
    20   1 H    0.981 --    10 C    0.960
    21   1 H    0.981 --    10 C    0.960
    22   1 H    0.988 --    14 C    0.967
    23   1 H    0.988 --    14 C    0.966
    24   1 H    0.987 --    14 C    0.970
    25   1 H    0.971 --     4 N    0.941
 ---------------------------------------------------------------------------

molecular dipole:
                 x           y           z       tot (Debye)
 q only:        2.602       0.800       0.015
   full:        3.307       1.102       0.004       8.861

           -------------------------------------------------
          | TOTAL ENERGY              -42.110123002998 Eh   |
          | GRADIENT NORM               0.006818329601 Eh/α |
          | HOMO-LUMO GAP               1.654877667900 eV   |
           -------------------------------------------------

 * finished run on 2024/06/05 at 19:57:56.080
