   * xtb version 6.6.1 (8d0f1dd) compiled by 'conda@1efc2f54142f' on 2023-08-01
          program call               : xtb struc.xyz --opt loose --input .xc1 --gfn2

   ID    Z sym.   atoms
    1    7 N      1, 17
    2    6 C      2-6, 8, 9, 11-16, 18-23, 25, 26, 28-33
    3    8 O      7, 10, 24, 27
    4    1 H      34-72
constraining bond 20 54 to    3.7133300 Å, actual value:    3.3722176 Å

          :  Hamiltonian                  GFN2-xTB          :
 * total energy  :   -99.4249070 Eh     change       -0.4035485E-08 Eh
 * total energy  :   -99.4591340 Eh     change       -0.3422705E-01 Eh
 * total energy  :   -99.4875089 Eh     change       -0.2837492E-01 Eh
 * total energy  :   -99.5254642 Eh     change       -0.3795533E-01 Eh
 * total energy  :   -99.5980089 Eh     change       -0.7254467E-01 Eh
 * total energy  :   -99.7426929 Eh     change       -0.1446839E+00 Eh
 * total energy  :  -100.0697454 Eh     change       -0.3270525E+00 Eh
 * total energy  :  -100.2274943 Eh     change       -0.1577489E+00 Eh
 * total energy  :  -100.2734533 Eh     change       -0.4595907E-01 Eh
 * total energy  :  -100.3639343 Eh     change       -0.9048099E-01 Eh
 * total energy  :  -100.7182839 Eh     change       -0.7788449E-04 Eh
 * total energy  :  -100.7183510 Eh     change       -0.6705854E-04 Eh
 * total energy  :  -100.7184117 Eh     change       -0.6072806E-04 Eh
 * total energy  :  -100.7184742 Eh     change       -0.6252051E-04 Eh
 * total energy  :  -100.7185455 Eh     change       -0.7133074E-04 Eh
 * total energy  :  -100.7186139 Eh     change       -0.6832854E-04 Eh
 * total energy  :  -100.7186778 Eh     change       -0.6397342E-04 Eh
 * total energy  :  -100.7187347 Eh     change       -0.5690367E-04 Eh
 * total energy  :  -100.7187831 Eh     change       -0.4840297E-04 Eh
   *** GEOMETRY OPTIMIZATION CONVERGED AFTER 43 ITERATIONS ***

 final structure:
================
72
 xtb: 6.6.1 (8d0f1dd)
N           -1.68287881591913        2.77414571625493        2.29172204466990
C           -1.65250288430603        2.08140387607056        1.25327325993281
C           -2.81377726261637        1.89728582774076        0.31529390595251
C           -3.30067775982285        0.45788542041151        0.38769519069514
C           -4.21594397988647       -0.01161203884463       -0.55657271546038
C           -4.70095569429802       -1.30783747426480       -0.51319551094667
O           -5.58586802241577       -1.83758169989528       -1.38336451059650
C           -6.15294255278997       -1.01471792745156       -2.37565654244727
C           -4.25687993328109       -2.18683932522902        0.51107335549370
O           -4.77631959964992       -3.43071575177477        0.47348244180041
C           -4.44923005423739       -4.34090767263654        1.49749262095981
C           -3.35228764954638       -1.71314807557853        1.44766213010714
C           -2.88160435125036       -0.40751327836380        1.38592945752761
C           -2.26599994150366        2.20263012239612       -1.10332585189105
C           -1.35208328996136        1.10738928473530       -1.67863115809389
C            0.00410328219490        1.08778214722303       -1.08702140844956
N            0.68727442559795       -0.00610712474186       -0.75864487028996
C            2.11454086160318        0.07128276735451       -0.54134001336891
C            2.87899855257196       -0.23085321912460       -1.83710757847924
C            4.41933043079691       -0.11868424469750       -1.67801544517299
C            4.74691146873177        1.28579761178892       -1.18010090635666
C            5.79970151840321        1.46261865243208       -0.38865037554735
C            6.51456306361866        0.44633507834310        0.20831160033576
O            7.72961335273667        0.53041725992300        0.73005447828169
C            8.42273168749202        1.74342081404452        0.51873301511690
C            5.83819498554116       -0.85099723901862        0.29243345935844
O            6.32468064804850       -1.68391278424010        1.23127629653362
C            5.83765952255232       -3.00479902324759        1.28144476951998
C            4.89290843059159       -1.11944494934471       -0.63609918196482
C            0.07705484634641       -1.31334431087509       -0.74507016680440
C           -4.01811059672232        2.83461136392217        0.62804880211111
C           -4.65382544350963        2.50149643173462        1.97565089942303
C           -3.65308743502214        4.31577863010021        0.58191205427490
H           -4.56458465591479        0.65246597695233       -1.32973111854820
H           -6.68428046461525       -0.16491770488355       -1.93658750282256
H           -6.86165492883576       -1.64598930629976       -2.90783667438415
H           -5.39619081099426       -0.65119218153833       -3.07865339988302
H           -4.75445230967791       -3.96625177611145        2.47889402274453
H           -5.00431585301381       -5.24851984178519        1.26919129713782
H           -3.37783809103793       -4.56530059568380        1.50885580024699
H           -3.01315780328217       -2.35137801788627        2.24730181846730
H           -2.20061479154326       -0.06664775511889        2.15028796972816
H           -3.10758167462916        2.33520480554404       -1.78214712481467
H           -1.71699026646356        3.14444235235514       -1.07331536842537
H           -1.84235006315792        0.13882905510920       -1.59603444310165
H           -1.23230170623981        1.32669440343429       -2.74837135591648
H           -0.74717723624883        1.55810935728477        0.88583348970870
H            0.55645186328896        2.01601349342960       -1.07656369511423
H            2.40536937543606       -0.64270491833360        0.23311733788408
H            2.37521565248420        1.07212603855548       -0.19067510076653
H            2.55606638994675        0.46749670364250       -2.61311454748430
H            2.63854963793163       -1.24264387380214       -2.17305249520286
H            4.13408470450358        2.10223970861658       -1.52338979165724
H            4.75548064924944       -0.27060454241168       -2.37260233400868
H            7.75366029596310        2.59584008485191        0.67743066983446
H            8.81570165689731        1.78815134016354       -0.50112174873623
H            9.24559226460185        1.76030223438541        1.23114027163718
H            6.36195679230610       -3.48112502176701        2.10457148568930
H            4.76114416323395       -3.02381626208207        1.47501318861980
H            6.04765447856878       -3.54393600011224        0.35275788901548
H            4.48447667531510       -2.11307511675090       -0.73204657976934
H           -0.10024035221799       -1.68384157241613       -1.75760138750165
H           -0.87561814937541       -1.28135316888713       -0.21247015496614
H            0.73547327564205       -2.01024635483509       -0.23199915487303
H           -4.76576322062278        2.64580716890619       -0.15116576816056
H           -3.94722964608563        2.68958052103782        2.77751215801066
H           -4.96663113833730        1.46100219503880        2.01637220644155
H           -5.52861594685819        3.12787935338254        2.12972842983042
H           -2.88771203568839        4.53886313636423        1.31880189029996
H           -3.30395112383733        4.61803180465440       -0.40194498284073
H           -4.53378866448755        4.90719635897549        0.81810802505054
H           -0.83061315529564        2.85014257537590        2.83807807499904

          :  Hamiltonian                  GFN2-xTB          :
         :: total energy            -100.718783159421 Eh    ::
         :: gradient norm              0.003663012621 Eh/a0 ::
         :: HOMO-LUMO gap              1.029046326726 eV    ::
         :: SCC energy              -100.682526781333 Eh    ::
         :: -> dispersion             -0.075358166162 Eh    ::
         :: repulsion energy           1.491819165963 Eh    ::

    * Orbital Energies and Occupations

         #    Occupation            Energy/Eh            Energy/eV
      -------------------------------------------------------------
         1        2.0000           -0.8189185             -22.2839
       ...           ...                  ...                  ...
        78        1.9990           -0.5355637             -14.5734
        79        1.9983           -0.5269935             -14.3402
        80        1.9983           -0.5263242             -14.3220
        81        1.9975           -0.5206016             -14.1663
        82        1.9960           -0.5130994             -13.9621
        83        1.9953           -0.5104149             -13.8891
        84        1.9944           -0.5077853             -13.8175
        85        1.9927           -0.5034221             -13.6988
        86        1.9815           -0.4886721             -13.2974
        87        1.9726           -0.4824170             -13.1272
        88        1.9392           -0.4695113             -12.7761
        89        1.8758           -0.4576759             -12.4540
        90        1.5101           -0.4325094             -11.7692 (HOMO)
        91        0.4410           -0.3946927             -10.7401 (LUMO)
        92        0.2919           -0.3867108             -10.5229
        93        0.0145           -0.3368454              -9.1660
        94        0.0036           -0.3145880              -8.5604
        95        0.0029           -0.3114519              -8.4750
        96        0.0015           -0.3011101              -8.1936
        97        0.0000           -0.2271515              -6.1811
        98        0.0000           -0.1887725              -5.1368
        99                         -0.1408954              -3.8340
       100                         -0.0682838              -1.8581
       101                         -0.0660776              -1.7981
       ...                                ...                  ...
       171                          1.1040786              30.0435
      -------------------------------------------------------------
                  HL-Gap            0.0378168 Eh            1.0290 eV

     #   Z          covCN         q      C6AA      α(0)
     1   7 N        1.774    -0.269    27.791     7.806
     2   6 C        2.827     0.102    25.739     8.313
     3   6 C        3.908     0.006    20.414     6.422
     4   6 C        2.974     0.002    27.976     8.676
     5   6 C        2.921    -0.080    30.010     8.984
     6   6 C        2.862     0.129    25.172     8.224
     7   8 O        1.706    -0.231    17.832     5.701
     8   6 C        3.644     0.028    20.442     6.499
     9   6 C        2.864     0.128    25.190     8.227
    10   8 O        1.706    -0.230    17.809     5.698
    11   6 C        3.645     0.027    20.451     6.499
    12   6 C        2.914    -0.074    29.858     8.960
    13   6 C        2.921    -0.053    29.323     8.880
    14   6 C        3.813    -0.065    21.736     6.636
    15   6 C        3.802    -0.069    21.811     6.649
    16   6 C        2.843     0.004    27.931     8.661
    17   7 N        2.729     0.005    21.173     6.834
    18   6 C        3.753    -0.020    20.981     6.532
    19   6 C        3.805    -0.066    21.769     6.642
    20   6 C        3.863    -0.043    21.304     6.564
    21   6 C        2.909    -0.041    29.018     8.833
    22   6 C        1.982    -0.124    34.521     9.488
    23   6 C        2.886     0.154    24.660     8.141
    24   8 O        1.705    -0.187    17.126     5.587
    25   6 C        3.662     0.019    20.528     6.500
    26   6 C        2.854     0.132    25.105     8.212
    27   8 O        1.705    -0.233    17.859     5.706
    28   6 C        3.648     0.027    20.444     6.497
    29   6 C        2.907    -0.098    30.463     9.050
    30   6 C        3.699    -0.069    21.985     6.706
    31   6 C        3.853    -0.007    20.670     6.466
    32   6 C        3.756    -0.118    22.824     6.812
    33   6 C        3.755    -0.118    22.823     6.812
    34   1 H        0.926     0.052     2.301     2.372
    35   1 H        0.924     0.054     2.276     2.359
    36   1 H        0.925     0.081     1.972     2.196
    37   1 H        0.924     0.046     2.365     2.405
    38   1 H        0.924     0.055     2.259     2.350
    39   1 H        0.925     0.081     1.973     2.197
    40   1 H        0.924     0.047     2.353     2.399
    41   1 H        0.926     0.052     2.298     2.371
    42   1 H        0.926     0.039     2.459     2.452
    43   1 H        0.925     0.059     2.210     2.325
    44   1 H        0.924     0.053     2.280     2.361
    45   1 H        0.925     0.066     2.135     2.285
    46   1 H        0.923     0.078     1.999     2.211
    47   1 H        0.922     0.006     2.957     2.689
    48   1 H        0.926     0.067     2.114     2.274
    49   1 H        0.924     0.067     2.123     2.279
    50   1 H        0.924     0.072     2.068     2.249
    51   1 H        0.924     0.053     2.289     2.366
    52   1 H        0.924     0.053     2.280     2.361
    53   1 H        0.926     0.052     2.301     2.372
    54   1 H        0.930     0.121     1.605     1.981
    55   1 H        0.924     0.071     2.074     2.252
    56   1 H        0.924     0.068     2.110     2.272
    57   1 H        0.925     0.085     1.931     2.173
    58   1 H        0.925     0.083     1.949     2.183
    59   1 H        0.924     0.043     2.404     2.425
    60   1 H        0.924     0.053     2.288     2.365
    61   1 H        0.926     0.051     2.308     2.376
    62   1 H        0.924     0.074     2.046     2.237
    63   1 H        0.924     0.079     1.987     2.205
    64   1 H        0.925     0.077     2.012     2.218
    65   1 H        0.924     0.037     2.493     2.469
    66   1 H        0.925     0.069     2.100     2.266
    67   1 H        0.925     0.035     2.511     2.478
    68   1 H        0.925     0.051     2.310     2.377
    69   1 H        0.925     0.060     2.194     2.316
    70   1 H        0.925     0.034     2.528     2.487
    71   1 H        0.925     0.054     2.269     2.356
    72   1 H        0.860     0.157     1.356     1.824

Wiberg/Mayer (AO) data.
largest (>0.10) Wiberg bond orders for each atom

     #   Z sym  total        # sym  WBO       # sym  WBO       # sym  WBO
 ---------------------------------------------------------------------------
     1   7 N    3.039 --     2 C    1.957    72 H    0.942
     2   6 C    3.928 --     1 N    1.957     3 C    0.994    47 H    0.901
     3   6 C    3.976 --     2 C    0.994     4 C    0.969    14 C    0.958
                            31 C    0.942
     4   6 C    3.950 --    13 C    1.415     5 C    1.368     3 C    0.969
     5   6 C    3.963 --     6 C    1.402     4 C    1.368    34 H    0.958
     6   6 C    3.906 --     5 C    1.402     9 C    1.223     7 O    1.098
     7   8 O    2.253 --     6 C    1.098     8 C    0.978
     8   6 C    3.933 --     7 O    0.978    36 H    0.977    35 H    0.974
                            37 H    0.974
     9   6 C    3.903 --    12 C    1.393     6 C    1.223    10 O    1.100
    10   8 O    2.252 --     9 C    1.100    11 C    0.978
    11   6 C    3.932 --    10 O    0.978    39 H    0.977    40 H    0.974
                            38 H    0.973
    12   6 C    3.963 --    13 C    1.404     9 C    1.393    41 H    0.964
    13   6 C    3.955 --     4 C    1.415    12 C    1.404    42 H    0.963
    14   6 C    3.974 --    15 C    0.984    44 H    0.972    43 H    0.969
                             3 C    0.958
    15   6 C    3.986 --    16 C    1.059    14 C    0.984    45 H    0.960
                            46 H    0.926
    16   6 C    3.571 --    17 N    1.386    15 C    1.059    48 H    0.958
    17   7 N    3.463 --    16 C    1.386    30 C    1.000    18 C    0.987
    18   6 C    3.956 --    17 N    0.987    19 C    0.987    49 H    0.964
                            50 H    0.963
    19   6 C    3.960 --    18 C    0.987    51 H    0.975    52 H    0.973
                            20 C    0.959
    20   6 C    3.923 --    29 C    1.004    21 C    0.963    19 C    0.959
                            54 H    0.933
    21   6 C    3.805 --    22 C    1.759    20 C    0.963    53 H    0.959
    22   6 C    3.304 --    21 C    1.759    23 C    1.367
    23   6 C    3.718 --    22 C    1.367    24 O    1.176    26 C    1.045
    24   8 O    2.303 --    23 C    1.176    25 C    0.964
    25   6 C    3.913 --    57 H    0.977    56 H    0.970    55 H    0.967
                            24 O    0.964
    26   6 C    3.892 --    29 C    1.636    27 O    1.096    23 C    1.045
    27   8 O    2.261 --    26 C    1.096    28 C    0.975    29 C    0.119
    28   6 C    3.931 --    58 H    0.977    59 H    0.975    27 O    0.975
                            60 H    0.974
    29   6 C    3.845 --    26 C    1.636    20 C    1.004    61 H    0.957
                            27 O    0.119
    30   6 C    3.959 --    17 N    1.000    64 H    0.977    62 H    0.966
                            63 H    0.964
    31   6 C    3.973 --    33 C    1.009    32 C    1.008    65 H    0.960
                             3 C    0.942
    32   6 C    3.979 --    31 C    1.008    67 H    0.982    68 H    0.981
                            66 H    0.974
    33   6 C    3.983 --    31 C    1.009    70 H    0.983    71 H    0.980
                            69 H    0.977
    34   1 H    0.996 --     5 C    0.958
    35   1 H    0.994 --     8 C    0.974
    36   1 H    0.993 --     8 C    0.977
    37   1 H    0.994 --     8 C    0.974
    38   1 H    0.993 --    11 C    0.973
    39   1 H    0.993 --    11 C    0.977
    40   1 H    0.994 --    11 C    0.974
    41   1 H    0.996 --    12 C    0.964
    42   1 H    0.998 --    13 C    0.963
    43   1 H    0.995 --    14 C    0.969
    44   1 H    0.996 --    14 C    0.972
    45   1 H    0.995 --    15 C    0.960
    46   1 H    0.968 --    15 C    0.926
    47   1 H    0.987 --     2 C    0.901
    48   1 H    0.995 --    16 C    0.958
    49   1 H    0.992 --    18 C    0.964
    50   1 H    0.993 --    18 C    0.963
    51   1 H    0.997 --    19 C    0.975
    52   1 H    0.994 --    19 C    0.973
    53   1 H    0.986 --    21 C    0.959
    54   1 H    0.971 --    20 C    0.933
    55   1 H    0.992 --    25 C    0.967
    56   1 H    0.988 --    25 C    0.970
    57   1 H    0.991 --    25 C    0.977
    58   1 H    0.992 --    28 C    0.977
    59   1 H    0.996 --    28 C    0.975
    60   1 H    0.995 --    28 C    0.974
    61   1 H    0.992 --    29 C    0.957
    62   1 H    0.984 --    30 C    0.966
    63   1 H    0.988 --    30 C    0.964
    64   1 H    0.993 --    30 C    0.977
    65   1 H    0.993 --    31 C    0.960
    66   1 H    0.991 --    32 C    0.974
    67   1 H    0.997 --    32 C    0.982
    68   1 H    0.994 --    32 C    0.981
    69   1 H    0.993 --    33 C    0.977
    70   1 H    0.997 --    33 C    0.983
    71   1 H    0.994 --    33 C    0.980
    72   1 H    0.970 --     1 N    0.942
 ---------------------------------------------------------------------------

molecular dipole:
                 x           y           z       tot (Debye)
 q only:        1.234      -0.191      -1.076
   full:        1.523      -0.534      -1.365       5.372

           -------------------------------------------------
          | TOTAL ENERGY             -100.718783159421 Eh   |
          | GRADIENT NORM               0.003663012621 Eh/α |
          | HOMO-LUMO GAP               1.029046326726 eV   |
           -------------------------------------------------

 * finished run on 2024/04/06 at 11:16:56.823
