   * xtb version 6.6.1 (8d0f1dd) compiled by 'conda@1efc2f54142f' on 2023-08-01
          program call               : xtb xtbopt.xyz --opt crude --input .xc2 --gfn2

   ID    Z sym.   atoms
    1    7 N      1, 17
    2    6 C      2-6, 8, 9, 11-16, 18-23, 25, 26, 28-33
    3    8 O      7, 10, 24, 27
    4    1 H      34-72
########################################################################
[WARNING] Please study the warnings concerning your input carefully
-1- readin_getIntValue: could not parse ''
########################################################################

          :  Hamiltonian                  GFN2-xTB          :
 * total energy  :   -99.1892006 Eh     change       -0.2233946E-10 Eh
 * total energy  :   -99.2993424 Eh     change       -0.1101418E+00 Eh
 * total energy  :   -99.3010415 Eh     change       -0.1699116E-02 Eh
 * total energy  :   -99.3019716 Eh     change       -0.9300707E-03 Eh
 * total energy  :   -99.3020936 Eh     change       -0.1220089E-03 Eh
   *** GEOMETRY OPTIMIZATION CONVERGED AFTER 5 ITERATIONS ***

 final structure:
================
72
 xtb: 6.6.1 (8d0f1dd)
N           -1.67863549218193        2.77550888674762        2.28744215110891
C           -1.65390464684000        2.08340077518444        1.24851473818227
C           -2.81758453270413        1.89942366606290        0.31423148854877
C           -3.30217062895662        0.45915350980328        0.38596044704320
C           -4.21819770633232       -0.01112915750312       -0.55729746310965
C           -4.70102010394823       -1.30808995113410       -0.51362785453678
O           -5.58670727361300       -1.83926760116297       -1.38254112205488
C           -6.15478183484274       -1.01797772345207       -2.37513812618033
C           -4.25451978731821       -2.18691222648848        0.50975862900943
O           -4.77341925639422       -3.43108275542497        0.47290925439028
C           -4.44780160703786       -4.33949069599117        1.49874759401187
C           -3.34848329026508       -1.71282733552612        1.44472869575867
C           -2.87972840327875       -0.40641738756784        1.38261792672340
C           -2.27374274555070        2.20749486383691       -1.10504961629902
C           -1.35893968962405        1.11475537946000       -1.68300246496740
C           -0.00530482536681        1.09036411017385       -1.08489054348076
N            0.67275422877371       -0.00681255430552       -0.75539706832634
C            2.09848040219643        0.06646414149427       -0.53436124708275
C            2.87337960989642       -0.22966953157919       -1.82722166712941
C            4.39215765442456       -0.11259770508216       -1.61810851239045
C            4.75443393590555        1.28542478593162       -1.17747952470101
C            5.81655693188361        1.46411498437769       -0.39505060022383
C            6.51894073349474        0.44673892524291        0.21681438541388
O            7.72459272782343        0.53772890072014        0.75622519006661
C            8.42527731939133        1.74431816542638        0.53051937586016
C            5.84288132371864       -0.84816249015317        0.30514220001204
O            6.34265176783607       -1.68540808994303        1.23404339624472
C            5.85579947898977       -3.00687945921129        1.28461206225079
C            4.88315184332903       -1.11681274809400       -0.61077798428075
C            0.06057726275742       -1.31326231009134       -0.75357861006464
C           -4.02167599418870        2.83507474182295        0.63167385656515
C           -4.65096000752999        2.50119159321312        1.98190509998504
C           -3.65826562723884        4.31660379381845        0.58462806854518
H           -4.56892997789023        0.65303233539166       -1.32948809322052
H           -6.68566956437846       -0.16753389245218       -1.93690593810972
H           -6.86417011456857       -1.64996057057263       -2.90571502654350
H           -5.39885055872446       -0.65540362689108       -3.07959243841421
H           -4.75005178259932       -3.96109179233563        2.47973463014212
H           -5.00640765777595       -5.24592539238737        1.27392327700011
H           -3.37711770897699       -4.56760242190083        1.50900189545908
H           -3.00645294224489       -2.35098744629225        2.24324584146815
H           -2.19738016907959       -0.06534081391719        2.14571500943998
H           -3.11681672053373        2.33941636674384       -1.78209765145577
H           -1.72622091448298        3.15025139076477       -1.07494901859877
H           -1.85015124126507        0.14614007806384       -1.60786719999698
H           -1.23327987188321        1.34068952842769       -2.75063341007949
H           -0.74987899175504        1.56056532647888        0.87645404713750
H            0.54917593819099        2.01712897240816       -1.07064175441656
H            2.38384404072595       -0.65112123667482        0.23869833151605
H            2.36061891054660        1.06558606404003       -0.17878251475475
H            2.55976684207454        0.47555541456608       -2.59935480275594
H            2.63521997496391       -1.23776168111312       -2.17162598927542
H            4.14705489349846        2.10405039403027       -1.53046251539367
H            4.86381215195944       -0.33448802420173       -2.58651828997054
H            7.75880118914589        2.60084204031729        0.67036517995073
H            8.82342739950449        1.77135098858480       -0.48744568532610
H            9.24358136036464        1.76927243785124        1.24649098246650
H            6.38738483983316       -3.48662195578095        2.10377655750032
H            4.78013142002100       -3.02599208726452        1.48775579965184
H            6.06136188799152       -3.54283727056017        0.35336963140352
H            4.46510044251990       -2.10728908282884       -0.69816224772604
H           -0.12007027583048       -1.67358923131561       -1.76927519714271
H           -0.89048816770819       -1.28590727183256       -0.21740947926899
H            0.72021586280333       -2.01584289744205       -0.24956873594505
H           -4.77205717266244        2.64544900696076       -0.14460915851991
H           -3.94083299363651        2.69015987995939        2.78037880332915
H           -4.96233277414482        1.46032340507762        2.02409936400477
H           -5.52565050339839        3.12652773330709        2.13996779112828
H           -2.89244989236354        4.54055381679166        1.32075234702135
H           -3.31027893404399        4.61914675016524       -0.39949731700599
H           -4.53935261365752        4.90715786611481        0.82133105340834
H           -0.82388178075148        2.85127492161315        2.82985460959296

          :  Hamiltonian                  GFN2-xTB          :
         :: total energy             -99.302093608593 Eh    ::
         :: gradient norm              0.003733306570 Eh/a0 ::
         :: HOMO-LUMO gap              1.007747995547 eV    ::
         :: SCC energy              -100.658969427101 Eh    ::
         :: -> dispersion             -0.075354848043 Eh    ::
         :: repulsion energy           1.355369499178 Eh    ::

    * Orbital Energies and Occupations

         #    Occupation            Energy/Eh            Energy/eV
      -------------------------------------------------------------
         1        2.0000           -0.8188629             -22.2824
       ...           ...                  ...                  ...
        78        1.9990           -0.5357141             -14.5775
        79        1.9983           -0.5271605             -14.3448
        80        1.9983           -0.5265176             -14.3273
        81        1.9975           -0.5207849             -14.1713
        82        1.9960           -0.5132873             -13.9673
        83        1.9953           -0.5106222             -13.8947
        84        1.9944           -0.5079778             -13.8228
        85        1.9922           -0.5026577             -13.6780
        86        1.9815           -0.4888565             -13.3025
        87        1.9719           -0.4821707             -13.1205
        88        1.9395           -0.4697598             -12.7828
        89        1.8760           -0.4578611             -12.4590
        90        1.4930           -0.4319534             -11.7540 (HOMO)
        91        0.4424           -0.3949193             -10.7463 (LUMO)
        92        0.3081           -0.3878835             -10.5548
        93        0.0146           -0.3370907              -9.1727
        94        0.0036           -0.3147953              -8.5660
        95        0.0030           -0.3116634              -8.4808
        96        0.0015           -0.3014156              -8.2019
        97        0.0000           -0.2268874              -6.1739
        98        0.0000           -0.1889847              -5.1425
        99                         -0.1395238              -3.7966
       100                         -0.0671021              -1.8259
       101                         -0.0644988              -1.7551
       ...                                ...                  ...
       171                          0.5741607              15.6237
      -------------------------------------------------------------
                  HL-Gap            0.0370341 Eh            1.0077 eV

     #   Z          covCN         q      C6AA      α(0)
     1   7 N        1.774    -0.268    27.788     7.806
     2   6 C        2.827     0.102    25.741     8.314
     3   6 C        3.908     0.006    20.413     6.422
     4   6 C        2.974     0.002    27.977     8.676
     5   6 C        2.920    -0.080    30.009     8.983
     6   6 C        2.862     0.129    25.173     8.224
     7   8 O        1.706    -0.231    17.831     5.701
     8   6 C        3.644     0.028    20.440     6.498
     9   6 C        2.864     0.128    25.190     8.227
    10   8 O        1.706    -0.230    17.808     5.698
    11   6 C        3.645     0.027    20.450     6.499
    12   6 C        2.914    -0.074    29.858     8.960
    13   6 C        2.921    -0.053    29.323     8.880
    14   6 C        3.813    -0.065    21.734     6.636
    15   6 C        3.802    -0.069    21.811     6.649
    16   6 C        2.844     0.004    27.926     8.661
    17   7 N        2.729     0.005    21.180     6.835
    18   6 C        3.754    -0.019    20.962     6.528
    19   6 C        3.806    -0.065    21.741     6.638
    20   6 C        3.863    -0.015    20.806     6.487
    21   6 C        2.909    -0.037    28.923     8.818
    22   6 C        1.983    -0.124    34.524     9.489
    23   6 C        2.886     0.154    24.654     8.140
    24   8 O        1.705    -0.186    17.116     5.586
    25   6 C        3.663     0.018    20.534     6.500
    26   6 C        2.854     0.132    25.101     8.212
    27   8 O        1.705    -0.233    17.857     5.705
    28   6 C        3.647     0.027    20.446     6.497
    29   6 C        2.907    -0.094    30.357     9.034
    30   6 C        3.699    -0.068    21.981     6.705
    31   6 C        3.853    -0.007    20.670     6.466
    32   6 C        3.756    -0.119    22.825     6.812
    33   6 C        3.755    -0.118    22.823     6.812
    34   1 H        0.926     0.052     2.300     2.372
    35   1 H        0.924     0.054     2.276     2.359
    36   1 H        0.925     0.081     1.972     2.196
    37   1 H        0.924     0.046     2.366     2.405
    38   1 H        0.924     0.055     2.260     2.351
    39   1 H        0.925     0.081     1.973     2.196
    40   1 H        0.924     0.047     2.353     2.399
    41   1 H        0.926     0.052     2.298     2.371
    42   1 H        0.926     0.039     2.459     2.452
    43   1 H        0.925     0.059     2.209     2.324
    44   1 H        0.924     0.053     2.280     2.362
    45   1 H        0.925     0.066     2.135     2.285
    46   1 H        0.923     0.078     1.999     2.211
    47   1 H        0.922     0.006     2.950     2.686
    48   1 H        0.926     0.067     2.115     2.274
    49   1 H        0.924     0.066     2.128     2.281
    50   1 H        0.924     0.071     2.077     2.254
    51   1 H        0.924     0.054     2.272     2.357
    52   1 H        0.924     0.054     2.265     2.353
    53   1 H        0.926     0.052     2.297     2.370
    54   1 H        0.923     0.077     2.008     2.216
    55   1 H        0.924     0.072     2.067     2.249
    56   1 H        0.924     0.068     2.108     2.270
    57   1 H        0.925     0.085     1.927     2.171
    58   1 H        0.925     0.083     1.949     2.183
    59   1 H        0.924     0.044     2.402     2.424
    60   1 H        0.924     0.053     2.285     2.364
    61   1 H        0.926     0.051     2.302     2.373
    62   1 H        0.924     0.074     2.047     2.237
    63   1 H        0.924     0.079     1.987     2.204
    64   1 H        0.925     0.077     2.014     2.219
    65   1 H        0.924     0.037     2.493     2.469
    66   1 H        0.925     0.069     2.100     2.266
    67   1 H        0.925     0.035     2.511     2.478
    68   1 H        0.925     0.051     2.309     2.376
    69   1 H        0.925     0.060     2.194     2.316
    70   1 H        0.925     0.034     2.528     2.486
    71   1 H        0.925     0.054     2.269     2.356
    72   1 H        0.860     0.157     1.356     1.824

Wiberg/Mayer (AO) data.
largest (>0.10) Wiberg bond orders for each atom

     #   Z sym  total        # sym  WBO       # sym  WBO       # sym  WBO
 ---------------------------------------------------------------------------
     1   7 N    3.040 --     2 C    1.957    72 H    0.942
     2   6 C    3.928 --     1 N    1.957     3 C    0.995    47 H    0.899
     3   6 C    3.976 --     2 C    0.995     4 C    0.969    14 C    0.958
                            31 C    0.942
     4   6 C    3.950 --    13 C    1.415     5 C    1.368     3 C    0.969
     5   6 C    3.963 --     6 C    1.402     4 C    1.368    34 H    0.958
     6   6 C    3.906 --     5 C    1.402     9 C    1.223     7 O    1.098
     7   8 O    2.253 --     6 C    1.098     8 C    0.978
     8   6 C    3.933 --     7 O    0.978    36 H    0.977    35 H    0.974
                            37 H    0.974
     9   6 C    3.903 --    12 C    1.393     6 C    1.223    10 O    1.100
    10   8 O    2.252 --     9 C    1.100    11 C    0.978
    11   6 C    3.932 --    10 O    0.978    39 H    0.977    40 H    0.974
                            38 H    0.973
    12   6 C    3.963 --    13 C    1.404     9 C    1.393    41 H    0.964
    13   6 C    3.955 --     4 C    1.415    12 C    1.404    42 H    0.963
    14   6 C    3.974 --    15 C    0.984    44 H    0.972    43 H    0.969
                             3 C    0.958
    15   6 C    3.986 --    16 C    1.059    14 C    0.984    45 H    0.960
                            46 H    0.926
    16   6 C    3.572 --    17 N    1.385    15 C    1.059    48 H    0.958
    17   7 N    3.463 --    16 C    1.385    30 C    1.000    18 C    0.988
    18   6 C    3.957 --    17 N    0.988    19 C    0.984    49 H    0.964
                            50 H    0.963
    19   6 C    3.962 --    18 C    0.984    51 H    0.975    52 H    0.973
                            20 C    0.971
    20   6 C    3.932 --    29 C    1.018    21 C    0.976    19 C    0.971
                            54 H    0.911
    21   6 C    3.799 --    22 C    1.743    20 C    0.976    53 H    0.958
    22   6 C    3.280 --    21 C    1.743    23 C    1.358
    23   6 C    3.716 --    22 C    1.358    24 O    1.177    26 C    1.053
    24   8 O    2.303 --    23 C    1.177    25 C    0.964
    25   6 C    3.912 --    57 H    0.977    56 H    0.970    55 H    0.967
                            24 O    0.964
    26   6 C    3.892 --    29 C    1.626    27 O    1.096    23 C    1.053
    27   8 O    2.260 --    26 C    1.096    28 C    0.975    29 C    0.117
    28   6 C    3.931 --    58 H    0.977    59 H    0.975    27 O    0.975
                            60 H    0.974
    29   6 C    3.844 --    26 C    1.626    20 C    1.018    61 H    0.957
                            27 O    0.117
    30   6 C    3.959 --    17 N    1.000    64 H    0.977    62 H    0.966
                            63 H    0.964
    31   6 C    3.973 --    33 C    1.009    32 C    1.008    65 H    0.960
                             3 C    0.942
    32   6 C    3.979 --    31 C    1.008    67 H    0.982    68 H    0.981
                            66 H    0.974
    33   6 C    3.983 --    31 C    1.009    70 H    0.983    71 H    0.980
                            69 H    0.977
    34   1 H    0.996 --     5 C    0.958
    35   1 H    0.994 --     8 C    0.974
    36   1 H    0.993 --     8 C    0.977
    37   1 H    0.994 --     8 C    0.974
    38   1 H    0.993 --    11 C    0.973
    39   1 H    0.993 --    11 C    0.977
    40   1 H    0.994 --    11 C    0.974
    41   1 H    0.996 --    12 C    0.964
    42   1 H    0.998 --    13 C    0.963
    43   1 H    0.995 --    14 C    0.969
    44   1 H    0.996 --    14 C    0.972
    45   1 H    0.995 --    15 C    0.960
    46   1 H    0.968 --    15 C    0.926
    47   1 H    0.987 --     2 C    0.899
    48   1 H    0.995 --    16 C    0.958
    49   1 H    0.992 --    18 C    0.964
    50   1 H    0.993 --    18 C    0.963
    51   1 H    0.996 --    19 C    0.975
    52   1 H    0.994 --    19 C    0.973
    53   1 H    0.986 --    21 C    0.958
    54   1 H    0.963 --    20 C    0.911
    55   1 H    0.992 --    25 C    0.967
    56   1 H    0.988 --    25 C    0.970
    57   1 H    0.991 --    25 C    0.977
    58   1 H    0.992 --    28 C    0.977
    59   1 H    0.996 --    28 C    0.975
    60   1 H    0.995 --    28 C    0.974
    61   1 H    0.992 --    29 C    0.957
    62   1 H    0.984 --    30 C    0.966
    63   1 H    0.988 --    30 C    0.964
    64   1 H    0.993 --    30 C    0.977
    65   1 H    0.993 --    31 C    0.960
    66   1 H    0.991 --    32 C    0.974
    67   1 H    0.997 --    32 C    0.982
    68   1 H    0.994 --    32 C    0.981
    69   1 H    0.993 --    33 C    0.977
    70   1 H    0.997 --    33 C    0.983
    71   1 H    0.994 --    33 C    0.980
    72   1 H    0.970 --     1 N    0.942
 ---------------------------------------------------------------------------

molecular dipole:
                 x           y           z       tot (Debye)
 q only:        1.207      -0.183      -1.032
   full:        1.488      -0.534      -1.348       5.281

           -------------------------------------------------
          | TOTAL ENERGY              -99.302093608593 Eh   |
          | GRADIENT NORM               0.003733306570 Eh/α |
          | HOMO-LUMO GAP               1.007747995547 eV   |
           -------------------------------------------------

 * finished run on 2024/04/06 at 11:16:57.965
