   * xtb version 6.6.1 (8d0f1dd) compiled by 'conda@1efc2f54142f' on 2023-08-01
          program call               : xtb struc.xyz --opt loose --input .xc1 --gfn2

   ID    Z sym.   atoms
    1    7 N      1, 17
    2    6 C      2-6, 8, 9, 11-16, 18-23, 25, 26, 28-33
    3    8 O      7, 10, 24, 27
    4    1 H      34-72
constraining bond 4 68 to    4.7133300 Å, actual value:    3.8950774 Å

          :  Hamiltonian                  GFN2-xTB          :
 * total energy  :   -99.5236789 Eh     change       -0.4035485E-08 Eh
 * total energy  :   -99.7328638 Eh     change       -0.2091848E+00 Eh
 * total energy  :   -99.9967071 Eh     change       -0.2638434E+00 Eh
 * total energy  :  -100.3635417 Eh     change       -0.3668345E+00 Eh
 * total energy  :  -100.8232374 Eh     change       -0.4596957E+00 Eh
 * total energy  :  -101.2931199 Eh     change       -0.4698825E+00 Eh
 * total energy  :  -100.7385247 Eh     change        0.5545952E+00 Eh
 * total energy  :  -101.4747595 Eh     change       -0.7362348E+00 Eh
 * total energy  :  -101.5592835 Eh     change       -0.8452399E-01 Eh
 * total energy  :  -101.6853207 Eh     change       -0.1260372E+00 Eh
 * total energy  :  -102.0740452 Eh     change       -0.1398687E-03 Eh
 * total energy  :  -102.0741455 Eh     change       -0.1002922E-03 Eh
 * total energy  :  -102.0742163 Eh     change       -0.7082499E-04 Eh
 * total energy  :  -102.0742838 Eh     change       -0.6752889E-04 Eh
 * total energy  :  -102.0743535 Eh     change       -0.6966477E-04 Eh
 * total energy  :  -102.0744243 Eh     change       -0.7083915E-04 Eh
 * total energy  :  -102.0744852 Eh     change       -0.6081418E-04 Eh
 * total energy  :  -102.0745380 Eh     change       -0.5285590E-04 Eh
 * total energy  :  -102.0745809 Eh     change       -0.4293231E-04 Eh
   *** GEOMETRY OPTIMIZATION CONVERGED AFTER 84 ITERATIONS ***

 final structure:
================
72
 xtb: 6.6.1 (8d0f1dd)
N           -2.61033465904282        3.14071170816280        2.29927947156186
C           -2.19083037482247        2.24742550998131        1.34959586540547
C           -2.77959653588204        2.44319373710553        0.15954079995988
C           -4.76419424769119        0.17464280762486        1.62357690142025
C           -5.30178995002294       -0.01609785587010        0.34329178049896
C           -5.02647131080772       -1.13836852802642       -0.41918010929520
O           -5.49708306089701       -1.37627433988052       -1.66583431619946
C           -6.50234224951325       -0.53869590692124       -2.18742208833453
C           -4.18391395697261       -2.14628694155414        0.11372752871985
O           -3.96889457158563       -3.21600683745868       -0.69259602607896
C           -3.34940329997425       -4.35889573845888       -0.14996749715302
C           -3.65040842574591       -1.97486194662503        1.38194407871497
C           -3.93373021581308       -0.83071960169009        2.11369248224995
C           -2.56285942515580        1.73489955937851       -1.13433705817125
C           -1.78047211831397        0.43081949688442       -0.98429297581929
C           -0.36460373781801        0.66098527877506       -0.62923658778501
N            0.44576583497616       -0.29923405208994       -0.20016176244829
C            1.84592926041410       -0.04555956475650        0.03986851171361
C            2.72803533122956       -0.48275261520463       -1.14637370392977
C            4.17343398141005       -0.22278545769713       -0.82508735834963
C            4.73968471123567        1.01727248644636       -1.06711186258284
C            6.06178270395404        1.27089332860567       -0.73420290518825
C            6.84346551943438        0.28743149653629       -0.14671833358191
O            8.13304730254646        0.42257304001691        0.22113620244868
C            8.78514000621738        1.65093485640008       -0.00361112032322
C            6.27188033752313       -0.98933750871288        0.10374534903582
O            7.10291605136336       -1.88933601282212        0.67070250962443
C            6.63599789051447       -3.19283943235523        0.92115290764575
C            4.94838788373014       -1.21900219948424       -0.23504772829893
C           -0.02319120462007       -1.65687389961304       -0.07891133229689
C           -3.77285595698063        3.58040607825294        0.28109251822979
C           -3.72537430773616        3.91545019464327        1.78759205383255
C           -3.39290725389668        4.78097150764439       -0.58847634052109
H           -5.96305284616914        0.74304226278222       -0.04709319142494
H           -7.36520069658574       -0.48334405207864       -1.51795446061270
H           -6.80387729042297       -0.99719160688450       -3.12756605318282
H           -6.12682037230603        0.47136128352687       -2.38296196084488
H           -3.89670090708667       -4.73387405690470        0.72064773880497
H           -3.37458953421889       -5.10656779647891       -0.94086454750479
H           -2.30788182286520       -4.16435645246844        0.13051346841965
H           -3.02716343067670       -2.73977784620685        1.81878630047681
H           -3.50800140376812       -0.72532973347306        3.10146205624789
H           -3.53939546463722        1.51001284920690       -1.57149202909368
H           -2.04388944620976        2.39368734303894       -1.83745768896403
H           -2.27299521492626       -0.19535814311663       -0.23409052149513
H           -1.83487160932218       -0.12399954187967       -1.93028506316091
H           -1.43168803797061        1.53051830618278        1.61330189487895
H            0.05130035915528        1.65001199428083       -0.72513232055568
H            2.15661502960144       -0.58585014844779        0.93812060452981
H            1.99215434247493        1.02166541271074        0.21555989441630
H            2.43190721916696        0.08153371383733       -2.03214361076080
H            2.57387566097857       -1.54397434307529       -1.34606073292939
H            4.15496786650221        1.79758192223787       -1.53011981060175
H            6.47665796760385        2.24363223500127       -0.94132396511250
H            8.30396412557252        2.46680837405259        0.54463895510092
H            8.82036494834182        1.89702520732084       -1.06913905596739
H            9.79871626426685        1.51523810842933        0.36878631126807
H            7.48069498606812       -3.72850655150820        1.34993826695877
H            5.80807809368299       -3.19274696473216        1.63775867657721
H            6.32243209917268       -3.69144495769778       -0.00138432063922
H            4.50681101457733       -2.18666466632558       -0.05420834111332
H           -0.40316482196708       -2.02719828222330       -1.03341489555625
H           -0.83273844019251       -1.71248197474218        0.65296628554284
H            0.79124963843875       -2.29687405519000        0.24983387776590
H           -4.77276260561846        3.24766101066544       -0.01655033351299
H           -3.54428016877434        4.98006551508611        1.95765389044488
H           -4.65760953219185        3.64489997850507        2.29600120461854
H           -4.92202232606581        0.78131602169692        2.02082269749827
H           -2.38824743019528        5.11987294936223       -0.34730696737947
H           -3.43139096854963        4.51742177488874       -1.64236475489626
H           -4.08758123715737        5.59888127598586       -0.41742317430596
H           -2.56155836200762        2.92276050988162        3.27944066395431

          :  Hamiltonian                  GFN2-xTB          :
         :: total energy            -102.074580941708 Eh    ::
         :: gradient norm              0.003127732159 Eh/a0 ::
         :: HOMO-LUMO gap              1.471510067182 eV    ::
         :: SCC energy              -100.836988151930 Eh    ::
         :: -> dispersion             -0.072255940642 Eh    ::
         :: repulsion energy           1.576726452126 Eh    ::

    * Orbital Energies and Occupations

         #    Occupation            Energy/Eh            Energy/eV
      -------------------------------------------------------------
         1        2.0000           -0.8036239             -21.8677
       ...           ...                  ...                  ...
        78        1.9994           -0.5332410             -14.5102
        79        1.9992           -0.5299119             -14.4196
        80        1.9990           -0.5258344             -14.3087
        81        1.9989           -0.5238184             -14.2538
        82        1.9988           -0.5229662             -14.2306
        83        1.9987           -0.5213007             -14.1853
        84        1.9980           -0.5152230             -14.0199
        85        1.9977           -0.5127615             -13.9530
        86        1.9874           -0.4857388             -13.2176
        87        1.9828           -0.4807781             -13.0826
        88        1.9202           -0.4560025             -12.4085
        89        1.8749           -0.4485102             -12.2046
        90        1.7920           -0.4397474             -11.9661 (HOMO)
        91        0.4413           -0.3856704             -10.4946 (LUMO)
        92        0.0050           -0.3107610              -8.4562
        93        0.0038           -0.3066437              -8.3442
        94        0.0034           -0.3046369              -8.2896
        95        0.0029           -0.3021548              -8.2220
        96        0.0011           -0.2863343              -7.7916
        97        0.0000           -0.1830007              -4.9797
        98        0.0000           -0.1795702              -4.8864
        99                         -0.1276903              -3.4746
       100                         -0.0808680              -2.2005
       101                         -0.0621749              -1.6919
       ...                                ...                  ...
       171                          1.5286827              41.5976
      -------------------------------------------------------------
                  HL-Gap            0.0540770 Eh            1.4715 eV

     #   Z          covCN         q      C6AA      α(0)
     1   7 N        2.729    -0.151    24.261     7.315
     2   6 C        2.908     0.013    27.727     8.634
     3   6 C        3.000    -0.027    28.664     8.782
     4   6 C        2.911    -0.077    29.933     8.971
     5   6 C        2.921    -0.074    29.836     8.957
     6   6 C        2.859     0.126    25.234     8.234
     7   8 O        1.705    -0.243    18.021     5.731
     8   6 C        3.644     0.030    20.399     6.492
     9   6 C        2.865     0.124    25.277     8.241
    10   8 O        1.705    -0.245    18.063     5.738
    11   6 C        3.644     0.030    20.406     6.493
    12   6 C        2.911    -0.077    29.930     8.971
    13   6 C        2.923    -0.050    29.234     8.867
    14   6 C        3.806    -0.064    21.719     6.634
    15   6 C        3.805    -0.069    21.816     6.649
    16   6 C        2.847    -0.001    28.050     8.680
    17   7 N        2.729     0.013    21.030     6.811
    18   6 C        3.754    -0.019    20.965     6.529
    19   6 C        3.807    -0.070    21.838     6.652
    20   6 C        2.969    -0.002    28.072     8.691
    21   6 C        2.922    -0.050    29.245     8.868
    22   6 C        2.914    -0.068    29.704     8.937
    23   6 C        2.865     0.132    25.114     8.215
    24   8 O        1.706    -0.227    17.760     5.690
    25   6 C        3.645     0.026    20.464     6.502
    26   6 C        2.863     0.131    25.122     8.216
    27   8 O        1.706    -0.229    17.800     5.696
    28   6 C        3.645     0.029    20.428     6.496
    29   6 C        2.920    -0.080    30.010     8.983
    30   6 C        3.703    -0.070    21.993     6.705
    31   6 C        3.898    -0.019    20.862     6.493
    32   6 C        3.799    -0.006    20.685     6.476
    33   6 C        3.753    -0.112    22.706     6.795
    34   1 H        0.926     0.043     2.415     2.430
    35   1 H        0.924     0.052     2.290     2.366
    36   1 H        0.925     0.077     2.015     2.220
    37   1 H        0.924     0.042     2.421     2.433
    38   1 H        0.924     0.054     2.275     2.359
    39   1 H        0.925     0.076     2.019     2.222
    40   1 H        0.924     0.037     2.495     2.470
    41   1 H        0.926     0.040     2.447     2.446
    42   1 H        0.926     0.035     2.522     2.484
    43   1 H        0.924     0.058     2.224     2.332
    44   1 H        0.924     0.061     2.191     2.315
    45   1 H        0.924     0.072     2.058     2.244
    46   1 H        0.923     0.078     1.998     2.210
    47   1 H        0.926     0.033     2.543     2.494
    48   1 H        0.926     0.073     2.051     2.239
    49   1 H        0.924     0.068     2.107     2.270
    50   1 H        0.924     0.069     2.094     2.263
    51   1 H        0.924     0.055     2.257     2.349
    52   1 H        0.924     0.054     2.275     2.359
    53   1 H        0.926     0.043     2.408     2.426
    54   1 H        0.926     0.056     2.246     2.343
    55   1 H        0.924     0.052     2.298     2.371
    56   1 H        0.924     0.054     2.274     2.358
    57   1 H        0.925     0.080     1.978     2.199
    58   1 H        0.925     0.080     1.982     2.202
    59   1 H        0.924     0.046     2.367     2.406
    60   1 H        0.924     0.050     2.315     2.379
    61   1 H        0.926     0.045     2.389     2.417
    62   1 H        0.924     0.078     1.995     2.209
    63   1 H        0.924     0.076     2.025     2.225
    64   1 H        0.925     0.080     1.977     2.199
    65   1 H        0.924     0.045     2.380     2.413
    66   1 H        0.924     0.065     2.144     2.290
    67   1 H        0.924     0.044     2.393     2.419
    68   1 H        0.931     0.097     1.813     2.105
    69   1 H        0.925     0.047     2.355     2.400
    70   1 H        0.925     0.047     2.355     2.400
    71   1 H        0.925     0.051     2.304     2.374
    72   1 H        0.860     0.163     1.316     1.797

Wiberg/Mayer (AO) data.
largest (>0.10) Wiberg bond orders for each atom

     #   Z sym  total        # sym  WBO       # sym  WBO       # sym  WBO
 ---------------------------------------------------------------------------
     1   7 N    3.271 --     2 C    1.185    32 C    1.001    72 H    0.946
     2   6 C    3.927 --     3 C    1.680     1 N    1.185    47 H    0.961
     3   6 C    3.857 --     2 C    1.680    14 C    1.026    31 C    0.995
     4   6 C    3.966 --    13 C    1.441     5 C    1.399    68 H    0.976
     5   6 C    3.969 --     6 C    1.403     4 C    1.399    34 H    0.964
     6   6 C    3.913 --     5 C    1.403     9 C    1.240     7 O    1.085
     7   8 O    2.243 --     6 C    1.085     8 C    0.980
     8   6 C    3.936 --     7 O    0.980    36 H    0.977    35 H    0.975
                            37 H    0.974
     9   6 C    3.911 --    12 C    1.395     6 C    1.240    10 O    1.080
    10   8 O    2.240 --     9 C    1.080    11 C    0.981
    11   6 C    3.938 --    10 O    0.981    39 H    0.978    38 H    0.975
                            40 H    0.975
    12   6 C    3.970 --    13 C    1.412     9 C    1.395    41 H    0.964
    13   6 C    3.965 --     4 C    1.441    12 C    1.412    42 H    0.971
    14   6 C    3.990 --     3 C    1.026    15 C    0.999    43 H    0.961
                            44 H    0.953
    15   6 C    3.988 --    16 C    1.063    14 C    0.999    45 H    0.939
                            46 H    0.928
    16   6 C    3.544 --    17 N    1.403    15 C    1.063    48 H    0.959
    17   7 N    3.465 --    16 C    1.403    30 C    1.001    18 C    0.989
    18   6 C    3.956 --    17 N    0.989    50 H    0.968    19 C    0.966
                            49 H    0.964
    19   6 C    3.977 --    20 C    1.007    51 H    0.972    52 H    0.972
                            18 C    0.966
    20   6 C    3.951 --    21 C    1.414    29 C    1.378    19 C    1.007
    21   6 C    3.956 --    20 C    1.414    22 C    1.414    53 H    0.968
    22   6 C    3.964 --    21 C    1.414    23 C    1.388    54 H    0.964
    23   6 C    3.902 --    22 C    1.388    26 C    1.225    24 O    1.104
    24   8 O    2.254 --    23 C    1.104    25 C    0.977
    25   6 C    3.931 --    24 O    0.977    57 H    0.977    55 H    0.973
                            56 H    0.973
    26   6 C    3.905 --    29 C    1.399    23 C    1.225    27 O    1.098
    27   8 O    2.254 --    26 C    1.098    28 C    0.980
    28   6 C    3.935 --    27 O    0.980    58 H    0.977    59 H    0.974
                            60 H    0.974
    29   6 C    3.962 --    26 C    1.399    20 C    1.378    61 H    0.963
    30   6 C    3.959 --    17 N    1.001    64 H    0.978    62 H    0.967
                            63 H    0.962
    31   6 C    3.988 --     3 C    0.995    33 C    0.994    32 C    0.990
                            65 H    0.957
    32   6 C    3.965 --     1 N    1.001    31 C    0.990    67 H    0.966
                            66 H    0.964
    33   6 C    3.982 --    31 C    0.994    69 H    0.987    70 H    0.984
                            71 H    0.983
    34   1 H    0.997 --     5 C    0.964
    35   1 H    0.995 --     8 C    0.975
    36   1 H    0.993 --     8 C    0.977
    37   1 H    0.995 --     8 C    0.974
    38   1 H    0.995 --    11 C    0.975
    39   1 H    0.994 --    11 C    0.978
    40   1 H    0.996 --    11 C    0.975
    41   1 H    0.997 --    12 C    0.964
    42   1 H    0.998 --    13 C    0.971
    43   1 H    0.992 --    14 C    0.961
    44   1 H    0.988 --    14 C    0.953
    45   1 H    0.981 --    15 C    0.939
    46   1 H    0.968 --    15 C    0.928
    47   1 H    0.999 --     2 C    0.961
    48   1 H    0.995 --    16 C    0.959
    49   1 H    0.991 --    18 C    0.964
    50   1 H    0.994 --    18 C    0.968
    51   1 H    0.996 --    19 C    0.972
    52   1 H    0.996 --    19 C    0.972
    53   1 H    0.998 --    21 C    0.968
    54   1 H    0.995 --    22 C    0.964
    55   1 H    0.993 --    25 C    0.973
    56   1 H    0.993 --    25 C    0.973
    57   1 H    0.993 --    25 C    0.977
    58   1 H    0.993 --    28 C    0.977
    59   1 H    0.994 --    28 C    0.974
    60   1 H    0.994 --    28 C    0.974
    61   1 H    0.997 --    29 C    0.963
    62   1 H    0.985 --    30 C    0.967
    63   1 H    0.986 --    30 C    0.962
    64   1 H    0.993 --    30 C    0.978
    65   1 H    0.988 --    31 C    0.957
    66   1 H    0.987 --    32 C    0.964
    67   1 H    0.986 --    32 C    0.966
    68   1 H    0.990 --     4 C    0.976
    69   1 H    0.997 --    33 C    0.987
    70   1 H    0.997 --    33 C    0.984
    71   1 H    0.997 --    33 C    0.983
    72   1 H    0.972 --     1 N    0.946
 ---------------------------------------------------------------------------

molecular dipole:
                 x           y           z       tot (Debye)
 q only:       -0.162       0.757       0.247
   full:       -0.429       0.661       0.488       2.356

           -------------------------------------------------
          | TOTAL ENERGY             -102.074580941708 Eh   |
          | GRADIENT NORM               0.003127732159 Eh/α |
          | HOMO-LUMO GAP               1.471510067182 eV   |
           -------------------------------------------------

 * finished run on 2024/04/06 at 11:15:55.496
