   * xtb version 6.6.1 (8d0f1dd) compiled by 'conda@1efc2f54142f' on 2023-08-01
          program call               : xtb xtbopt.xyz --opt crude --input .xc2 --gfn2

   ID    Z sym.   atoms
    1    7 N      1, 17
    2    6 C      2-6, 8, 9, 11-16, 18-23, 25, 26, 28-33
    3    8 O      7, 10, 24, 27
    4    1 H      34-72

          :  Hamiltonian                  GFN2-xTB          :
 * total energy  :   -99.2587292 Eh     change       -0.1705303E-11 Eh
 * total energy  :   -99.4157345 Eh     change       -0.1570053E+00 Eh
 * total energy  :   -99.4179308 Eh     change       -0.2196330E-02 Eh
 * total energy  :   -99.4184927 Eh     change       -0.5618434E-03 Eh
 * total energy  :   -99.4186639 Eh     change       -0.1712322E-03 Eh
   *** GEOMETRY OPTIMIZATION CONVERGED AFTER 5 ITERATIONS ***

 final structure:
================
72
 xtb: 6.6.1 (8d0f1dd)
N           -2.61193929869127        3.13800988074478        2.29655908263270
C           -2.19600556548300        2.24344888265414        1.34718408195093
C           -2.78374687939271        2.44266267954957        0.15737132908462
C           -4.75694205047377        0.12856861485242        1.60619038909785
C           -5.30390683163471       -0.02351104449044        0.33697538623625
C           -5.02236321432771       -1.14940426496158       -0.42484902263913
O           -5.49518497074726       -1.39291983924931       -1.67057907394868
C           -6.49047208871310       -0.54525255618605       -2.19484213998067
C           -4.17614211808292       -2.15404672631555        0.10953160320652
O           -3.95379625719844       -3.22064521544975       -0.70057344269636
C           -3.33824049911342       -4.36534560837750       -0.16017098631965
C           -3.64212166819772       -1.98917055841442        1.37807674891758
C           -3.92782186064604       -0.84875915413258        2.12217574404871
C           -2.56459299125300        1.73613269687930       -1.13684860615527
C           -1.78347640805714        0.43122328962571       -0.98728234134573
C           -0.36765586501371        0.65970903531691       -0.63068261256300
N            0.44167489422766       -0.30087835043336       -0.20012434071228
C            1.84148055992832       -0.04813647284932        0.04283112492173
C            2.72487281209002       -0.48207968144844       -1.14360867989842
C            4.17025812344772       -0.22197328201479       -0.82229446170435
C            4.73657037902586        1.01788421180170       -1.06509879387837
C            6.05910851898973        1.27129180815958       -0.73384131633423
C            6.84145421020566        0.28757397216330       -0.14771700711998
O            8.13166868175492        0.42231708203407        0.21785828881828
C            8.78314933424360        1.65085349168133       -0.00717112014939
C            6.26987279130559       -0.98904893345934        0.10347872445168
O            7.10196547838486       -1.88931326143643        0.66842473779007
C            6.63563954125279       -3.19276360643999        0.92015965650485
C            4.94573164173887       -1.21831635225416       -0.23312162890567
C           -0.02838997868612       -1.65826186996424       -0.07878718227861
C           -3.77227032788339        3.58240994387778        0.27888925331133
C           -3.72395767440316        3.91638674278905        1.78581216446896
C           -3.38560441866933        4.78047713925298       -0.59050710078401
H           -5.96443088867375        0.73710209242961       -0.04380153029177
H           -7.35683169472952       -0.48582087170822       -1.52976472404114
H           -6.79190134226392       -0.99394914729880       -3.13941724975386
H           -6.10556424252465        0.46286943368057       -2.38257628239899
H           -3.87864597713500       -4.73471174292750        0.71623261938161
H           -3.37323614352664       -5.11627746857532       -0.94707959912305
H           -2.29321793477725       -4.17655852118556        0.11014985767728
H           -3.01881581167005       -2.75875661376179        1.80739352076447
H           -3.51014650421295       -0.74400180192228        3.11062305173009
H           -3.53961283873564        1.51350991552764       -1.57804722787989
H           -2.04251713467797        2.39702507295398       -1.83673866779198
H           -2.27770071047399       -0.19467224943023       -0.23770746756852
H           -1.83781511183985       -0.12283652698822       -1.93406588088227
H           -1.44050663599947        1.52325716338353        1.60563749331317
H            0.04941942614438        1.64799887951267       -0.72862656620631
H            2.15065256945301       -0.59139746361825        0.93988308596455
H            1.98796091572631        1.01850866817956        0.22231519404289
H            2.42847362630109        0.08379093834640       -2.02818673751078
H            2.57143114775738       -1.54295002364999       -1.34547291767540
H            4.15144624002143        1.79820865461865       -1.52756270375761
H            6.47384321137797        2.24395878323433       -0.94150469491554
H            8.30294946739824        2.46611239787900        0.54278308048279
H            8.81605170005186        1.89790465129365       -1.07259459991173
H            9.79755343933521        1.51508018795918        0.36293013656913
H            7.48117510899680       -3.72800476958198        1.34785700725307
H            5.80884221471583       -3.19253185728507        1.63805122665359
H            6.32080400571066       -3.69188910203306       -0.00169686798706
H            4.50448316449153       -2.18593662232688       -0.05134450236500
H           -0.40460172296508       -2.02965325694169       -1.03445476997212
H           -0.84101480029814       -1.71257077801111        0.64981234175469
H            0.78484523125153       -2.29782516261003        0.25409861676764
H           -4.77331587110432        3.25436659806739       -0.01859846637021
H           -3.54211084112909        4.98039228463000        1.95843605992424
H           -4.65799168113974        3.64797386945133        2.29180611067048
H           -4.99473637277120        0.99931271694390        2.18428929378032
H           -2.38085962622394        5.11598479987948       -0.34588718963951
H           -3.42016293560779        4.51447633030975       -1.64357031176102
H           -4.07777637659092        5.60183148540484       -0.42433392216150
H           -2.55871867261697        2.92569588515018        3.27858056779945

          :  Hamiltonian                  GFN2-xTB          :
         :: total energy             -99.418663917939 Eh    ::
         :: gradient norm              0.008577672210 Eh/a0 ::
         :: HOMO-LUMO gap              1.464943241622 eV    ::
         :: SCC energy              -100.809293353239 Eh    ::
         :: -> dispersion             -0.072255836307 Eh    ::
         :: repulsion energy           1.389100931949 Eh    ::

    * Orbital Energies and Occupations

         #    Occupation            Energy/Eh            Energy/eV
      -------------------------------------------------------------
         1        2.0000           -0.8038690             -21.8744
       ...           ...                  ...                  ...
        78        1.9994           -0.5332281             -14.5099
        79        1.9992           -0.5299933             -14.4219
        80        1.9990           -0.5258350             -14.3087
        81        1.9988           -0.5231361             -14.2353
        82        1.9988           -0.5229482             -14.2301
        83        1.9987           -0.5212797             -14.1847
        84        1.9982           -0.5167465             -14.0614
        85        1.9977           -0.5127381             -13.9523
        86        1.9877           -0.4860773             -13.2268
        87        1.9828           -0.4807563             -13.0820
        88        1.9212           -0.4561900             -12.4136
        89        1.8749           -0.4484909             -12.2041
        90        1.7897           -0.4395249             -11.9601 (HOMO)
        91        0.4424           -0.3856893             -10.4951 (LUMO)
        92        0.0048           -0.3102564              -8.4425
        93        0.0037           -0.3058078              -8.3215
        94        0.0034           -0.3046206              -8.2891
        95        0.0029           -0.3021300              -8.2214
        96        0.0010           -0.2860332              -7.7834
        97        0.0000           -0.1817206              -4.9449
        98        0.0000           -0.1795446              -4.8857
        99                         -0.1278288              -3.4784
       100                         -0.0810910              -2.2066
       101                         -0.0624909              -1.7005
       ...                                ...                  ...
       171                          0.5848177              15.9137
      -------------------------------------------------------------
                  HL-Gap            0.0538357 Eh            1.4649 eV

     #   Z          covCN         q      C6AA      α(0)
     1   7 N        2.729    -0.150    24.236     7.312
     2   6 C        2.908     0.013    27.718     8.633
     3   6 C        3.000    -0.027    28.662     8.782
     4   6 C        2.916    -0.041    29.030     8.835
     5   6 C        2.916    -0.069    29.731     8.941
     6   6 C        2.864     0.127    25.209     8.230
     7   8 O        1.705    -0.242    18.004     5.729
     8   6 C        3.645     0.031    20.395     6.491
     9   6 C        2.863     0.123    25.289     8.243
    10   8 O        1.705    -0.246    18.083     5.741
    11   6 C        3.644     0.031    20.398     6.492
    12   6 C        2.915    -0.076    29.898     8.966
    13   6 C        2.917    -0.046    29.138     8.852
    14   6 C        3.806    -0.064    21.717     6.634
    15   6 C        3.805    -0.069    21.810     6.648
    16   6 C        2.847    -0.001    28.053     8.680
    17   7 N        2.729     0.013    21.033     6.811
    18   6 C        3.754    -0.019    20.964     6.529
    19   6 C        3.807    -0.070    21.838     6.652
    20   6 C        2.969    -0.002    28.072     8.691
    21   6 C        2.922    -0.050    29.245     8.868
    22   6 C        2.914    -0.068    29.704     8.937
    23   6 C        2.865     0.132    25.114     8.215
    24   8 O        1.706    -0.227    17.759     5.690
    25   6 C        3.645     0.026    20.464     6.501
    26   6 C        2.863     0.131    25.122     8.216
    27   8 O        1.706    -0.229    17.800     5.696
    28   6 C        3.645     0.029    20.428     6.496
    29   6 C        2.920    -0.080    30.010     8.983
    30   6 C        3.703    -0.069    21.991     6.705
    31   6 C        3.898    -0.019    20.858     6.492
    32   6 C        3.800    -0.005    20.665     6.472
    33   6 C        3.754    -0.112    22.707     6.795
    34   1 H        0.926     0.047     2.360     2.402
    35   1 H        0.924     0.052     2.290     2.366
    36   1 H        0.925     0.077     2.013     2.219
    37   1 H        0.924     0.042     2.423     2.434
    38   1 H        0.924     0.053     2.281     2.362
    39   1 H        0.925     0.076     2.020     2.223
    40   1 H        0.924     0.036     2.502     2.474
    41   1 H        0.926     0.041     2.435     2.440
    42   1 H        0.926     0.039     2.464     2.455
    43   1 H        0.924     0.057     2.231     2.336
    44   1 H        0.924     0.061     2.189     2.314
    45   1 H        0.924     0.072     2.065     2.247
    46   1 H        0.923     0.078     1.999     2.211
    47   1 H        0.926     0.033     2.540     2.492
    48   1 H        0.926     0.073     2.052     2.240
    49   1 H        0.924     0.068     2.108     2.270
    50   1 H        0.924     0.069     2.094     2.263
    51   1 H        0.924     0.055     2.257     2.350
    52   1 H        0.924     0.054     2.275     2.359
    53   1 H        0.926     0.043     2.408     2.427
    54   1 H        0.926     0.056     2.246     2.343
    55   1 H        0.924     0.052     2.298     2.371
    56   1 H        0.924     0.054     2.274     2.358
    57   1 H        0.925     0.080     1.978     2.200
    58   1 H        0.925     0.080     1.982     2.202
    59   1 H        0.924     0.046     2.367     2.406
    60   1 H        0.924     0.050     2.315     2.379
    61   1 H        0.926     0.045     2.390     2.417
    62   1 H        0.924     0.078     1.996     2.209
    63   1 H        0.924     0.075     2.027     2.226
    64   1 H        0.925     0.080     1.977     2.199
    65   1 H        0.924     0.045     2.379     2.412
    66   1 H        0.924     0.064     2.148     2.292
    67   1 H        0.924     0.044     2.400     2.423
    68   1 H        0.926     0.041     2.434     2.440
    69   1 H        0.925     0.047     2.355     2.400
    70   1 H        0.925     0.047     2.354     2.399
    71   1 H        0.925     0.051     2.304     2.373
    72   1 H        0.860     0.163     1.316     1.797

Wiberg/Mayer (AO) data.
largest (>0.10) Wiberg bond orders for each atom

     #   Z sym  total        # sym  WBO       # sym  WBO       # sym  WBO
 ---------------------------------------------------------------------------
     1   7 N    3.271 --     2 C    1.186    32 C    1.001    72 H    0.946
     2   6 C    3.927 --     3 C    1.679     1 N    1.186    47 H    0.961
     3   6 C    3.855 --     2 C    1.679    14 C    1.026    31 C    0.996
     4   6 C    3.968 --    13 C    1.449     5 C    1.406    68 H    0.970
     5   6 C    3.970 --     4 C    1.406     6 C    1.396    34 H    0.964
     6   6 C    3.914 --     5 C    1.396     9 C    1.242     7 O    1.086
     7   8 O    2.245 --     6 C    1.086     8 C    0.980
     8   6 C    3.936 --     7 O    0.980    36 H    0.977    35 H    0.975
                            37 H    0.974
     9   6 C    3.912 --    12 C    1.399     6 C    1.242    10 O    1.077
    10   8 O    2.237 --     9 C    1.077    11 C    0.982
    11   6 C    3.938 --    10 O    0.982    39 H    0.977    38 H    0.975
                            40 H    0.974
    12   6 C    3.970 --    13 C    1.402     9 C    1.399    41 H    0.964
    13   6 C    3.965 --     4 C    1.449    12 C    1.402    42 H    0.971
    14   6 C    3.990 --     3 C    1.026    15 C    0.999    43 H    0.961
                            44 H    0.953
    15   6 C    3.988 --    16 C    1.063    14 C    0.999    45 H    0.940
                            46 H    0.928
    16   6 C    3.543 --    17 N    1.403    15 C    1.063    48 H    0.959
    17   7 N    3.464 --    16 C    1.403    30 C    1.001    18 C    0.989
    18   6 C    3.956 --    17 N    0.989    50 H    0.968    19 C    0.966
                            49 H    0.964
    19   6 C    3.977 --    20 C    1.007    51 H    0.972    52 H    0.972
                            18 C    0.966
    20   6 C    3.951 --    21 C    1.415    29 C    1.378    19 C    1.007
    21   6 C    3.956 --    20 C    1.415    22 C    1.414    53 H    0.968
    22   6 C    3.964 --    21 C    1.414    23 C    1.388    54 H    0.964
    23   6 C    3.902 --    22 C    1.388    26 C    1.225    24 O    1.104
    24   8 O    2.255 --    23 C    1.104    25 C    0.977
    25   6 C    3.931 --    24 O    0.977    57 H    0.977    55 H    0.973
                            56 H    0.973
    26   6 C    3.905 --    29 C    1.399    23 C    1.225    27 O    1.098
    27   8 O    2.254 --    26 C    1.098    28 C    0.980
    28   6 C    3.935 --    27 O    0.980    58 H    0.977    59 H    0.974
                            60 H    0.974
    29   6 C    3.962 --    26 C    1.399    20 C    1.378    61 H    0.963
    30   6 C    3.959 --    17 N    1.001    64 H    0.978    62 H    0.967
                            63 H    0.962
    31   6 C    3.988 --     3 C    0.996    33 C    0.994    32 C    0.990
                            65 H    0.957
    32   6 C    3.965 --     1 N    1.001    31 C    0.990    67 H    0.965
                            66 H    0.964
    33   6 C    3.981 --    31 C    0.994    69 H    0.987    70 H    0.984
                            71 H    0.983
    34   1 H    0.997 --     5 C    0.964
    35   1 H    0.995 --     8 C    0.975
    36   1 H    0.993 --     8 C    0.977
    37   1 H    0.995 --     8 C    0.974
    38   1 H    0.995 --    11 C    0.975
    39   1 H    0.994 --    11 C    0.977
    40   1 H    0.996 --    11 C    0.974
    41   1 H    0.997 --    12 C    0.964
    42   1 H    0.998 --    13 C    0.971
    43   1 H    0.992 --    14 C    0.961
    44   1 H    0.988 --    14 C    0.953
    45   1 H    0.981 --    15 C    0.940
    46   1 H    0.968 --    15 C    0.928
    47   1 H    0.999 --     2 C    0.961
    48   1 H    0.995 --    16 C    0.959
    49   1 H    0.991 --    18 C    0.964
    50   1 H    0.994 --    18 C    0.968
    51   1 H    0.996 --    19 C    0.972
    52   1 H    0.996 --    19 C    0.972
    53   1 H    0.998 --    21 C    0.968
    54   1 H    0.995 --    22 C    0.964
    55   1 H    0.993 --    25 C    0.973
    56   1 H    0.993 --    25 C    0.973
    57   1 H    0.993 --    25 C    0.977
    58   1 H    0.993 --    28 C    0.977
    59   1 H    0.994 --    28 C    0.974
    60   1 H    0.994 --    28 C    0.974
    61   1 H    0.997 --    29 C    0.963
    62   1 H    0.985 --    30 C    0.967
    63   1 H    0.986 --    30 C    0.962
    64   1 H    0.993 --    30 C    0.978
    65   1 H    0.988 --    31 C    0.957
    66   1 H    0.987 --    32 C    0.964
    67   1 H    0.986 --    32 C    0.965
    68   1 H    0.998 --     4 C    0.970
    69   1 H    0.997 --    33 C    0.987
    70   1 H    0.997 --    33 C    0.984
    71   1 H    0.997 --    33 C    0.983
    72   1 H    0.972 --     1 N    0.946
 ---------------------------------------------------------------------------

molecular dipole:
                 x           y           z       tot (Debye)
 q only:       -0.148       0.720       0.209
   full:       -0.426       0.656       0.473       2.324

           -------------------------------------------------
          | TOTAL ENERGY              -99.418663917939 Eh   |
          | GRADIENT NORM               0.008577672210 Eh/α |
          | HOMO-LUMO GAP               1.464943241622 eV   |
           -------------------------------------------------

 * finished run on 2024/04/06 at 11:15:56.597
