   * xtb version 6.6.1 (8d0f1dd) compiled by 'conda@1efc2f54142f' on 2023-08-01
          program call               : xtb struc.xyz --opt loose --input .xc1 --gfn2

   ID    Z sym.   atoms
    1    6 C      1, 3, 5-7, 10, 11, 14
    2    7 N      2, 4, 9, 13
    3    8 O      8, 12
    4    1 H      15-25
constraining bond 11 24 to    5.1400000 Å, actual value:    2.4695195 Å

          :  Hamiltonian                  GFN2-xTB          :
 * total energy  :     8.6859871 Eh     change       -0.6650680E-10 Eh
 * total energy  :   -13.8995732 Eh     change       -0.2258556E+02 Eh
 * total energy  :   -27.5330368 Eh     change       -0.1363346E+02 Eh
 * total energy  :   -35.7988671 Eh     change       -0.8265830E+01 Eh
 * total energy  :   -39.9776775 Eh     change       -0.4178810E+01 Eh
 * total energy  :   -41.3736493 Eh     change       -0.1395972E+01 Eh
 * total energy  :   -41.5908606 Eh     change       -0.2172113E+00 Eh
 * total energy  :   -41.6801164 Eh     change       -0.8925582E-01 Eh
 * total energy  :   -41.8152547 Eh     change       -0.1351382E+00 Eh
 * total energy  :   -41.8613451 Eh     change       -0.4609041E-01 Eh
 * total energy  :   -42.0961344 Eh     change       -0.1237512E-02 Eh
 * total energy  :   -42.0994484 Eh     change       -0.3314044E-02 Eh
 * total energy  :   -42.1007386 Eh     change       -0.1290185E-02 Eh
 * total energy  :   -42.1013534 Eh     change       -0.6147555E-03 Eh
 * total energy  :   -42.1021749 Eh     change       -0.8215307E-03 Eh
 * total energy  :   -42.1025432 Eh     change       -0.3682814E-03 Eh
 * total energy  :   -42.1027080 Eh     change       -0.1648756E-03 Eh
 * total energy  :   -42.1028191 Eh     change       -0.1110588E-03 Eh
 * total energy  :   -42.1028372 Eh     change       -0.1806018E-04 Eh
   *** GEOMETRY OPTIMIZATION CONVERGED AFTER 51 ITERATIONS ***

 final structure:
================
25
 xtb: 6.6.1 (8d0f1dd)
C            3.29882100401726        1.25918537213207        0.05404625616252
N            2.36796145103859        0.16177439861846        0.03763006475073
C            2.66871749675329       -1.13220559389534        0.04649184279443
N            1.53941727599369       -1.87028641611807        0.03180739808579
C            0.47222768514324       -1.00594842608073        0.01152677399144
C            0.99956291416146        0.28038255741554        0.01474989222649
C            0.16401260641346        1.46033943808100       -0.00051883620239
O            0.55405700829936        2.60583116570539        0.01100578570344
N           -1.19244558411285        1.11756137227653       -0.03326517263481
C           -2.15410425793077        2.21536474509149       -0.06754289281966
C           -1.75630044323665       -0.12877715822768       -0.05650278047177
O           -2.93514280418352       -0.32843524193071       -0.11108602875080
N           -0.85421173641274       -1.27368158454709       -0.00890906274538
C           -1.40171707562232       -2.49846282639432        0.01611969127251
H            3.86860013710285        1.25745592830759        0.98373096150655
H            3.99219146752208        1.17939086308159       -0.78289889659273
H            2.74087744990632        2.19213120933271       -0.02123309875338
H            3.66164637598708       -1.53704909657509        0.06271865616516
H           -1.59706380987585        3.14873609154998       -0.05204188758871
H           -2.75708120993606        2.14940267664786       -0.97195892349716
H           -2.81459835751805        2.15481678265693        0.79595057958120
H           -0.78708759991614       -3.37477329193314        0.03754252122893
H           -2.47258713034135       -2.55935000437805       -0.00521041688293
H           -3.95133445695714       -4.77594999293485        0.00887860002688
H            1.50601310780423       -2.87921442628183        0.03014059134379

          :  Hamiltonian                  GFN2-xTB          :
         :: total energy             -42.102837167955 Eh    ::
         :: gradient norm              0.001806714971 Eh/a0 ::
         :: HOMO-LUMO gap              0.041982762856 eV    ::
         :: SCC energy               -42.626197963145 Eh    ::
         :: -> dispersion             -0.022579715754 Eh    ::
         :: repulsion energy           0.523291878613 Eh    ::

    * Orbital Energies and Occupations

         #    Occupation            Energy/Eh            Energy/eV
      -------------------------------------------------------------
         1        2.0000           -0.9167863             -24.9470
       ...           ...                  ...                  ...
        25        2.0000           -0.6685875             -18.1932
        26        2.0000           -0.6682284             -18.1834
        27        2.0000           -0.6594728             -17.9452
        28        1.9999           -0.6353973             -17.2900
        29        1.9998           -0.6320401             -17.1987
        30        1.9998           -0.6280881             -17.0911
        31        1.9997           -0.6195689             -16.8593
        32        1.9987           -0.5987420             -16.2926
        33        1.9976           -0.5891266             -16.0309
        34        1.9969           -0.5847793             -15.9127
        35        1.9882           -0.5636898             -15.3388
        36        1.9874           -0.5626754             -15.3112
        37        0.9838           -0.4820037             -13.1160 (HOMO)
        38        0.9352           -0.4804609             -13.0740 (LUMO)
        39        0.1008           -0.4360231             -11.8648
        40        0.0104           -0.3993041             -10.8656
        41        0.0020           -0.3731441             -10.1538
        42        0.0000           -0.2882739              -7.8443
        43                         -0.2129466              -5.7946
        44                         -0.2006817              -5.4608
        45                         -0.1506651              -4.0998
        46                         -0.1342027              -3.6518
        47                         -0.0670941              -1.8257
        48                         -0.0397653              -1.0821
       ...                                ...                  ...
        67                          0.5558264              15.1248
      -------------------------------------------------------------
                  HL-Gap            0.0015428 Eh            0.0420 eV

     #   Z          covCN         q      C6AA      α(0)
     1   6 C        3.691    -0.097    22.538     6.793
     2   7 N        2.831     0.085    19.773     6.604
     3   6 C        3.051     0.054    26.749     8.482
     4   7 N        2.789    -0.057    22.341     7.020
     5   6 C        3.039     0.092    25.912     8.349
     6   6 C        3.114    -0.016    28.258     8.708
     7   6 C        2.763     0.267    22.502     7.768
     8   8 O        0.858    -0.367    21.024     6.148
     9   7 N        2.744    -0.079    22.770     7.087
    10   6 C        3.713    -0.064    21.865     6.681
    11   6 C        2.734     0.310    21.726     7.631
    12   8 O        0.859    -0.339    20.489     6.069
    13   7 N        2.735     0.009    21.100     6.822
    14   6 C        2.798    -0.060    29.465     8.892
    15   1 H        0.924     0.109     1.704     2.041
    16   1 H        0.925     0.108     1.718     2.050
    17   1 H        0.925     0.139     1.465     1.893
    18   1 H        0.926     0.127     1.555     1.950
    19   1 H        0.925     0.116     1.645     2.006
    20   1 H        0.925     0.099     1.798     2.097
    21   1 H        0.925     0.098     1.800     2.098
    22   1 H        0.926     0.087     1.910     2.161
    23   1 H        0.926     0.132     1.521     1.928
    24   1 H        0.000     0.016     6.954     4.822
    25   1 H        0.860     0.229     0.969     1.542

Wiberg/Mayer (AO) data.
largest (>0.10) Wiberg bond orders for each atom

     #   Z sym  total        # sym  WBO       # sym  WBO       # sym  WBO
 ---------------------------------------------------------------------------
     1   6 C    3.912 --     2 N    0.984    16 H    0.960    17 H    0.959
                            15 H    0.957
     2   7 N    3.671 --     3 C    1.384     6 C    1.165     1 C    0.984
     3   6 C    3.840 --     2 N    1.384     4 N    1.287    18 H    0.952
     4   7 N    3.553 --     3 C    1.287     5 C    1.165    25 H    0.918
     5   6 C    3.885 --     6 C    1.337    13 N    1.165     4 N    1.165
     6   6 C    3.857 --     5 C    1.337     2 N    1.165     7 C    1.075
     7   6 C    3.916 --     8 O    1.673     9 N    1.081     6 C    1.075
     8   8 O    1.986 --     7 C    1.673     9 N    0.138
     9   7 N    3.569 --    11 C    1.169     7 C    1.081    10 C    0.963
                            12 O    0.151     8 O    0.138
    10   6 C    3.912 --    19 H    0.968    21 H    0.966    20 H    0.966
                             9 N    0.963
    11   6 C    3.924 --    12 O    1.726     9 N    1.169    13 N    0.934
    12   8 O    2.054 --    11 C    1.726     9 N    0.151
    13   7 N    3.623 --    14 C    1.300     5 C    1.165    11 C    0.934
    14   6 C    3.337 --    13 N    1.300    22 H    0.970    23 H    0.957
    15   1 H    0.985 --     1 C    0.957
    16   1 H    0.985 --     1 C    0.960
    17   1 H    0.980 --     1 C    0.959
    18   1 H    0.983 --     3 C    0.952
    19   1 H    0.985 --    10 C    0.968
    20   1 H    0.986 --    10 C    0.966
    21   1 H    0.987 --    10 C    0.966
    22   1 H    0.992 --    14 C    0.970
    23   1 H    0.982 --    14 C    0.957
    24   1 H    0.003
    25   1 H    0.947 --     4 N    0.918
 ---------------------------------------------------------------------------

molecular dipole:
                 x           y           z       tot (Debye)
 q only:        2.671      -1.799       0.067
   full:        2.952      -2.381       0.076       9.641

           -------------------------------------------------
          | TOTAL ENERGY              -42.102837167955 Eh   |
          | GRADIENT NORM               0.001806714971 Eh/α |
          | HOMO-LUMO GAP               0.041982762856 eV   |
           -------------------------------------------------

 * finished run on 2024/06/05 at 20:00:18.576
