   * xtb version 6.6.1 (8d0f1dd) compiled by 'conda@1efc2f54142f' on 2023-08-01
          program call               : xtb struc.xyz --opt loose --input .xc1 --gfn2

   ID    Z sym.   atoms
    1    7 N      1, 17
    2    6 C      2-6, 8, 9, 11-16, 18-23, 25, 26, 28-33
    3    8 O      7, 10, 24, 27
    4    1 H      34-72
constraining bond 29 51 to    3.7133300 Å, actual value:    3.3615472 Å

          :  Hamiltonian                  GFN2-xTB          :
 * total energy  :   -99.4262271 Eh     change       -0.4035485E-08 Eh
 * total energy  :   -99.4968559 Eh     change       -0.7062883E-01 Eh
 * total energy  :   -99.5975853 Eh     change       -0.1007294E+00 Eh
 * total energy  :   -99.7783967 Eh     change       -0.1808114E+00 Eh
 * total energy  :  -100.0588924 Eh     change       -0.2804956E+00 Eh
 * total energy  :  -100.4529303 Eh     change       -0.3940379E+00 Eh
 * total energy  :   -99.5636088 Eh     change        0.8893215E+00 Eh
 * total energy  :  -100.5954461 Eh     change       -0.1031837E+01 Eh
 * total energy  :  -100.6508160 Eh     change       -0.5536988E-01 Eh
 * total energy  :  -100.6949297 Eh     change       -0.4411373E-01 Eh
 * total energy  :  -100.7808212 Eh     change       -0.1147739E-03 Eh
 * total energy  :  -100.7809267 Eh     change       -0.1055313E-03 Eh
 * total energy  :  -100.7810101 Eh     change       -0.8337005E-04 Eh
 * total energy  :  -100.7811017 Eh     change       -0.9162766E-04 Eh
 * total energy  :  -100.7811802 Eh     change       -0.7849285E-04 Eh
 * total energy  :  -100.7812466 Eh     change       -0.6641926E-04 Eh
 * total energy  :  -100.7812974 Eh     change       -0.5078800E-04 Eh
 * total energy  :  -100.7813542 Eh     change       -0.5676194E-04 Eh
 * total energy  :  -100.7813855 Eh     change       -0.3137430E-04 Eh
   *** GEOMETRY OPTIMIZATION CONVERGED AFTER 69 ITERATIONS ***

 final structure:
================
72
 xtb: 6.6.1 (8d0f1dd)
N           -2.27106602877485        3.24819557328184        2.08919837336739
C           -2.06222360346604        2.36539496962368        1.23030148520098
C           -3.00740615355611        2.01960661335016        0.11242163245727
C           -3.51275699773073        0.59766694588376        0.29649949251995
C           -4.21123222701400       -0.03015802716275       -0.73715064554480
C           -4.70255147558388       -1.31738995798362       -0.60125648441044
O           -5.38846386116851       -1.99374893319632       -1.54784651277571
C           -5.74329801617150       -1.33648679354212       -2.74154252209725
C           -4.48784804769868       -2.02409032953547        0.61193810255452
O           -4.98665889187583       -3.27734721797145        0.65050439684242
C           -4.87717819773710       -4.01936309032335        1.84242667475863
C           -3.80496654235583       -1.39162578170872        1.63793633680884
C           -3.32635376795909       -0.09610141655392        1.48141144137635
C           -2.17369320017889        2.13206525455846       -1.19227576434111
C           -1.20322897167720        0.96231201495830       -1.44820925616013
C           -0.03978945836691        0.93989168569542       -0.53425633819204
N            0.41237706149322       -0.12956268886662        0.10644936893239
C            1.62951479986451       -0.06272234437153        0.89541201252897
C            2.74078515342068       -0.85692303288362        0.27337919510849
C            4.04218356968095       -0.49387364689845        0.18743513785175
C            4.57775925410656        0.74930709500998        0.63005672049356
C            5.88037920017387        1.09760744152327        0.44225171330740
C            6.80524074917375        0.24832748004626       -0.21919264325848
O            8.09990309416227        0.56938010331401       -0.47085482123655
C            8.57713604920943        1.84614224756369       -0.11871084949435
C            6.39091993890767       -0.99311574061283       -0.65480735108743
O            7.29898738745162       -1.76004164896658       -1.28117686214231
C            6.95106895836865       -3.04977116640659       -1.73097463941929
C            4.99931713793583       -1.52207598562363       -0.40597740409361
C           -0.28507735074985       -1.39295812024941        0.07959308823257
C           -4.24351146980789        2.96417300678487        0.03202472502032
C           -5.12519186252862        2.83845435080087        1.27257326710211
C           -3.86988306704131        4.42761923557432       -0.18760901496526
H           -4.38395923085293        0.50342589159836       -1.65700600162859
H           -6.34876630526771       -0.44632065499916       -2.54510274448264
H           -6.33414682615542       -2.05555132714634       -3.30608594857164
H           -4.86023262675249       -1.05811962654164       -3.32693298447392
H           -5.37307261260612       -3.51442539518242        2.67659715177700
H           -5.37782315328813       -4.96507035285101        1.64457144331062
H           -3.83074429391661       -4.21129982652884        2.10129553203737
H           -3.64711807788373       -1.89437946781299        2.57820677031078
H           -2.82503353328579        0.37369397053436        2.31342599007431
H           -2.85708394403041        2.18870836899110       -2.03918545174368
H           -1.60729679192474        3.06384679162274       -1.16460594755360
H           -1.75067411153293        0.02213686766585       -1.42166429561431
H           -0.81672073500655        1.09824658931887       -2.46651662286814
H           -1.13036698608208        1.77071378040009        1.17275335785834
H            0.56946901395960        1.83017494173633       -0.48130085657668
H            1.40527319781168       -0.46569399602227        1.89354835380576
H            1.91791014279127        0.98135583589358        1.00917036803708
H            4.69399513452656       -1.85647532966076       -1.04925024335158
H            2.45135531811690       -1.83312223755381       -0.08988162425337
H            3.92756453190352        1.45231993970266        1.12120414497222
H            6.21930260176930        2.05842602778859        0.79193054722907
H            8.53042444086196        2.01343196457561        0.96158441838374
H            8.02834598345114        2.63799521543278       -0.63652193726324
H            9.61838763155390        1.86159902246533       -0.43575057080082
H            7.85800058050238       -3.45914527525295       -2.17282550400324
H            6.63318811083418       -3.69611130769000       -0.90610889101228
H            6.16599391109491       -3.01458087523551       -2.49315328858039
H            5.13355954157471       -2.28133324276740        0.39531370914067
H           -0.27728769973215       -1.82461298063802       -0.92317754653463
H           -1.32268045730803       -1.26506769118034        0.39902238342816
H            0.20252969073094       -2.08595967561689        0.76017483915767
H           -4.83056634676451        2.63068380129278       -0.83163427957061
H           -4.58596979443932        3.18316877866222        2.14899231631450
H           -5.43712878037723        1.80897479461729        1.43105173557004
H           -6.01505209987122        3.45034445625883        1.15018551926245
H           -3.25544535989386        4.78620423202923        0.63225799763158
H           -3.34079277518752        4.57615471602908       -1.12528473044246
H           -4.77705471430278        5.02550082591732       -0.21901390858034
H           -1.54696014055571        3.41551387754023        2.78100958695584

          :  Hamiltonian                  GFN2-xTB          :
         :: total energy            -100.781385530588 Eh    ::
         :: gradient norm              0.003852746896 Eh/a0 ::
         :: HOMO-LUMO gap              1.303302588996 eV    ::
         :: SCC energy              -100.757996456003 Eh    ::
         :: -> dispersion             -0.075278542954 Eh    ::
         :: repulsion energy           1.504699061347 Eh    ::

    * Orbital Energies and Occupations

         #    Occupation            Energy/Eh            Energy/eV
      -------------------------------------------------------------
         1        2.0000           -0.8203585             -22.3231
       ...           ...                  ...                  ...
        78        1.9991           -0.5324328             -14.4882
        79        1.9985           -0.5244635             -14.2714
        80        1.9985           -0.5239564             -14.2576
        81        1.9984           -0.5234327             -14.2433
        82        1.9978           -0.5184366             -14.1074
        83        1.9965           -0.5106247             -13.8948
        84        1.9958           -0.5079979             -13.8233
        85        1.9951           -0.5053950             -13.7525
        86        1.9896           -0.4934875             -13.4285
        87        1.9837           -0.4863088             -13.2331
        88        1.9434           -0.4663094             -12.6889
        89        1.8916           -0.4555963             -12.3974
        90        1.6783           -0.4364807             -11.8772 (HOMO)
        91        0.4043           -0.3885852             -10.5739 (LUMO)
        92        0.1110           -0.3654518              -9.9445
        93        0.0157           -0.3337460              -9.0817
        94        0.0041           -0.3125056              -8.5037
        95        0.0034           -0.3092139              -8.4141
        96        0.0009           -0.2881131              -7.8400
        97        0.0000           -0.2182524              -5.9389
        98        0.0000           -0.1866170              -5.0781
        99                         -0.1322595              -3.5990
       100                         -0.0851315              -2.3165
       101                         -0.0743490              -2.0231
       ...                                ...                  ...
       171                          1.1147204              30.3331
      -------------------------------------------------------------
                  HL-Gap            0.0478955 Eh            1.3033 eV

     #   Z          covCN         q      C6AA      α(0)
     1   7 N        1.774    -0.272    27.883     7.819
     2   6 C        2.827     0.101    25.744     8.314
     3   6 C        3.907     0.006    20.416     6.422
     4   6 C        2.974     0.001    27.999     8.680
     5   6 C        2.921    -0.081    30.022     8.985
     6   6 C        2.862     0.128    25.196     8.228
     7   8 O        1.706    -0.234    17.873     5.708
     8   6 C        3.644     0.029    20.429     6.497
     9   6 C        2.864     0.127    25.216     8.231
    10   8 O        1.706    -0.232    17.848     5.704
    11   6 C        3.645     0.028    20.439     6.498
    12   6 C        2.914    -0.075    29.884     8.964
    13   6 C        2.921    -0.054    29.332     8.881
    14   6 C        3.812    -0.064    21.712     6.632
    15   6 C        3.802    -0.069    21.823     6.651
    16   6 C        2.842     0.007    27.858     8.650
    17   7 N        2.730     0.012    21.048     6.814
    18   6 C        3.753    -0.014    20.878     6.516
    19   6 C        2.901    -0.083    30.073     8.992
    20   6 C        2.948     0.007    27.874     8.659
    21   6 C        2.905    -0.053    29.325     8.879
    22   6 C        2.909    -0.053    29.325     8.880
    23   6 C        2.848     0.119    25.370     8.255
    24   8 O        1.706    -0.238    17.952     5.720
    25   6 C        3.642     0.028    20.441     6.500
    26   6 C        2.848     0.124    25.282     8.241
    27   8 O        1.706    -0.207    17.450     5.640
    28   6 C        3.642     0.021    20.564     6.520
    29   6 C        3.816    -0.105    22.493     6.750
    30   6 C        3.699    -0.069    21.999     6.708
    31   6 C        3.853    -0.007    20.670     6.466
    32   6 C        3.756    -0.118    22.815     6.811
    33   6 C        3.755    -0.119    22.829     6.813
    34   1 H        0.926     0.051     2.311     2.377
    35   1 H        0.924     0.053     2.285     2.364
    36   1 H        0.925     0.080     1.983     2.202
    37   1 H        0.924     0.045     2.381     2.413
    38   1 H        0.924     0.054     2.269     2.356
    39   1 H        0.925     0.080     1.983     2.202
    40   1 H        0.924     0.046     2.367     2.406
    41   1 H        0.926     0.051     2.308     2.376
    42   1 H        0.926     0.038     2.469     2.457
    43   1 H        0.925     0.060     2.203     2.321
    44   1 H        0.924     0.053     2.286     2.365
    45   1 H        0.925     0.066     2.134     2.285
    46   1 H        0.924     0.077     2.008     2.216
    47   1 H        0.922     0.002     3.023     2.719
    48   1 H        0.926     0.067     2.117     2.275
    49   1 H        0.923     0.069     2.101     2.267
    50   1 H        0.925     0.068     2.111     2.272
    51   1 H        0.930     0.118     1.632     1.997
    52   1 H        0.926     0.039     2.468     2.457
    53   1 H        0.926     0.044     2.400     2.423
    54   1 H        0.926     0.061     2.188     2.313
    55   1 H        0.924     0.052     2.289     2.366
    56   1 H        0.924     0.051     2.303     2.373
    57   1 H        0.925     0.081     1.973     2.197
    58   1 H        0.925     0.089     1.893     2.151
    59   1 H        0.924     0.058     2.223     2.332
    60   1 H        0.924     0.057     2.235     2.338
    61   1 H        0.921     0.079     1.993     2.208
    62   1 H        0.924     0.074     2.040     2.234
    63   1 H        0.924     0.078     1.997     2.210
    64   1 H        0.925     0.081     1.968     2.194
    65   1 H        0.924     0.036     2.507     2.476
    66   1 H        0.925     0.068     2.112     2.273
    67   1 H        0.925     0.035     2.520     2.483
    68   1 H        0.925     0.050     2.321     2.383
    69   1 H        0.925     0.061     2.183     2.310
    70   1 H        0.925     0.034     2.534     2.489
    71   1 H        0.925     0.053     2.279     2.361
    72   1 H        0.860     0.155     1.370     1.833

Wiberg/Mayer (AO) data.
largest (>0.10) Wiberg bond orders for each atom

     #   Z sym  total        # sym  WBO       # sym  WBO       # sym  WBO
 ---------------------------------------------------------------------------
     1   7 N    3.036 --     2 C    1.954    72 H    0.943
     2   6 C    3.931 --     1 N    1.954     3 C    0.994    47 H    0.906
     3   6 C    3.977 --     2 C    0.994     4 C    0.971    14 C    0.956
                            31 C    0.943
     4   6 C    3.954 --    13 C    1.417     5 C    1.367     3 C    0.971
     5   6 C    3.965 --     6 C    1.404     4 C    1.367    34 H    0.958
     6   6 C    3.909 --     5 C    1.404     9 C    1.226     7 O    1.095
     7   8 O    2.253 --     6 C    1.095     8 C    0.979
     8   6 C    3.934 --     7 O    0.979    36 H    0.977    35 H    0.974
                            37 H    0.974
     9   6 C    3.906 --    12 C    1.395     6 C    1.226    10 O    1.097
    10   8 O    2.252 --     9 C    1.097    11 C    0.978
    11   6 C    3.933 --    10 O    0.978    39 H    0.977    40 H    0.974
                            38 H    0.974
    12   6 C    3.965 --    13 C    1.400     9 C    1.395    41 H    0.964
    13   6 C    3.959 --     4 C    1.417    12 C    1.400    42 H    0.963
    14   6 C    3.971 --    15 C    0.978    44 H    0.973    43 H    0.968
                             3 C    0.956
    15   6 C    3.987 --    16 C    1.059    14 C    0.978    45 H    0.962
                            46 H    0.930
    16   6 C    3.587 --    17 N    1.410    15 C    1.059    48 H    0.957
    17   7 N    3.471 --    16 C    1.410    30 C    0.999    18 C    0.974
    18   6 C    3.957 --    19 C    1.008    17 N    0.974    50 H    0.960
                            49 H    0.944
    19   6 C    3.826 --    20 C    1.670    18 C    1.008    52 H    0.965
    20   6 C    3.963 --    19 C    1.670    21 C    1.201    29 C    0.996
    21   6 C    3.878 --    22 C    1.579    20 C    1.201    53 H    0.961
    22   6 C    3.927 --    21 C    1.579    23 C    1.207    54 H    0.963
    23   6 C    3.853 --    26 C    1.415    22 C    1.207    24 O    1.078
    24   8 O    2.207 --    23 C    1.078    25 C    0.979
    25   6 C    3.931 --    24 O    0.979    57 H    0.976    56 H    0.974
                            55 H    0.973
    26   6 C    3.785 --    23 C    1.415    27 O    1.135    29 C    1.014
    27   8 O    2.276 --    26 C    1.135    28 C    0.975
    28   6 C    3.925 --    58 H    0.976    27 O    0.975    60 H    0.971
                            59 H    0.971
    29   6 C    3.978 --    26 C    1.014    20 C    0.996    51 H    0.953
                            61 H    0.917
    30   6 C    3.958 --    17 N    0.999    64 H    0.977    62 H    0.967
                            63 H    0.958
    31   6 C    3.974 --    33 C    1.009    32 C    1.008    65 H    0.961
                             3 C    0.943
    32   6 C    3.981 --    31 C    1.008    67 H    0.982    68 H    0.982
                            66 H    0.975
    33   6 C    3.984 --    31 C    1.009    70 H    0.983    71 H    0.981
                            69 H    0.977
    34   1 H    0.996 --     5 C    0.958
    35   1 H    0.994 --     8 C    0.974
    36   1 H    0.993 --     8 C    0.977
    37   1 H    0.995 --     8 C    0.974
    38   1 H    0.994 --    11 C    0.974
    39   1 H    0.993 --    11 C    0.977
    40   1 H    0.994 --    11 C    0.974
    41   1 H    0.996 --    12 C    0.964
    42   1 H    0.998 --    13 C    0.963
    43   1 H    0.995 --    14 C    0.968
    44   1 H    0.996 --    14 C    0.973
    45   1 H    0.995 --    15 C    0.962
    46   1 H    0.972 --    15 C    0.930
    47   1 H    0.988 --     2 C    0.906
    48   1 H    0.995 --    16 C    0.957
    49   1 H    0.981 --    18 C    0.944
    50   1 H    0.994 --    18 C    0.960
    51   1 H    0.982 --    29 C    0.953
    52   1 H    0.998 --    19 C    0.965
    53   1 H    0.998 --    21 C    0.961
    54   1 H    0.995 --    22 C    0.963
    55   1 H    0.991 --    25 C    0.973
    56   1 H    0.991 --    25 C    0.974
    57   1 H    0.993 --    25 C    0.976
    58   1 H    0.992 --    28 C    0.976
    59   1 H    0.991 --    28 C    0.971
    60   1 H    0.991 --    28 C    0.971
    61   1 H    0.978 --    29 C    0.917
    62   1 H    0.986 --    30 C    0.967
    63   1 H    0.986 --    30 C    0.958
    64   1 H    0.993 --    30 C    0.977
    65   1 H    0.993 --    31 C    0.961
    66   1 H    0.992 --    32 C    0.975
    67   1 H    0.997 --    32 C    0.982
    68   1 H    0.995 --    32 C    0.982
    69   1 H    0.993 --    33 C    0.977
    70   1 H    0.997 --    33 C    0.983
    71   1 H    0.994 --    33 C    0.981
    72   1 H    0.971 --     1 N    0.943
 ---------------------------------------------------------------------------

molecular dipole:
                 x           y           z       tot (Debye)
 q only:        1.627      -0.613      -0.480
   full:        1.903      -0.722      -0.369       5.258

           -------------------------------------------------
          | TOTAL ENERGY             -100.781385530588 Eh   |
          | GRADIENT NORM               0.003852746896 Eh/α |
          | HOMO-LUMO GAP               1.303302588996 eV   |
           -------------------------------------------------

 * finished run on 2024/04/06 at 11:15:17.116
