   * xtb version 6.6.1 (8d0f1dd) compiled by 'conda@1efc2f54142f' on 2023-08-01
          program call               : xtb xtbopt.xyz --opt crude --input .xc2 --gfn2

   ID    Z sym.   atoms
    1    7 N      1, 17
    2    6 C      2-6, 8, 9, 11-16, 18-23, 25, 26, 28-33
    3    8 O      7, 10, 24, 27
    4    1 H      34-72
########################################################################
[WARNING] Please study the warnings concerning your input carefully
-1- readin_getIntValue: could not parse ''
########################################################################

          :  Hamiltonian                  GFN2-xTB          :
 * total energy  :   -99.2520134 Eh     change       -0.5073275E-11 Eh
 * total energy  :   -99.3608773 Eh     change       -0.1088639E+00 Eh
 * total energy  :   -99.3623003 Eh     change       -0.1422947E-02 Eh
 * total energy  :   -99.3630957 Eh     change       -0.7954386E-03 Eh
 * total energy  :   -99.3631958 Eh     change       -0.1000888E-03 Eh
   *** GEOMETRY OPTIMIZATION CONVERGED AFTER 5 ITERATIONS ***

 final structure:
================
72
 xtb: 6.6.1 (8d0f1dd)
N           -2.27028747855802        3.24713280671687        2.08858706832585
C           -2.06084039300669        2.36408474364094        1.23002788235911
C           -3.00498672042695        2.01841524134586        0.11139083753178
C           -3.51101055038332        0.59678050349135        0.29537919470700
C           -4.20911479430813       -0.03130970418447       -0.73843308382737
C           -4.70118287295380       -1.31822428493428       -0.60193765145990
O           -5.38702526034486       -1.99510565523268       -1.54830426282676
C           -5.74145656847495       -1.33881678507452       -2.74236831621862
C           -4.48787956070917       -2.02404311834639        0.61215380141610
O           -4.98750619331823       -3.27699095248128        0.65150826469807
C           -4.88169481164887       -4.01688052023682        1.84508192840257
C           -3.80577617664746       -1.39114957816448        1.63839339125602
C           -3.32619321215101       -0.09610992374337        1.48111869305378
C           -2.17012155773185        2.13048511669683       -1.19243779829765
C           -1.19894544936978        0.96123874843169       -1.44674885347076
C           -0.03579194637729        0.94126541399608       -0.53188355384514
N            0.41741343852853       -0.12704378131564        0.11047607306562
C            1.62942840485715       -0.05622004236730        0.90749334549491
C            2.74338790980892       -0.85536917603756        0.29694505584895
C            4.04518815370297       -0.49464557363460        0.20962153039412
C            4.58011760439881        0.75313439930726        0.64625842808510
C            5.88201696170377        1.10183140873378        0.45064025822100
C            6.80602659893969        0.25271547851655       -0.21364823972746
O            8.09532025849819        0.58317010167979       -0.48138177384167
C            8.57483431085374        1.85632977017623       -0.11649470055187
C            6.39124484795520       -0.99308998698595       -0.64283767921264
O            7.29469505360223       -1.75383904854734       -1.28079887323629
C            6.95724600857818       -3.04685055886862       -1.72367315581199
C            5.01419179242867       -1.50318429588415       -0.36374092596428
C           -0.27904438131308       -1.39106033800676        0.08408842426635
C           -4.24077260921887        2.96318400214244        0.03011999795169
C           -5.12321469051839        2.83756075139429        1.27001693170507
C           -3.86643480860184        4.42630180212795       -0.18965536847173
H           -4.38116008499468        0.50192832529959       -1.65867567973975
H           -6.34593837000202       -0.44808107980383       -2.54657402649958
H           -6.33286527479156       -2.05795189853492       -3.30561981965769
H           -4.85872326744481       -1.06161824888029       -3.32817525314676
H           -5.37976386382708       -3.51011365937318        2.67688020339552
H           -5.38205555840715       -4.96278005577369        1.64754404517019
H           -3.83609454924995       -4.20864160383689        2.10739205547971
H           -3.64946523298177       -1.89304414866046        2.57937551827218
H           -2.82571671624480        0.37431784085987        2.31332595468632
H           -2.85269739676411        2.18669167654970       -2.03993711411230
H           -1.60396370029363        3.06240222664136       -1.16452132852799
H           -1.74577871353760        0.02077476862563       -1.41966677994000
H           -0.81213699392983        1.09639854603388       -2.46504833119303
H           -1.12884909475735        1.77010435044082        1.17278252096484
H            0.57140180225240        1.83273962573412       -0.47917156782102
H            1.39731099672821       -0.45174271811435        1.90678588539794
H            1.91796950818770        0.98850340382386        1.01561862247188
H            4.59165889591078       -1.94442002218485       -1.27066800302346
H            2.45578825045422       -1.83241882463891       -0.06375493112447
H            3.93070279349932        1.46060317352316        1.13641600981824
H            6.22103527497759        2.06443812698160        0.79778410384570
H            8.53837786800006        2.00902731431315        0.96671575939124
H            8.02211533953261        2.65578191951443       -0.62017594684431
H            9.61249262504803        1.87722357780414       -0.44455827954429
H            7.86769249092231       -3.45045423052652       -2.16262175179470
H            6.63760121745595       -3.68950062473141       -0.89859272729896
H            6.17377284508441       -3.02089767174741       -2.48747729221734
H            5.10950430664731       -2.32627300049649        0.36136342657904
H           -0.26989362873794       -1.82402311927326       -0.91813152085020
H           -1.31719259907574       -1.26357552632473        0.40217815239646
H            0.20863989307569       -2.08297584016368        0.76573483208301
H           -4.82752969254250        2.62964553355053       -0.83372627615817
H           -4.58508326152911        3.18296181286096        2.14673348369586
H           -5.43463477309518        1.80793771832501        1.42861131431331
H           -6.01341586023007        3.44867459815011        1.14664210692303
H           -3.25403146926587        4.78548685072704        0.63141300964218
H           -3.33480201222903        4.57359285712617       -1.12599424066748
H           -4.77330849375492        5.02431295115068       -0.22422862416258
H           -1.54627921091192        3.41540763318182        2.78033046237531

          :  Hamiltonian                  GFN2-xTB          :
         :: total energy             -99.363195782623 Eh    ::
         :: gradient norm              0.002788294187 Eh/a0 ::
         :: HOMO-LUMO gap              1.292274015351 eV    ::
         :: SCC energy              -100.733499189768 Eh    ::
         :: -> dispersion             -0.075262812486 Eh    ::
         :: repulsion energy           1.369009957573 Eh    ::

    * Orbital Energies and Occupations

         #    Occupation            Energy/Eh            Energy/eV
      -------------------------------------------------------------
         1        2.0000           -0.8202239             -22.3194
       ...           ...                  ...                  ...
        78        1.9991           -0.5323646             -14.4864
        79        1.9985           -0.5243148             -14.2673
        80        1.9985           -0.5238638             -14.2551
        81        1.9984           -0.5234152             -14.2429
        82        1.9978           -0.5182751             -14.1030
        83        1.9965           -0.5104911             -13.8912
        84        1.9958           -0.5078761             -13.8200
        85        1.9951           -0.5052548             -13.7487
        86        1.9895           -0.4931646             -13.4197
        87        1.9837           -0.4861432             -13.2286
        88        1.9437           -0.4661593             -12.6848
        89        1.8919           -0.4554183             -12.3926
        90        1.6725           -0.4359117             -11.8618 (HOMO)
        91        0.4057           -0.3884215             -10.5695 (LUMO)
        92        0.1145           -0.3657383              -9.9522
        93        0.0158           -0.3335990              -9.0777
        94        0.0042           -0.3123309              -8.4990
        95        0.0034           -0.3090615              -8.4100
        96        0.0009           -0.2879941              -7.8367
        97        0.0000           -0.2196270              -5.9764
        98        0.0000           -0.1864725              -5.0742
        99                         -0.1322873              -3.5997
       100                         -0.0814968              -2.2176
       101                         -0.0713840              -1.9425
       ...                                ...                  ...
       171                          0.5767741              15.6948
      -------------------------------------------------------------
                  HL-Gap            0.0474902 Eh            1.2923 eV

     #   Z          covCN         q      C6AA      α(0)
     1   7 N        1.774    -0.272    27.886     7.820
     2   6 C        2.827     0.101    25.745     8.314
     3   6 C        3.907     0.006    20.416     6.422
     4   6 C        2.974     0.001    28.000     8.680
     5   6 C        2.921    -0.081    30.021     8.985
     6   6 C        2.862     0.128    25.197     8.228
     7   8 O        1.706    -0.234    17.874     5.708
     8   6 C        3.644     0.029    20.428     6.496
     9   6 C        2.864     0.127    25.217     8.231
    10   8 O        1.706    -0.232    17.850     5.704
    11   6 C        3.645     0.028    20.439     6.497
    12   6 C        2.914    -0.075    29.884     8.964
    13   6 C        2.921    -0.054    29.332     8.882
    14   6 C        3.812    -0.064    21.711     6.632
    15   6 C        3.802    -0.069    21.822     6.651
    16   6 C        2.841     0.007    27.862     8.651
    17   7 N        2.730     0.012    21.050     6.814
    18   6 C        3.753    -0.014    20.874     6.515
    19   6 C        2.901    -0.082    30.051     8.988
    20   6 C        2.949     0.011    27.769     8.643
    21   6 C        2.906    -0.053    29.309     8.877
    22   6 C        2.908    -0.053    29.324     8.879
    23   6 C        2.848     0.120    25.361     8.254
    24   8 O        1.706    -0.238    17.946     5.720
    25   6 C        3.642     0.028    20.445     6.501
    26   6 C        2.848     0.128    25.193     8.226
    27   8 O        1.706    -0.205    17.419     5.635
    28   6 C        3.642     0.022    20.556     6.518
    29   6 C        3.815    -0.079    21.993     6.675
    30   6 C        3.699    -0.069    22.001     6.708
    31   6 C        3.853    -0.007    20.669     6.466
    32   6 C        3.756    -0.118    22.815     6.811
    33   6 C        3.755    -0.119    22.829     6.813
    34   1 H        0.926     0.051     2.312     2.378
    35   1 H        0.924     0.053     2.286     2.364
    36   1 H        0.925     0.080     1.983     2.202
    37   1 H        0.924     0.045     2.381     2.413
    38   1 H        0.924     0.054     2.270     2.356
    39   1 H        0.925     0.080     1.983     2.202
    40   1 H        0.924     0.046     2.367     2.406
    41   1 H        0.926     0.051     2.309     2.376
    42   1 H        0.926     0.038     2.470     2.458
    43   1 H        0.925     0.060     2.203     2.321
    44   1 H        0.924     0.053     2.287     2.365
    45   1 H        0.925     0.066     2.134     2.284
    46   1 H        0.924     0.077     2.009     2.217
    47   1 H        0.922     0.002     3.023     2.719
    48   1 H        0.926     0.067     2.117     2.275
    49   1 H        0.923     0.069     2.098     2.265
    50   1 H        0.925     0.068     2.107     2.270
    51   1 H        0.924     0.074     2.041     2.234
    52   1 H        0.926     0.039     2.464     2.455
    53   1 H        0.926     0.044     2.400     2.423
    54   1 H        0.926     0.061     2.189     2.314
    55   1 H        0.924     0.053     2.286     2.365
    56   1 H        0.924     0.051     2.303     2.373
    57   1 H        0.925     0.081     1.972     2.196
    58   1 H        0.925     0.090     1.883     2.146
    59   1 H        0.924     0.058     2.223     2.332
    60   1 H        0.924     0.057     2.233     2.337
    61   1 H        0.923     0.081     1.968     2.194
    62   1 H        0.924     0.074     2.041     2.234
    63   1 H        0.924     0.078     1.996     2.210
    64   1 H        0.925     0.081     1.968     2.194
    65   1 H        0.924     0.036     2.507     2.476
    66   1 H        0.925     0.068     2.112     2.273
    67   1 H        0.925     0.035     2.520     2.483
    68   1 H        0.925     0.050     2.322     2.383
    69   1 H        0.925     0.061     2.183     2.310
    70   1 H        0.925     0.034     2.534     2.489
    71   1 H        0.925     0.053     2.280     2.361
    72   1 H        0.860     0.155     1.370     1.834

Wiberg/Mayer (AO) data.
largest (>0.10) Wiberg bond orders for each atom

     #   Z sym  total        # sym  WBO       # sym  WBO       # sym  WBO
 ---------------------------------------------------------------------------
     1   7 N    3.036 --     2 C    1.954    72 H    0.943
     2   6 C    3.930 --     1 N    1.954     3 C    0.994    47 H    0.906
     3   6 C    3.977 --     2 C    0.994     4 C    0.971    14 C    0.956
                            31 C    0.943
     4   6 C    3.954 --    13 C    1.417     5 C    1.367     3 C    0.971
     5   6 C    3.965 --     6 C    1.404     4 C    1.367    34 H    0.958
     6   6 C    3.909 --     5 C    1.404     9 C    1.226     7 O    1.094
     7   8 O    2.253 --     6 C    1.094     8 C    0.979
     8   6 C    3.934 --     7 O    0.979    36 H    0.977    35 H    0.974
                            37 H    0.974
     9   6 C    3.906 --    12 C    1.395     6 C    1.226    10 O    1.097
    10   8 O    2.252 --     9 C    1.097    11 C    0.978
    11   6 C    3.933 --    10 O    0.978    39 H    0.977    40 H    0.974
                            38 H    0.974
    12   6 C    3.965 --    13 C    1.400     9 C    1.395    41 H    0.964
    13   6 C    3.959 --     4 C    1.417    12 C    1.400    42 H    0.963
    14   6 C    3.971 --    15 C    0.979    44 H    0.973    43 H    0.968
                             3 C    0.956
    15   6 C    3.987 --    16 C    1.059    14 C    0.979    45 H    0.962
                            46 H    0.931
    16   6 C    3.586 --    17 N    1.409    15 C    1.059    48 H    0.957
    17   7 N    3.471 --    16 C    1.409    30 C    0.999    18 C    0.974
    18   6 C    3.957 --    19 C    1.009    17 N    0.974    50 H    0.960
                            49 H    0.944
    19   6 C    3.824 --    20 C    1.668    18 C    1.009    52 H    0.965
    20   6 C    3.962 --    19 C    1.668    21 C    1.198    29 C    1.003
    21   6 C    3.876 --    22 C    1.579    20 C    1.198    53 H    0.962
    22   6 C    3.926 --    21 C    1.579    23 C    1.208    54 H    0.962
    23   6 C    3.850 --    26 C    1.409    22 C    1.208    24 O    1.079
    24   8 O    2.208 --    23 C    1.079    25 C    0.979
    25   6 C    3.931 --    24 O    0.979    57 H    0.976    56 H    0.973
                            55 H    0.973
    26   6 C    3.786 --    23 C    1.409    27 O    1.135    29 C    1.025
    27   8 O    2.277 --    26 C    1.135    28 C    0.976
    28   6 C    3.925 --    27 O    0.976    58 H    0.976    59 H    0.971
                            60 H    0.968
    29   6 C    3.987 --    26 C    1.025    20 C    1.003    51 H    0.942
                            61 H    0.924
    30   6 C    3.958 --    17 N    0.999    64 H    0.977    62 H    0.968
                            63 H    0.958
    31   6 C    3.974 --    33 C    1.009    32 C    1.008    65 H    0.961
                             3 C    0.943
    32   6 C    3.981 --    31 C    1.008    67 H    0.982    68 H    0.982
                            66 H    0.975
    33   6 C    3.984 --    31 C    1.009    70 H    0.983    71 H    0.981
                            69 H    0.977
    34   1 H    0.996 --     5 C    0.958
    35   1 H    0.994 --     8 C    0.974
    36   1 H    0.993 --     8 C    0.977
    37   1 H    0.995 --     8 C    0.974
    38   1 H    0.994 --    11 C    0.974
    39   1 H    0.993 --    11 C    0.977
    40   1 H    0.994 --    11 C    0.974
    41   1 H    0.996 --    12 C    0.964
    42   1 H    0.998 --    13 C    0.963
    43   1 H    0.995 --    14 C    0.968
    44   1 H    0.996 --    14 C    0.973
    45   1 H    0.995 --    15 C    0.962
    46   1 H    0.972 --    15 C    0.931
    47   1 H    0.988 --     2 C    0.906
    48   1 H    0.995 --    16 C    0.957
    49   1 H    0.981 --    18 C    0.944
    50   1 H    0.994 --    18 C    0.960
    51   1 H    0.985 --    29 C    0.942
    52   1 H    0.998 --    19 C    0.965
    53   1 H    0.998 --    21 C    0.962
    54   1 H    0.995 --    22 C    0.962
    55   1 H    0.991 --    25 C    0.973
    56   1 H    0.991 --    25 C    0.973
    57   1 H    0.993 --    25 C    0.976
    58   1 H    0.991 --    28 C    0.976
    59   1 H    0.991 --    28 C    0.971
    60   1 H    0.991 --    28 C    0.968
    61   1 H    0.978 --    29 C    0.924
    62   1 H    0.986 --    30 C    0.968
    63   1 H    0.986 --    30 C    0.958
    64   1 H    0.993 --    30 C    0.977
    65   1 H    0.993 --    31 C    0.961
    66   1 H    0.992 --    32 C    0.975
    67   1 H    0.997 --    32 C    0.982
    68   1 H    0.995 --    32 C    0.982
    69   1 H    0.993 --    33 C    0.977
    70   1 H    0.997 --    33 C    0.983
    71   1 H    0.994 --    33 C    0.981
    72   1 H    0.971 --     1 N    0.943
 ---------------------------------------------------------------------------

molecular dipole:
                 x           y           z       tot (Debye)
 q only:        1.674      -0.596      -0.451
   full:        1.942      -0.729      -0.358       5.351

           -------------------------------------------------
          | TOTAL ENERGY              -99.363195782623 Eh   |
          | GRADIENT NORM               0.002788294187 Eh/α |
          | HOMO-LUMO GAP               1.292274015351 eV   |
           -------------------------------------------------

 * finished run on 2024/04/06 at 11:15:18.214
