   * xtb version 6.6.1 (8d0f1dd) compiled by 'conda@1efc2f54142f' on 2023-08-01
          program call               : xtb xtbopt.xyz --opt crude --input .xc2 --gfn2

   ID    Z sym.   atoms
    1    6 C      1, 3, 5-7, 10, 11, 14
    2    7 N      2, 4, 9, 13
    3    8 O      8, 12
    4    1 H      15-25
########################################################################
[WARNING] Please study the warnings concerning your input carefully
-1- readin_getIntValue: could not parse ''
########################################################################

          :  Hamiltonian                  GFN2-xTB          :
 * total energy  :   -42.1585739 Eh     change        0.7105427E-13 Eh
 * total energy  :   -42.1585103 Eh     change        0.6358780E-04 Eh
 * total energy  :   -42.1587602 Eh     change       -0.2499148E-03 Eh
   *** GEOMETRY OPTIMIZATION CONVERGED AFTER 3 ITERATIONS ***

 final structure:
================
25
 xtb: 6.6.1 (8d0f1dd)
C            3.08444162990475        1.13946700891540       -0.26806450470265
N            2.14070484899829        0.07154408425061       -0.09492065116247
C            2.42932210096551       -1.19081531332373        0.13729869012056
N            1.31077398419964       -1.91825618826226        0.24886757087166
C            0.18405775470841       -1.08755123264120        0.08170278088900
C            0.75237580291013        0.21449810411866       -0.15450845860764
C            0.14138294148965        1.44358578202436       -0.38045512261601
O            0.56401275384018        2.55638395140485       -0.52088107966715
N           -1.42232200537731        1.29477730216825       -0.45071959999142
C           -2.12898401567692        1.73334160111901        0.74173884626198
C           -1.90654587287785        0.94310869150862       -1.53546077336111
O           -2.20191013862601        0.60589600346454       -2.58926613778241
N           -1.04779960070973       -1.39124591997067        0.14799484676753
C           -1.52217699323084       -2.71297401215841        0.41451168593455
H            2.97409516739959        1.87244552633484        0.53240386508497
H            4.09527757682542        0.73829607548586       -0.25829598460577
H            2.90173917780965        1.65157125810509       -1.21293735235325
H            3.42526530569701       -1.58390321309425        0.22254333992398
H           -1.76718294192004        2.72548919987374        1.01330737116388
H           -3.19957269706902        1.76997024701328        0.55738860554385
H           -1.91802106944323        1.02852441205012        1.54476195704172
H           -0.97366543331952       -3.21129195049446        1.21942330199754
H           -1.46094257121240       -3.33113301341243       -0.48561734880128
H           -2.56949926442075       -2.63253839279347        0.70062556451807
H            1.27560507324177       -2.91095147008164        0.41973020543664

          :  Hamiltonian                  GFN2-xTB          :
         :: total energy             -42.158760244055 Eh    ::
         :: gradient norm              0.002511962809 Eh/a0 ::
         :: HOMO-LUMO gap              2.011637122340 eV    ::
         :: SCC energy               -42.731591705819 Eh    ::
         :: -> dispersion             -0.022208824601 Eh    ::
         :: repulsion energy           0.572586113054 Eh    ::

    * Orbital Energies and Occupations

         #    Occupation            Energy/Eh            Energy/eV
      -------------------------------------------------------------
         1        2.0000           -0.9316162             -25.3506
       ...           ...                  ...                  ...
        25        2.0000           -0.6724251             -18.2976
        26        2.0000           -0.6655888             -18.1116
        27        2.0000           -0.6501605             -17.6918
        28        1.9999           -0.6387742             -17.3819
        29        1.9999           -0.6360130             -17.3068
        30        1.9999           -0.6312488             -17.1772
        31        1.9995           -0.6077840             -16.5386
        32        1.9993           -0.6019701             -16.3804
        33        1.9990           -0.5948161             -16.1858
        34        1.9986           -0.5902400             -16.0612
        35        1.9977           -0.5822740             -15.8445
        36        1.9170           -0.5246994             -14.2778
        37        1.8330           -0.5129111             -13.9570 (HOMO)
        38        0.1867           -0.4389848             -11.9454 (LUMO)
        39        0.0641           -0.4210062             -11.4562
        40        0.0031           -0.3727816             -10.1439
        41        0.0021           -0.3667052              -9.9786
        42        0.0000           -0.2937517              -7.9934
        43        0.0000           -0.2441039              -6.6424
        44                         -0.1720218              -4.6810
        45                         -0.1266597              -3.4466
        46                         -0.0902355              -2.4554
        47                         -0.0758186              -2.0631
        48                         -0.0299023              -0.8137
       ...                                ...                  ...
        67                          1.0293630              28.0104
      -------------------------------------------------------------
                  HL-Gap            0.0739263 Eh            2.0116 eV

     #   Z          covCN         q      C6AA      α(0)
     1   6 C        3.693    -0.085    22.304     6.757
     2   7 N        2.813     0.067    20.079     6.655
     3   6 C        2.980     0.074    26.336     8.418
     4   7 N        2.782    -0.097    23.134     7.144
     5   6 C        2.945     0.142    24.901     8.184
     6   6 C        3.062    -0.043    28.995     8.830
     7   6 C        2.749     0.256    22.688     7.799
     8   8 O        0.857    -0.320    20.144     6.018
     9   7 N        2.713    -0.020    21.645     6.910
    10   6 C        3.696    -0.066    21.949     6.702
    11   6 C        1.794     0.330    23.846     7.892
    12   8 O        0.856    -0.109    16.650     5.471
    13   7 N        1.824    -0.264    27.710     7.800
    14   6 C        3.703    -0.032    21.299     6.599
    15   1 H        0.924     0.112     1.676     2.025
    16   1 H        0.925     0.096     1.818     2.108
    17   1 H        0.925     0.113     1.673     2.023
    18   1 H        0.926     0.110     1.697     2.037
    19   1 H        0.924     0.117     1.635     2.000
    20   1 H        0.925     0.104     1.752     2.070
    21   1 H        0.925     0.108     1.715     2.048
    22   1 H        0.924     0.046     2.372     2.409
    23   1 H        0.924     0.067     2.123     2.279
    24   1 H        0.925     0.079     1.992     2.207
    25   1 H        0.860     0.215     1.033     1.592

Wiberg/Mayer (AO) data.
largest (>0.10) Wiberg bond orders for each atom

     #   Z sym  total        # sym  WBO       # sym  WBO       # sym  WBO
 ---------------------------------------------------------------------------
     1   6 C    3.930 --     2 N    0.993    16 H    0.975    17 H    0.959
                            15 H    0.957
     2   7 N    3.669 --     3 C    1.417     6 C    1.091     1 C    0.993
                             4 N    0.107
     3   6 C    3.878 --     2 N    1.417     4 N    1.309    18 H    0.951
     4   7 N    3.537 --     3 C    1.309     5 C    1.049    25 H    0.925
                             2 N    0.107
     5   6 C    3.945 --    13 N    1.626     6 C    1.142     4 N    1.049
     6   6 C    3.836 --     7 C    1.278     5 C    1.142     2 N    1.091
                             8 O    0.115
     7   6 C    3.866 --     8 O    1.743     6 C    1.278     9 N    0.695
     8   8 O    2.117 --     7 C    1.743     6 C    0.115
     9   7 N    3.580 --    11 C    1.607    10 C    0.934     7 C    0.695
                            12 O    0.245
    10   6 C    3.894 --    20 H    0.974    21 H    0.965    19 H    0.964
                             9 N    0.934
    11   6 C    3.802 --    12 O    2.080     9 N    1.607
    12   8 O    2.423 --    11 C    2.080     9 N    0.245
    13   7 N    2.925 --     5 C    1.626    14 C    1.034
    14   6 C    3.953 --    13 N    1.034    24 H    0.970    22 H    0.961
                            23 H    0.950
    15   1 H    0.985 --     1 C    0.957
    16   1 H    0.990 --     1 C    0.975
    17   1 H    0.985 --     1 C    0.959
    18   1 H    0.986 --     3 C    0.951
    19   1 H    0.986 --    10 C    0.964
    20   1 H    0.988 --    10 C    0.974
    21   1 H    0.988 --    10 C    0.965
    22   1 H    0.981 --    14 C    0.961
    23   1 H    0.976 --    14 C    0.950
    24   1 H    0.984 --    14 C    0.970
    25   1 H    0.953 --     4 N    0.925
 ---------------------------------------------------------------------------

molecular dipole:
                 x           y           z       tot (Debye)
 q only:        0.960      -0.646       0.393
   full:        1.233      -1.233       0.472       4.591

           -------------------------------------------------
          | TOTAL ENERGY              -42.158760244055 Eh   |
          | GRADIENT NORM               0.002511962809 Eh/α |
          | HOMO-LUMO GAP               2.011637122340 eV   |
           -------------------------------------------------

 * finished run on 2024/06/05 at 19:58:03.944
