   * xtb version 6.6.1 (8d0f1dd) compiled by 'conda@1efc2f54142f' on 2023-08-01
          program call               : xtb xtbopt.xyz --opt crude --input .xc2 --gfn2

   ID    Z sym.   atoms
    1    7 N      1, 17
    2    6 C      2-6, 8, 9, 11-16, 18-23, 25, 26, 28-33
    3    8 O      7, 10, 24, 27
    4    1 H      34-72

          :  Hamiltonian                  GFN2-xTB          :
 * total energy  :   -99.3697511 Eh     change       -0.1023182E-11 Eh
   *** GEOMETRY OPTIMIZATION CONVERGED AFTER 1 ITERATIONS ***

 final structure:
================
72
 xtb: 6.6.1 (8d0f1dd)
N           -4.31602250098949        1.60601232868587        1.77230064916602
C           -3.12785255627656        1.81883645625845        1.31971573310457
C           -2.81617627174532        2.94159245478994        0.54309454976877
C           -4.11016511015298       -0.84665853999921       -0.48909714086840
C           -5.28463044372754       -1.29154893574093       -1.07717230893866
C           -5.87409896228777       -2.47930654143461       -0.66404143341088
O           -7.00327055333819       -3.00994047658493       -1.16606210929239
C           -7.67889408867526       -2.33866980804199       -2.20498955963358
C           -5.26272129570995       -3.23543849631213        0.37696947903924
O           -5.90600760456354       -4.36769059965443        0.71558487603075
C           -5.38608832441431       -5.17640037782749        1.74450070752036
C           -4.08717035157562       -2.77087131771131        0.95148049202170
C           -3.51377371660262       -1.58512443385335        0.51609104304606
C           -1.43589880627120        3.07913822479903       -0.00901510340190
C           -0.80424450788172        1.76058642503677       -0.32261674134580
C            0.40380875196656        1.39199696569478        0.13872970703381
N            1.02613728295223        0.20075249818219       -0.06087140941293
C            2.43675787044444        0.07780315417592        0.19448393987626
C            3.28178167211986        0.30929103010905       -1.07712722783298
C            4.74396730493116        0.35100870504752       -0.74593831304242
C            5.41318562870635        1.56144714871666       -0.63787366083413
C            6.76379631460572        1.60378944603519       -0.33127759583135
C            7.47517196849285        0.43159220884736       -0.11386273195653
O            8.78429684215372        0.34969587179588        0.17996039508863
C            9.55189524781228        1.52971371983136        0.24893748051755
C            6.79406054876743       -0.81639967689547       -0.20537763465405
O            7.55773971627275       -1.90047686226138        0.02560644038215
C            6.98192873411111       -3.18255641816262       -0.05936584667098
C            5.44399008121660       -0.83212514902353       -0.52005599167904
C            0.41117231106390       -0.82603918218263       -0.86182850259625
C           -3.85839487601040        3.99580289358451        0.36888140484467
C           -4.03697046925421        4.74283161245381        1.70389291427954
C           -3.59487568793627        4.99166587050564       -0.75400295850014
H           -5.73827440212720       -0.70331849236434       -1.85809998807275
H           -8.01842500053963       -1.34874947988617       -1.88668036850026
H           -8.54232889137366       -2.95898150919546       -2.43993436541910
H           -7.04924528225263       -2.24236065069637       -3.09459400221809
H           -5.35831982559627       -4.64115647534764        2.69838211586025
H           -6.06745517334628       -6.02113681585335        1.82514674937579
H           -4.38345661481173       -5.54279210855737        1.50131277907014
H           -3.61076676358019       -3.32946048452730        1.74085282428566
H           -2.59952532114980       -1.24510616961579        0.98025408441942
H           -1.47640829905332        3.67964823155053       -0.92253540280154
H           -0.81021578671233        3.63166549802690        0.70323003900436
H           -3.67496915159452        0.08165877411261       -0.82353686468328
H           -1.37362280482599        1.11811685705909       -0.97532531180560
H           -2.29300497634812        1.13348053222683        1.51781888130451
H            0.96088393834147        2.07736749994802        0.76514197858507
H            2.64268450842575       -0.92154204963307        0.59085091441201
H            2.72678914030653        0.80917001231432        0.95192659349266
H            2.97724008958111        1.25509049191074       -1.52778491104468
H            3.08333612102377       -0.49337655413380       -1.78920903672694
H            4.88372634507907        2.48632151735991       -0.80763678345736
H            7.25792300204192        2.55955372744476       -0.26778930006195
H            9.19575761344830        2.19329339313842        1.04226057651405
H            9.54813318305728        2.06516507877583       -0.70502005120602
H           10.56527358953614        1.20565931459558        0.47720656649113
H            7.78935862078187       -3.88108765331358        0.15188926593378
H            6.18683336764306       -3.31384993789332        0.68200458950123
H            6.58604870911173       -3.37860039437953       -1.06036795985173
H            4.92185079914996       -1.77187446302523       -0.60812370145096
H            0.43698856605771       -0.58577754023802       -1.93086069215223
H           -0.63074249049567       -0.95499849280938       -0.56497110804287
H            0.93331979078357       -1.76713109884374       -0.70030848437383
H           -4.80445523759334        3.47424721307429        0.18035610967269
H           -3.11096189489977        5.23585068151124        1.99282403652112
H           -4.32912841884174        4.04586696517252        2.48367978702638
H           -4.81357387330620        5.49588865032179        1.60057012223874
H           -2.72091669153500        5.60305281193335       -0.54241723142646
H           -3.45610015952271        4.48501072324876       -1.70657355073429
H           -4.44859160274520        5.65809715070841       -0.85197535185523
H           -4.45157727322228        0.78692456952684        2.34964775284456

          :  Hamiltonian                  GFN2-xTB          :
         :: total energy             -99.369751135827 Eh    ::
         :: gradient norm              0.003276058685 Eh/a0 ::
         :: HOMO-LUMO gap              0.733551074755 eV    ::
         :: SCC energy              -100.776242915877 Eh    ::
         :: -> dispersion             -0.066348149954 Eh    ::
         :: repulsion energy           1.406394051767 Eh    ::

    * Orbital Energies and Occupations

         #    Occupation            Energy/Eh            Energy/eV
      -------------------------------------------------------------
         1        2.0000           -0.8087173             -22.0063
       ...           ...                  ...                  ...
        78        1.9973           -0.5282070             -14.3732
        79        1.9968           -0.5252142             -14.2918
        80        1.9961           -0.5219912             -14.2041
        81        1.9953           -0.5191558             -14.1269
        82        1.9952           -0.5190079             -14.1229
        83        1.9949           -0.5180447             -14.0967
        84        1.9903           -0.5076231             -13.8131
        85        1.9676           -0.4884196             -13.2906
        86        1.9664           -0.4878102             -13.2740
        87        1.8643           -0.4648811             -12.6501
        88        1.7982           -0.4580212             -12.4634
        89        1.7752           -0.4561107             -12.4114
        90        1.6851           -0.4499449             -12.2436 (HOMO)
        91        0.9873           -0.4229874             -11.5101 (LUMO)
        92        0.0018           -0.3127476              -8.5103
        93        0.0016           -0.3104283              -8.4472
        94        0.0016           -0.3100912              -8.4380
        95        0.0014           -0.3082013              -8.3866
        96        0.0004           -0.2902832              -7.8990
        97        0.0002           -0.2752299              -7.4894
        98        0.0000           -0.1870580              -5.0901
        99        0.0000           -0.1827998              -4.9742
       100                         -0.1019887              -2.7753
       101                         -0.0612913              -1.6678
       ...                                ...                  ...
       171                          0.5837609              15.8849
      -------------------------------------------------------------
                  HL-Gap            0.0269575 Eh            0.7336 eV

     #   Z          covCN         q      C6AA      α(0)
     1   7 N        1.782    -0.293    28.411     7.894
     2   6 C        2.823     0.071    26.409     8.421
     3   6 C        2.960     0.013    27.728     8.637
     4   6 C        2.917    -0.035    28.862     8.810
     5   6 C        2.915    -0.064    29.599     8.921
     6   6 C        2.864     0.138    24.996     8.195
     7   8 O        1.706    -0.217    17.611     5.666
     8   6 C        3.645     0.024    20.504     6.508
     9   6 C        2.864     0.137    25.017     8.199
    10   8 O        1.706    -0.218    17.624     5.668
    11   6 C        3.645     0.025    20.484     6.505
    12   6 C        2.914    -0.067    29.667     8.932
    13   6 C        2.918    -0.038    28.934     8.821
    14   6 C        3.811    -0.065    21.734     6.636
    15   6 C        2.893    -0.067    29.658     8.929
    16   6 C        2.843     0.009    27.812     8.643
    17   7 N        2.732    -0.042    22.056     6.975
    18   6 C        3.753    -0.008    20.779     6.500
    19   6 C        3.807    -0.071    21.855     6.655
    20   6 C        2.968     0.007    27.857     8.657
    21   6 C        2.922    -0.045    29.106     8.847
    22   6 C        2.913    -0.065    29.629     8.926
    23   6 C        2.864     0.135    25.043     8.203
    24   8 O        1.706    -0.216    17.589     5.662
    25   6 C        3.645     0.024    20.513     6.509
    26   6 C        2.862     0.135    25.042     8.203
    27   8 O        1.706    -0.219    17.639     5.671
    28   6 C        3.645     0.026    20.478     6.504
    29   6 C        2.919    -0.077    29.924     8.970
    30   6 C        3.699    -0.058    21.792     6.676
    31   6 C        3.855    -0.012    20.752     6.479
    32   6 C        3.758    -0.107    22.605     6.778
    33   6 C        3.755    -0.112    22.707     6.795
    34   1 H        0.926     0.057     2.229     2.335
    35   1 H        0.924     0.058     2.219     2.329
    36   1 H        0.925     0.084     1.942     2.179
    37   1 H        0.924     0.056     2.244     2.343
    38   1 H        0.924     0.056     2.243     2.342
    39   1 H        0.925     0.083     1.946     2.181
    40   1 H        0.924     0.055     2.264     2.353
    41   1 H        0.926     0.054     2.271     2.356
    42   1 H        0.926     0.037     2.485     2.465
    43   1 H        0.924     0.081     1.966     2.193
    44   1 H        0.924     0.071     2.075     2.253
    45   1 H        0.926     0.043     2.405     2.425
    46   1 H        0.926     0.043     2.406     2.425
    47   1 H        0.923     0.016     2.797     2.615
    48   1 H        0.925     0.051     2.305     2.374
    49   1 H        0.924     0.056     2.245     2.343
    50   1 H        0.924     0.061     2.193     2.316
    51   1 H        0.924     0.054     2.274     2.358
    52   1 H        0.924     0.056     2.252     2.347
    53   1 H        0.926     0.052     2.299     2.371
    54   1 H        0.926     0.061     2.190     2.314
    55   1 H        0.924     0.058     2.229     2.335
    56   1 H        0.924     0.058     2.219     2.329
    57   1 H        0.925     0.084     1.937     2.176
    58   1 H        0.925     0.083     1.945     2.181
    59   1 H        0.924     0.052     2.291     2.367
    60   1 H        0.924     0.055     2.259     2.350
    61   1 H        0.926     0.051     2.305     2.374
    62   1 H        0.924     0.059     2.208     2.324
    63   1 H        0.924     0.066     2.125     2.279
    64   1 H        0.925     0.065     2.143     2.289
    65   1 H        0.924     0.081     1.971     2.195
    66   1 H        0.925     0.044     2.397     2.421
    67   1 H        0.925     0.060     2.201     2.320
    68   1 H        0.925     0.059     2.209     2.324
    69   1 H        0.925     0.047     2.358     2.401
    70   1 H        0.925     0.041     2.436     2.441
    71   1 H        0.925     0.054     2.268     2.355
    72   1 H        0.860     0.151     1.394     1.850

Wiberg/Mayer (AO) data.
largest (>0.10) Wiberg bond orders for each atom

     #   Z sym  total        # sym  WBO       # sym  WBO       # sym  WBO
 ---------------------------------------------------------------------------
     1   7 N    2.639 --     2 C    1.630    72 H    0.947
     2   6 C    3.913 --     1 N    1.630     3 C    1.313    47 H    0.920
     3   6 C    3.499 --     2 C    1.313    31 C    1.037    14 C    1.033
     4   6 C    3.936 --    13 C    1.425     5 C    1.416    45 H    0.967
     5   6 C    3.951 --     4 C    1.416     6 C    1.379    34 H    0.963
     6   6 C    3.880 --     5 C    1.379     9 C    1.213     7 O    1.115
     7   8 O    2.250 --     6 C    1.115     8 C    0.975
     8   6 C    3.926 --    36 H    0.976     7 O    0.975    37 H    0.972
                            35 H    0.971
     9   6 C    3.879 --    12 C    1.380     6 C    1.213    10 O    1.112
    10   8 O    2.249 --     9 C    1.112    11 C    0.977
    11   6 C    3.927 --    10 O    0.977    39 H    0.976    40 H    0.972
                            38 H    0.972
    12   6 C    3.952 --    13 C    1.415     9 C    1.380    41 H    0.964
    13   6 C    3.935 --     4 C    1.425    12 C    1.415    42 H    0.967
    14   6 C    3.977 --     3 C    1.033    15 C    1.025    43 H    0.929
                            44 H    0.927
    15   6 C    3.808 --    16 C    1.669    14 C    1.025    46 H    0.962
    16   6 C    3.924 --    15 C    1.669    17 N    1.212    48 H    0.954
    17   7 N    3.359 --    16 C    1.212    30 C    1.008    18 C    1.004
    18   6 C    3.961 --    17 N    1.004    50 H    0.968    49 H    0.965
                            19 C    0.962
    19   6 C    3.973 --    20 C    1.015    51 H    0.973    52 H    0.968
                            18 C    0.962
    20   6 C    3.928 --    21 C    1.396    29 C    1.380    19 C    1.015
    21   6 C    3.931 --    22 C    1.422    20 C    1.396    53 H    0.967
    22   6 C    3.950 --    21 C    1.422    23 C    1.376    54 H    0.962
    23   6 C    3.876 --    22 C    1.376    26 C    1.209    24 O    1.116
    24   8 O    2.249 --    23 C    1.116    25 C    0.975
    25   6 C    3.925 --    57 H    0.976    24 O    0.975    56 H    0.971
                            55 H    0.971
    26   6 C    3.883 --    29 C    1.392    23 C    1.209    27 O    1.110
    27   8 O    2.250 --    26 C    1.110    28 C    0.977
    28   6 C    3.929 --    27 O    0.977    58 H    0.976    59 H    0.972
                            60 H    0.972
    29   6 C    3.951 --    26 C    1.392    20 C    1.380    61 H    0.962
    30   6 C    3.966 --    17 N    1.008    64 H    0.979    63 H    0.971
                            62 H    0.966
    31   6 C    3.965 --     3 C    1.037    33 C    1.007    32 C    0.953
                            65 H    0.930
    32   6 C    3.940 --    66 H    0.985    67 H    0.981    68 H    0.978
                            31 C    0.953
    33   6 C    3.983 --    31 C    1.007    69 H    0.982    71 H    0.981
                            70 H    0.981
    34   1 H    0.995 --     5 C    0.963
    35   1 H    0.989 --     8 C    0.971
    36   1 H    0.992 --     8 C    0.976
    37   1 H    0.990 --     8 C    0.972
    38   1 H    0.990 --    11 C    0.972
    39   1 H    0.992 --    11 C    0.976
    40   1 H    0.990 --    11 C    0.972
    41   1 H    0.995 --    12 C    0.964
    42   1 H    0.998 --    13 C    0.967
    43   1 H    0.971 --    14 C    0.929
    44   1 H    0.961 --    14 C    0.927
    45   1 H    0.997 --     4 C    0.967
    46   1 H    0.997 --    15 C    0.962
    47   1 H    0.964 --     2 C    0.920
    48   1 H    0.997 --    16 C    0.954
    49   1 H    0.991 --    18 C    0.965
    50   1 H    0.995 --    18 C    0.968
    51   1 H    0.996 --    19 C    0.973
    52   1 H    0.994 --    19 C    0.968
    53   1 H    0.996 --    21 C    0.967
    54   1 H    0.994 --    22 C    0.962
    55   1 H    0.989 --    25 C    0.971
    56   1 H    0.989 --    25 C    0.971
    57   1 H    0.992 --    25 C    0.976
    58   1 H    0.992 --    28 C    0.976
    59   1 H    0.991 --    28 C    0.972
    60   1 H    0.991 --    28 C    0.972
    61   1 H    0.996 --    29 C    0.962
    62   1 H    0.982 --    30 C    0.966
    63   1 H    0.990 --    30 C    0.971
    64   1 H    0.994 --    30 C    0.979
    65   1 H    0.968 --    31 C    0.930
    66   1 H    0.995 --    32 C    0.985
    67   1 H    0.994 --    32 C    0.981
    68   1 H    0.990 --    32 C    0.978
    69   1 H    0.995 --    33 C    0.982
    70   1 H    0.996 --    33 C    0.981
    71   1 H    0.994 --    33 C    0.981
    72   1 H    0.966 --     1 N    0.947
 ---------------------------------------------------------------------------

molecular dipole:
                 x           y           z       tot (Debye)
 q only:        0.653       0.007      -0.387
   full:        0.956      -0.073      -0.345       2.590

           -------------------------------------------------
          | TOTAL ENERGY              -99.369751135827 Eh   |
          | GRADIENT NORM               0.003276058685 Eh/α |
          | HOMO-LUMO GAP               0.733551074755 eV   |
           -------------------------------------------------

 * finished run on 2024/04/06 at 11:12:25.911
