   * xtb version 6.6.1 (8d0f1dd) compiled by 'conda@1efc2f54142f' on 2023-08-01
          program call               : xtb xtbopt.xyz --opt crude --input .xc2 --gfn2

   ID    Z sym.   atoms
    1    7 N      1, 17
    2    6 C      2-6, 8, 9, 11-16, 18-23, 25, 26, 28-33
    3    8 O      7, 10, 24, 27
    4    1 H      34-72

          :  Hamiltonian                  GFN2-xTB          :
 * total energy  :   -99.2471376 Eh     change       -0.2010836E-10 Eh
   *** GEOMETRY OPTIMIZATION CONVERGED AFTER 1 ITERATIONS ***

 final structure:
================
72
 xtb: 6.6.1 (8d0f1dd)
N           -1.91385235992026        2.91209425310843        2.07735356919324
C           -2.00365920742387        2.16719494343288        1.07901374369698
C           -3.25738878065254        1.96393317619449        0.27374792576610
C           -3.66711955596241        0.50039940693902        0.34142650522726
C           -4.63665933653670        0.00538204522266       -0.53275465736746
C           -5.06725215279681       -1.30930951598622       -0.46452344348506
O           -6.00192575952369       -1.86671072393133       -1.26128149594770
C           -6.67943084182080       -1.06390406483037       -2.19906821899884
C           -4.51015570420701       -2.17932779505114        0.51181981323528
O           -4.99142739441192       -3.43780232549776        0.50647150038161
C           -4.57345523729567       -4.33612501974391        1.50780634251298
C           -3.54811946031216       -1.68112009831191        1.37625155860456
C           -3.13598079046384       -0.35823290255079        1.29218488550499
C           -2.89386696520237        2.35612243051752       -1.18252047891138
C           -1.97377610792112        1.35509164374613       -1.89794919737983
C           -0.56437951545787        1.42093254588542       -1.44319070048227
N            0.24983529936528        0.39782784138796       -1.31032866240059
C            1.72162665784546        0.59684019766281       -1.28124724621307
C            2.25640270273404        0.30984107608903       -2.61573807928413
C            4.87373798382355       -0.87808225551392       -0.29126367258306
C            5.27419669697803        0.33346348363860       -0.76896622422652
C            6.57623944233548        0.73741881428188       -0.46194537743797
C            7.41442185059177       -0.08193325789210        0.28147767515144
O            8.68428293976073        0.20950511624994        0.63048359873767
C            9.24328713667933        1.43975126245485        0.23253174287916
C            6.95206218978288       -1.35067243663266        0.73668608156458
O            7.84268030291459       -2.07789756253865        1.43262845923661
C            7.49474781074647       -3.36908629646491        1.87327708500509
C            5.64335945521676       -1.73611240436882        0.44003828280769
C           -0.20851985947663       -0.96562532451540       -1.43694793297651
C           -4.46101919074078        2.82022234575971        0.76836539136417
C           -4.87940166368589        2.42882027072443        2.18366458037362
C           -4.20064058573458        4.32274006302617        0.70825595283069
H           -5.07350943500889        0.66211540518517       -1.26657809175065
H           -7.19697707435578       -0.23037387273851       -1.71456387546189
H           -7.41216711928422       -1.71833529354357       -2.66729080791380
H           -5.99884084738935       -0.67852772768622       -2.96550717797419
H           -4.80220799531582       -3.95518533595582        2.50769754433898
H           -5.13613724020274       -5.25119514610062        1.33230654354121
H           -3.50230276709332       -4.55034905716920        1.43408951121231
H           -3.11928462471950       -2.31316952386906        2.13672418756700
H           -2.41001747516663        0.00336214845390        2.00387328592847
H           -3.81511163025840        2.44523739951861       -1.75744417256782
H           -2.41733096905724        3.33709223431002       -1.17376768944685
H           -2.38168131063409        0.34883050531739       -1.80786338441890
H           -1.97622223103218        1.61863260199469       -2.96398123979801
H           -1.14935071792124        1.61033671256096        0.65043158653052
H           -0.12620715123364        2.40445420480139       -1.34777077156530
H            2.13413761660152       -0.07283223211364       -0.52329106683284
H            1.89531695847153        1.63286123986047       -0.98167911709298
H            2.10716229015540        1.01978155192532       -3.40604820127776
H            2.58208236078969       -0.67698992054779       -2.87497402507213
H            4.63513108508239        0.96337298758014       -1.36795439333888
H            6.91739970640539        1.69517245007068       -0.82125835519579
H            8.69003020078832        2.28486690159009        0.65340033165043
H            9.27848761893746        1.53007675938442       -0.85736863039622
H           10.25736274533155        1.43962224863261        0.62738641276253
H            8.38281627440348       -3.75587630683262        2.36887507844198
H            6.66524962905264       -3.34009629667624        2.58686308408265
H            7.23393395785079       -4.02160191353800        1.03402934482816
H            5.26089603362648       -2.68622452108176        0.77902153867037
H           -0.49319203383183       -1.20322876008175       -2.46502879303900
H           -1.06961249323377       -1.13035356906648       -0.78541794622462
H            0.59505816578618       -1.63670437328905       -1.13730755663944
H           -5.29649416773575        2.59253515554844        0.09595269568463
H           -4.08177199259624        2.65662452157089        2.88373976685628
H           -5.11401994939221        1.36902021915882        2.24639506614110
H           -5.76296059446514        2.99189650187876        2.47173186232685
H           -3.35266998568428        4.58239142471773        1.33472529804992
H           -4.01719070479960        4.66516682328110       -0.30688258022456
H           -5.07453959882695        4.84956267456279        1.08282995543234
H           -1.00759893627047        2.99653176826568        2.52741031841708

          :  Hamiltonian                  GFN2-xTB          :
         :: total energy             -99.247137556981 Eh    ::
         :: gradient norm              0.002916317653 Eh/a0 ::
         :: HOMO-LUMO gap              0.239002219941 eV    ::
         :: SCC energy              -100.629211021681 Eh    ::
         :: -> dispersion             -0.071721435529 Eh    ::
         :: repulsion energy           1.380849685460 Eh    ::

    * Orbital Energies and Occupations

         #    Occupation            Energy/Eh            Energy/eV
      -------------------------------------------------------------
         1        2.0000           -0.8091449             -22.0180
       ...           ...                  ...                  ...
        78        1.9980           -0.5285378             -14.3822
        79        1.9980           -0.5278612             -14.3638
        80        1.9970           -0.5217078             -14.1964
        81        1.9969           -0.5211386             -14.1809
        82        1.9953           -0.5145935             -14.0028
        83        1.9946           -0.5122583             -13.9393
        84        1.9935           -0.5093895             -13.8612
        85        1.9783           -0.4902475             -13.3403
        86        1.9713           -0.4857541             -13.2180
        87        1.9297           -0.4712476             -12.8233
        88        1.8537           -0.4589967             -12.4899
        89        1.8009           -0.4536666             -12.3449
        90        1.2621           -0.4272948             -11.6273 (HOMO)
        91        0.9911           -0.4185117             -11.3883 (LUMO)
        92        0.2292           -0.3864172             -10.5149
        93        0.0125           -0.3385002              -9.2111
        94        0.0030           -0.3160890              -8.6012
        95        0.0025           -0.3130127              -8.5175
        96        0.0023           -0.3117921              -8.4843
        97        0.0010           -0.2983292              -8.1180
        98        0.0000           -0.1904363              -5.1820
        99        0.0000           -0.1773255              -4.8253
       100                         -0.1369240              -3.7259
       101                         -0.0675152              -1.8372
       ...                                ...                  ...
       171                          0.5775456              15.7158
      -------------------------------------------------------------
                  HL-Gap            0.0087832 Eh            0.2390 eV

     #   Z          covCN         q      C6AA      α(0)
     1   7 N        1.774    -0.268    27.771     7.804
     2   6 C        2.827     0.102    25.740     8.313
     3   6 C        3.907     0.006    20.412     6.422
     4   6 C        2.975     0.002    27.988     8.678
     5   6 C        2.920    -0.080    29.999     8.982
     6   6 C        2.862     0.130    25.152     8.221
     7   8 O        1.706    -0.229    17.790     5.695
     8   6 C        3.644     0.027    20.453     6.501
     9   6 C        2.864     0.130    25.158     8.222
    10   8 O        1.706    -0.227    17.759     5.690
    11   6 C        3.645     0.026    20.463     6.501
    12   6 C        2.913    -0.073    29.811     8.953
    13   6 C        2.922    -0.051    29.274     8.873
    14   6 C        3.813    -0.065    21.736     6.636
    15   6 C        3.802    -0.069    21.826     6.651
    16   6 C        2.841     0.016    27.644     8.616
    17   7 N        2.731     0.011    21.057     6.815
    18   6 C        3.747    -0.008    20.792     6.504
    19   6 C        2.838    -0.134    31.429     9.187
    20   6 C        2.017    -0.072    32.972     9.274
    21   6 C        2.911    -0.029    28.735     8.790
    22   6 C        2.927    -0.062    29.552     8.915
    23   6 C        2.861     0.131    25.136     8.218
    24   8 O        1.706    -0.224    17.714     5.683
    25   6 C        3.644     0.026    20.480     6.505
    26   6 C        2.873     0.138    24.982     8.193
    27   8 O        1.706    -0.216    17.591     5.663
    28   6 C        3.645     0.026    20.467     6.503
    29   6 C        2.910    -0.057    29.421     8.894
    30   6 C        3.699    -0.066    21.943     6.699
    31   6 C        3.853    -0.007    20.671     6.466
    32   6 C        3.756    -0.118    22.816     6.811
    33   6 C        3.755    -0.120    22.846     6.815
    34   1 H        0.926     0.052     2.295     2.369
    35   1 H        0.924     0.054     2.270     2.356
    36   1 H        0.925     0.082     1.961     2.190
    37   1 H        0.924     0.048     2.348     2.396
    38   1 H        0.924     0.055     2.253     2.347
    39   1 H        0.925     0.082     1.963     2.191
    40   1 H        0.924     0.050     2.320     2.382
    41   1 H        0.926     0.054     2.274     2.358
    42   1 H        0.926     0.041     2.433     2.439
    43   1 H        0.925     0.061     2.192     2.315
    44   1 H        0.924     0.055     2.257     2.349
    45   1 H        0.925     0.067     2.121     2.278
    46   1 H        0.923     0.082     1.955     2.187
    47   1 H        0.922     0.008     2.930     2.677
    48   1 H        0.926     0.073     2.051     2.240
    49   1 H        0.924     0.072     2.062     2.246
    50   1 H        0.924     0.064     2.151     2.294
    51   1 H        0.926     0.042     2.429     2.437
    52   1 H        0.926     0.049     2.331     2.388
    53   1 H        0.926     0.058     2.227     2.334
    54   1 H        0.926     0.063     2.159     2.298
    55   1 H        0.924     0.054     2.269     2.355
    56   1 H        0.924     0.056     2.251     2.346
    57   1 H        0.925     0.083     1.949     2.183
    58   1 H        0.925     0.084     1.941     2.179
    59   1 H        0.924     0.055     2.255     2.348
    60   1 H        0.924     0.057     2.239     2.340
    61   1 H        0.926     0.063     2.159     2.298
    62   1 H        0.924     0.077     2.007     2.216
    63   1 H        0.924     0.076     2.021     2.223
    64   1 H        0.925     0.086     1.921     2.167
    65   1 H        0.924     0.037     2.483     2.464
    66   1 H        0.925     0.067     2.117     2.276
    67   1 H        0.925     0.035     2.512     2.479
    68   1 H        0.925     0.052     2.299     2.371
    69   1 H        0.925     0.064     2.156     2.296
    70   1 H        0.925     0.035     2.511     2.478
    71   1 H        0.925     0.055     2.260     2.351
    72   1 H        0.860     0.158     1.351     1.821

Wiberg/Mayer (AO) data.
largest (>0.10) Wiberg bond orders for each atom

     #   Z sym  total        # sym  WBO       # sym  WBO       # sym  WBO
 ---------------------------------------------------------------------------
     1   7 N    3.035 --     2 C    1.956    72 H    0.941
     2   6 C    3.932 --     1 N    1.956     3 C    0.994    47 H    0.904
     3   6 C    3.975 --     2 C    0.994     4 C    0.971    14 C    0.955
                            31 C    0.943
     4   6 C    3.945 --    13 C    1.411     5 C    1.370     3 C    0.971
     5   6 C    3.960 --     6 C    1.399     4 C    1.370    34 H    0.958
     6   6 C    3.901 --     5 C    1.399     9 C    1.220     7 O    1.100
     7   8 O    2.253 --     6 C    1.100     8 C    0.978
     8   6 C    3.931 --     7 O    0.978    36 H    0.977    35 H    0.973
                            37 H    0.973
     9   6 C    3.897 --    12 C    1.389     6 C    1.220    10 O    1.104
    10   8 O    2.251 --     9 C    1.104    11 C    0.977
    11   6 C    3.930 --    10 O    0.977    39 H    0.977    38 H    0.973
                            40 H    0.973
    12   6 C    3.960 --    13 C    1.409     9 C    1.389    41 H    0.963
    13   6 C    3.951 --     4 C    1.411    12 C    1.409    42 H    0.962
    14   6 C    3.979 --    15 C    0.989    44 H    0.971    43 H    0.968
                             3 C    0.955
    15   6 C    3.984 --    16 C    1.053    14 C    0.989    45 H    0.959
                            46 H    0.924
    16   6 C    3.688 --    17 N    1.472    15 C    1.053    48 H    0.955
    17   7 N    3.494 --    16 C    1.472    30 C    0.998    18 C    0.904
    18   6 C    3.944 --    19 C    1.073    49 H    0.961    50 H    0.959
                            17 N    0.904
    19   6 C    3.159 --    18 C    1.073    51 H    0.984    52 H    0.983
    20   6 C    3.052 --    21 C    1.454    29 C    1.448
    21   6 C    3.894 --    20 C    1.454    22 C    1.354    53 H    0.954
    22   6 C    3.897 --    23 C    1.392    21 C    1.354    54 H    0.953
    23   6 C    3.883 --    22 C    1.392    26 C    1.219    24 O    1.102
    24   8 O    2.236 --    23 C    1.102    25 C    0.977
    25   6 C    3.927 --    24 O    0.977    57 H    0.976    55 H    0.972
                            56 H    0.972
    26   6 C    3.836 --    29 C    1.331    23 C    1.219    27 O    1.110
    27   8 O    2.251 --    26 C    1.110    28 C    0.974
    28   6 C    3.925 --    58 H    0.976    27 O    0.974    60 H    0.972
                            59 H    0.972
    29   6 C    3.923 --    20 C    1.448    26 C    1.331    61 H    0.949
    30   6 C    3.956 --    17 N    0.998    64 H    0.976    63 H    0.966
                            62 H    0.966
    31   6 C    3.972 --    33 C    1.008    32 C    1.008    65 H    0.960
                             3 C    0.943
    32   6 C    3.979 --    31 C    1.008    67 H    0.981    68 H    0.981
                            66 H    0.974
    33   6 C    3.980 --    31 C    1.008    70 H    0.982    71 H    0.980
                            69 H    0.975
    34   1 H    0.996 --     5 C    0.958
    35   1 H    0.993 --     8 C    0.973
    36   1 H    0.993 --     8 C    0.977
    37   1 H    0.993 --     8 C    0.973
    38   1 H    0.992 --    11 C    0.973
    39   1 H    0.993 --    11 C    0.977
    40   1 H    0.993 --    11 C    0.973
    41   1 H    0.995 --    12 C    0.963
    42   1 H    0.998 --    13 C    0.962
    43   1 H    0.995 --    14 C    0.968
    44   1 H    0.996 --    14 C    0.971
    45   1 H    0.994 --    15 C    0.959
    46   1 H    0.973 --    15 C    0.924
    47   1 H    0.985 --     2 C    0.904
    48   1 H    0.994 --    16 C    0.955
    49   1 H    0.988 --    18 C    0.961
    50   1 H    0.982 --    18 C    0.959
    51   1 H    0.997 --    19 C    0.984
    52   1 H    0.996 --    19 C    0.983
    53   1 H    0.985 --    21 C    0.954
    54   1 H    0.983 --    22 C    0.953
    55   1 H    0.991 --    25 C    0.972
    56   1 H    0.991 --    25 C    0.972
    57   1 H    0.992 --    25 C    0.976
    58   1 H    0.992 --    28 C    0.976
    59   1 H    0.991 --    28 C    0.972
    60   1 H    0.991 --    28 C    0.972
    61   1 H    0.980 --    29 C    0.949
    62   1 H    0.986 --    30 C    0.966
    63   1 H    0.990 --    30 C    0.966
    64   1 H    0.992 --    30 C    0.976
    65   1 H    0.992 --    31 C    0.960
    66   1 H    0.991 --    32 C    0.974
    67   1 H    0.996 --    32 C    0.981
    68   1 H    0.994 --    32 C    0.981
    69   1 H    0.992 --    33 C    0.975
    70   1 H    0.997 --    33 C    0.982
    71   1 H    0.993 --    33 C    0.980
    72   1 H    0.969 --     1 N    0.941
 ---------------------------------------------------------------------------

molecular dipole:
                 x           y           z       tot (Debye)
 q only:        0.564       0.036      -0.768
   full:        0.911      -0.021      -0.959       3.363

           -------------------------------------------------
          | TOTAL ENERGY              -99.247137556981 Eh   |
          | GRADIENT NORM               0.002916317653 Eh/α |
          | HOMO-LUMO GAP               0.239002219941 eV   |
           -------------------------------------------------

 * finished run on 2024/04/06 at 11:13:48.464
