   * xtb version 6.6.1 (8d0f1dd) compiled by 'conda@1efc2f54142f' on 2023-08-01
          program call               : xtb xtbopt.xyz --opt crude --input .xc2 --gfn2

   ID    Z sym.   atoms
    1    6 C      1, 3, 5-7, 10, 11, 14
    2    7 N      2, 4, 9, 13
    3    8 O      8, 12
    4    1 H      15-25

          :  Hamiltonian                  GFN2-xTB          :
 * total energy  :   -42.1322754 Eh     change       -0.6394885E-12 Eh
   *** GEOMETRY OPTIMIZATION CONVERGED AFTER 1 ITERATIONS ***

 final structure:
================
25
 xtb: 6.6.1 (8d0f1dd)
C            3.19671983437759        1.19342980216548        0.02573257107119
N            2.21426379521291        0.14688360658199        0.00830347169166
C            2.43656692986736       -1.18842832026872        0.00658446075298
N            1.32894231388542       -1.89489709407619        0.00350546160914
C            0.32323311262864       -0.99297555869510        0.00478861202324
C            0.86206511003528        0.30420128506257        0.00753174065839
C            0.02714494825454        1.48007020943540       -0.00353450152217
O            0.41662384158551        2.62633999998647       -0.01375937222503
N           -1.32620312470391        1.14541638367316       -0.00515410770218
C           -2.28667354499328        2.23465511108450       -0.01074985841490
C           -1.88200060703080       -0.12884274237535        0.00472594577927
O           -3.07391800777446       -0.29131780826738        0.01135100795898
N           -1.00291945193624       -1.21824915093345        0.00505256315199
C           -1.53554118726655       -2.55904060822296        0.00784776769267
H            3.71862266422726        1.20626845085769        0.98506811167485
H            3.92975546831382        1.03471082957114       -0.76588112818386
H            2.69915726255896        2.15200571745908       -0.11964943091193
H            3.41886865711851       -1.61965599136368        0.00746661342159
H           -1.73816207823918        3.17475336731854       -0.00697522525867
H           -2.91996457107442        2.16890732660296       -0.89709509822585
H           -2.93148696585783        2.16708766287212        0.86705558589444
H           -1.17103527234536       -3.09951436206193        0.88233393728643
H           -1.20798949821255       -3.08976587077292       -0.88723103503762
H           -2.62250691807436       -2.49822819472374        0.02952275008413
H            2.28686880354311       -4.63557550930949       -0.11566922536871

          :  Hamiltonian                  GFN2-xTB          :
         :: total energy             -42.132275432054 Eh    ::
         :: gradient norm              0.001400738145 Eh/a0 ::
         :: HOMO-LUMO gap              0.706400326268 eV    ::
         :: SCC energy               -42.643758816518 Eh    ::
         :: -> dispersion             -0.022447708722 Eh    ::
         :: repulsion energy           0.511389904812 Eh    ::

    * Orbital Energies and Occupations

         #    Occupation            Energy/Eh            Energy/eV
      -------------------------------------------------------------
         1        2.0000           -0.8927125             -24.2919
       ...           ...                  ...                  ...
        25        1.9996           -0.6671920             -18.1552
        26        1.9991           -0.6568443             -17.8736
        27        1.9982           -0.6455660             -17.5667
        28        1.9976           -0.6405211             -17.4295
        29        1.9944           -0.6271872             -17.0666
        30        1.9890           -0.6164235             -16.7737
        31        1.9871           -0.6138675             -16.7042
        32        1.9780           -0.6053056             -16.4712
        33        1.9647           -0.5977406             -16.2653
        34        1.9168           -0.5837551             -15.8848
        35        1.8842           -0.5782561             -15.7351
        36        1.8791           -0.5775269             -15.7153
        37        1.5742           -0.5547957             -15.0968 (HOMO)
        38        0.8356           -0.5288360             -14.3904 (LUMO)
        39        0.0030           -0.4310331             -11.7290
        40        0.0002           -0.3894775             -10.5982
        41        0.0001           -0.3737416             -10.1700
        42        0.0000           -0.2947873              -8.0216
        43                         -0.2057662              -5.5992
        44                         -0.1579266              -4.2974
        45                         -0.1372770              -3.7355
        46                         -0.0798558              -2.1730
        47                         -0.0586994              -1.5973
        48                         -0.0384061              -1.0451
       ...                                ...                  ...
        67                          0.5352753              14.5656
      -------------------------------------------------------------
                  HL-Gap            0.0259597 Eh            0.7064 eV

     #   Z          covCN         q      C6AA      α(0)
     1   6 C        3.689    -0.082    22.273     6.754
     2   7 N        2.829     0.052    20.338     6.698
     3   6 C        3.184     0.097    25.433     8.230
     4   7 N        1.898    -0.209    26.372     7.613
     5   6 C        3.164     0.134    24.771     8.134
     6   6 C        3.120    -0.007    28.014     8.668
     7   6 C        2.764     0.274    22.374     7.746
     8   8 O        0.858    -0.331    20.356     6.049
     9   7 N        2.746    -0.069    22.570     7.056
    10   6 C        3.708    -0.062    21.844     6.680
    11   6 C        2.728     0.317    21.614     7.611
    12   8 O        0.860    -0.330    20.329     6.045
    13   7 N        2.739    -0.018    21.602     6.903
    14   6 C        3.700    -0.073    22.061     6.717
    15   1 H        0.924     0.110     1.701     2.039
    16   1 H        0.924     0.107     1.722     2.052
    17   1 H        0.925     0.126     1.564     1.956
    18   1 H        0.926     0.108     1.712     2.046
    19   1 H        0.925     0.123     1.591     1.973
    20   1 H        0.924     0.115     1.652     2.010
    21   1 H        0.924     0.116     1.650     2.009
    22   1 H        0.924     0.112     1.676     2.024
    23   1 H        0.924     0.112     1.676     2.024
    24   1 H        0.925     0.128     1.554     1.949
    25   1 H        0.000     0.151     3.446     3.394

Wiberg/Mayer (AO) data.
largest (>0.10) Wiberg bond orders for each atom

     #   Z sym  total        # sym  WBO       # sym  WBO       # sym  WBO
 ---------------------------------------------------------------------------
     1   6 C    3.904 --     2 N    0.994    17 H    0.960    16 H    0.956
                            15 H    0.948
     2   7 N    3.637 --     3 C    1.269     6 C    1.217     1 C    0.994
     3   6 C    3.869 --     4 N    1.488     2 N    1.269    18 H    0.955
     4   7 N    2.969 --     3 C    1.488     5 C    1.266
     5   6 C    3.900 --     4 N    1.266     6 C    1.255    13 N    1.209
     6   6 C    3.797 --     5 C    1.255     2 N    1.217     7 C    1.076
     7   6 C    3.946 --     8 O    1.672     9 N    1.101     6 C    1.076
     8   8 O    1.960 --     7 C    1.672     9 N    0.127
     9   7 N    3.501 --    11 C    1.106     7 C    1.101    10 C    0.979
                             8 O    0.127    12 O    0.117
    10   6 C    3.868 --     9 N    0.979    19 H    0.959    21 H    0.943
                            20 H    0.943
    11   6 C    3.951 --    12 O    1.686     9 N    1.106    13 N    1.068
    12   8 O    1.975 --    11 C    1.686     9 N    0.117    13 N    0.101
    13   7 N    3.483 --     5 C    1.209    11 C    1.068    14 C    0.983
                            12 O    0.101
    14   6 C    3.886 --    13 N    0.983    24 H    0.962    22 H    0.948
                            23 H    0.947
    15   1 H    0.974 --     1 C    0.948
    16   1 H    0.978 --     1 C    0.956
    17   1 H    0.978 --     1 C    0.960
    18   1 H    0.986 --     3 C    0.955
    19   1 H    0.978 --    10 C    0.959
    20   1 H    0.961 --    10 C    0.943
    21   1 H    0.961 --    10 C    0.943
    22   1 H    0.964 --    14 C    0.948
    23   1 H    0.963 --    14 C    0.947
    24   1 H    0.980 --    14 C    0.962
    25   1 H    0.014
 ---------------------------------------------------------------------------

molecular dipole:
                 x           y           z       tot (Debye)
 q only:        1.685      -1.609      -0.012
   full:        1.957      -1.489      -0.006       6.250

           -------------------------------------------------
          | TOTAL ENERGY              -42.132275432054 Eh   |
          | GRADIENT NORM               0.001400738145 Eh/α |
          | HOMO-LUMO GAP               0.706400326268 eV   |
           -------------------------------------------------

 * finished run on 2024/06/05 at 20:00:12.019
