   * xtb version 6.6.1 (8d0f1dd) compiled by 'conda@1efc2f54142f' on 2023-08-01
          program call               : xtb struc.xyz --opt loose --input .xc1 --gfn2

   ID    Z sym.   atoms
    1    6 C      1, 3, 5-7, 10, 11, 14
    2    7 N      2, 4, 9, 13
    3    8 O      8, 12
    4    1 H      15-25
constraining bond 11 20 to    5.1400000 Å, actual value:    2.6644824 Å

          :  Hamiltonian                  GFN2-xTB          :
 * total energy  :     1.5204406 Eh     change       -0.6650680E-10 Eh
 * total energy  :   -19.1010683 Eh     change       -0.2062151E+02 Eh
 * total energy  :   -31.4025413 Eh     change       -0.1230147E+02 Eh
 * total energy  :   -38.3057018 Eh     change       -0.6903160E+01 Eh
 * total energy  :   -41.2354910 Eh     change       -0.2929789E+01 Eh
 * total energy  :   -41.7324210 Eh     change       -0.4969299E+00 Eh
 * total energy  :   -41.7675089 Eh     change       -0.3508794E-01 Eh
 * total energy  :   -41.8086265 Eh     change       -0.4111765E-01 Eh
 * total energy  :   -41.8699293 Eh     change       -0.6130279E-01 Eh
 * total energy  :   -41.8804609 Eh     change       -0.1053156E-01 Eh
 * total energy  :   -42.1036059 Eh     change       -0.6944198E-03 Eh
 * total energy  :   -42.1038621 Eh     change       -0.2562469E-03 Eh
 * total energy  :   -42.1039974 Eh     change       -0.1352374E-03 Eh
 * total energy  :   -42.1040796 Eh     change       -0.8227696E-04 Eh
 * total energy  :   -42.1041740 Eh     change       -0.9435483E-04 Eh
 * total energy  :   -42.1042491 Eh     change       -0.7513110E-04 Eh
 * total energy  :   -42.1042891 Eh     change       -0.3993081E-04 Eh
 * total energy  :   -42.1043178 Eh     change       -0.2877221E-04 Eh
 * total energy  :   -42.1043299 Eh     change       -0.1202132E-04 Eh
   *** GEOMETRY OPTIMIZATION CONVERGED AFTER 37 ITERATIONS ***

 final structure:
================
25
 xtb: 6.6.1 (8d0f1dd)
C            3.21730386674276        1.12376136546975       -0.02026472090303
N            2.28540094830539        0.02834734900860       -0.02924879289124
C            2.57965445599589       -1.26782670070388       -0.07860968797896
N            1.44094879383016       -1.99882649921157       -0.04048261589806
C            0.38835892826927       -1.13677117669646        0.03647566358112
C            0.91382088959758        0.14916840582436        0.04414225227558
C            0.08861030794001        1.31766933671660        0.10153854236057
O            0.44262191336144        2.47532467343730        0.09256871576961
N           -1.30465017312858        0.96970230398999        0.17310591810379
C           -2.18138344958729        1.98074371903398        0.24480327897581
C           -1.84169767065394       -0.35082723148366        0.18306710275555
O           -3.02421873263739       -0.53959398499237        0.25414733282480
N           -0.93207003517741       -1.40257191800188        0.09615382803799
C           -1.43316484409623       -2.76493815701194        0.09929883742578
H            3.72754287956082        1.17819455587507        0.94287061182467
H            3.96088878497693        0.99408807481456       -0.80523571553202
H            2.66955183905968        2.05185005301598       -0.17841236193671
H            3.56737079802871       -1.67852424319564       -0.14014980947419
H           -1.78893476133982        2.98105853397613        0.25463474571846
H           -3.05863073082541        4.26029506604498       -1.73343278852159
H           -3.23017949055773        1.75684640319957        0.29782882994186
H           -1.08747813188178       -3.29552380671212        0.98692671709032
H           -1.11350917193131       -3.28781424483376       -0.80164533170964
H           -2.52085752261071       -2.71829613562883        0.11675455059870
H            1.39513182285887       -3.00729720033470       -0.06566348453923

          :  Hamiltonian                  GFN2-xTB          :
         :: total energy             -42.104329858155 Eh    ::
         :: gradient norm              0.002767432862 Eh/a0 ::
         :: HOMO-LUMO gap              0.215209602152 eV    ::
         :: SCC energy               -42.625236089477 Eh    ::
         :: -> dispersion             -0.022672128645 Eh    ::
         :: repulsion energy           0.520812096965 Eh    ::

    * Orbital Energies and Occupations

         #    Occupation            Energy/Eh            Energy/eV
      -------------------------------------------------------------
         1        2.0000           -0.9113188             -24.7982
       ...           ...                  ...                  ...
        25        2.0000           -0.6712174             -18.2648
        26        2.0000           -0.6692173             -18.2103
        27        2.0000           -0.6629476             -18.0397
        28        1.9999           -0.6332313             -17.2311
        29        1.9999           -0.6300548             -17.1447
        30        1.9999           -0.6279955             -17.0886
        31        1.9998           -0.6189909             -16.8436
        32        1.9997           -0.6143509             -16.7173
        33        1.9997           -0.6130444             -16.6818
        34        1.9982           -0.5854843             -15.9318
        35        1.9941           -0.5666789             -15.4201
        36        1.9902           -0.5586446             -15.2015
        37        1.0647           -0.4765831             -12.9685 (HOMO)
        38        0.8172           -0.4686743             -12.7533 (LUMO)
        39        0.1164           -0.4304516             -11.7132
        40        0.0173           -0.3994846             -10.8705
        41        0.0031           -0.3721428             -10.1265
        42        0.0000           -0.2875736              -7.8253
        43                         -0.2083143              -5.6685
        44                         -0.1969439              -5.3591
        45                         -0.1508914              -4.1060
        46                         -0.1453119              -3.9541
        47                         -0.0789780              -2.1491
        48                         -0.0541709              -1.4741
       ...                                ...                  ...
        67                          0.5486334              14.9291
      -------------------------------------------------------------
                  HL-Gap            0.0079088 Eh            0.2152 eV

     #   Z          covCN         q      C6AA      α(0)
     1   6 C        3.691    -0.094    22.483     6.785
     2   7 N        2.830     0.078    19.893     6.624
     3   6 C        3.049     0.047    26.898     8.506
     4   7 N        2.792    -0.058    22.358     7.023
     5   6 C        3.041     0.106    25.624     8.303
     6   6 C        3.109    -0.023    28.440     8.737
     7   6 C        2.776     0.254    22.729     7.808
     8   8 O        0.857    -0.363    20.947     6.136
     9   7 N        2.741    -0.031    21.845     6.942
    10   6 C        2.816    -0.022    28.539     8.753
    11   6 C        2.737     0.309    21.754     7.636
    12   8 O        0.859    -0.350    20.697     6.100
    13   7 N        2.737    -0.049    22.196     6.997
    14   6 C        3.698    -0.073    22.077     6.720
    15   1 H        0.924     0.108     1.713     2.047
    16   1 H        0.925     0.104     1.747     2.067
    17   1 H        0.925     0.134     1.503     1.917
    18   1 H        0.926     0.124     1.584     1.968
    19   1 H        0.926     0.135     1.500     1.915
    20   1 H        0.000     0.010     7.201     4.907
    21   1 H        0.926     0.131     1.531     1.935
    22   1 H        0.924     0.084     1.934     2.175
    23   1 H        0.925     0.083     1.944     2.180
    24   1 H        0.925     0.127     1.556     1.951
    25   1 H        0.860     0.229     0.970     1.543

Wiberg/Mayer (AO) data.
largest (>0.10) Wiberg bond orders for each atom

     #   Z sym  total        # sym  WBO       # sym  WBO       # sym  WBO
 ---------------------------------------------------------------------------
     1   6 C    3.917 --     2 N    0.987    16 H    0.965    17 H    0.961
                            15 H    0.955
     2   7 N    3.649 --     3 C    1.379     6 C    1.146     1 C    0.987
     3   6 C    3.821 --     2 N    1.379     4 N    1.266    18 H    0.953
     4   7 N    3.579 --     3 C    1.266     5 C    1.194    25 H    0.919
     5   6 C    3.900 --     6 C    1.328     4 N    1.194    13 N    1.191
     6   6 C    3.909 --     5 C    1.328     2 N    1.146     7 C    1.116
     7   6 C    3.869 --     8 O    1.674     6 C    1.116     9 N    0.986
     8   8 O    1.958 --     7 C    1.674     9 N    0.108
     9   7 N    3.615 --    10 C    1.346    11 C    1.014     7 C    0.986
                             8 O    0.108
    10   6 C    3.356 --     9 N    1.346    21 H    0.960    19 H    0.956
    11   6 C    3.905 --    12 O    1.709    13 N    1.087     9 N    1.014
    12   8 O    2.021 --    11 C    1.709    13 N    0.135
    13   7 N    3.565 --     5 C    1.191    11 C    1.087    14 C    0.971
                            12 O    0.135
    14   6 C    3.924 --    23 H    0.972    22 H    0.971    13 N    0.971
                            24 H    0.965
    15   1 H    0.983 --     1 C    0.955
    16   1 H    0.986 --     1 C    0.965
    17   1 H    0.982 --     1 C    0.961
    18   1 H    0.984 --     3 C    0.953
    19   1 H    0.981 --    10 C    0.956
    20   1 H    0.016
    21   1 H    0.982 --    10 C    0.960
    22   1 H    0.991 --    14 C    0.971
    23   1 H    0.991 --    14 C    0.972
    24   1 H    0.983 --    14 C    0.965
    25   1 H    0.947 --     4 N    0.919
 ---------------------------------------------------------------------------

molecular dipole:
                 x           y           z       tot (Debye)
 q only:        2.379      -2.020      -0.024
   full:        2.615      -2.467      -0.040       9.138

           -------------------------------------------------
          | TOTAL ENERGY              -42.104329858155 Eh   |
          | GRADIENT NORM               0.002767432862 Eh/α |
          | HOMO-LUMO GAP               0.215209602152 eV   |
           -------------------------------------------------

 * finished run on 2024/06/05 at 20:00:17.730
