   * xtb version 6.6.1 (8d0f1dd) compiled by 'conda@1efc2f54142f' on 2023-08-01
          program call               : xtb struc.xyz --opt loose --input .xc1 --gfn2

   ID    Z sym.   atoms
    1    6 C      1, 3, 5-7, 10, 11, 14
    2    7 N      2, 4, 9, 13
    3    8 O      8, 12
    4    1 H      15-25
constraining bond 8 10 to    5.7600000 Å, actual value:    2.7438924 Å

          :  Hamiltonian                  GFN2-xTB          :
 * total energy  :   -26.0050426 Eh     change       -0.6650680E-10 Eh
 * total energy  :   -31.4943737 Eh     change       -0.5489331E+01 Eh
 * total energy  :   -36.0486018 Eh     change       -0.4554228E+01 Eh
 * total energy  :   -39.1502510 Eh     change       -0.3101649E+01 Eh
 * total energy  :   -40.9225833 Eh     change       -0.1772332E+01 Eh
 * total energy  :   -41.5773684 Eh     change       -0.6547852E+00 Eh
 * total energy  :   -41.6601182 Eh     change       -0.8274983E-01 Eh
 * total energy  :   -41.6706159 Eh     change       -0.1049769E-01 Eh
 * total energy  :   -41.6907562 Eh     change       -0.2014022E-01 Eh
 * total energy  :   -41.7051669 Eh     change       -0.1441078E-01 Eh
 * total energy  :   -42.1426677 Eh     change       -0.1295346E-02 Eh
 * total energy  :   -42.1438634 Eh     change       -0.1195671E-02 Eh
 * total energy  :   -42.1445563 Eh     change       -0.6928361E-03 Eh
 * total energy  :   -42.1453808 Eh     change       -0.8245427E-03 Eh
 * total energy  :   -42.1456428 Eh     change       -0.2620257E-03 Eh
 * total energy  :   -42.1458152 Eh     change       -0.1723353E-03 Eh
 * total energy  :   -42.1459423 Eh     change       -0.1271935E-03 Eh
 * total energy  :   -42.1460076 Eh     change       -0.6522663E-04 Eh
 * total energy  :   -42.1460393 Eh     change       -0.3175866E-04 Eh
   *** GEOMETRY OPTIMIZATION CONVERGED AFTER 52 ITERATIONS ***

 final structure:
================
25
 xtb: 6.6.1 (8d0f1dd)
C            3.91534222882688        0.45578846053790        0.16214785525940
N            2.77622995456707       -0.22972088281733        0.06228320808101
C            2.67083975614246       -1.57457400827705       -0.03074938234649
N            1.34944836138288       -1.94245418302556       -0.08911904045499
C            0.60277813068444       -0.82837625365118       -0.03799853888549
C            1.46675370449942        0.27505221741607        0.02555168751893
C            0.90735096778821        1.56823995607613       -0.04169894520680
O            1.71149689168333        2.64802731881838       -0.13186436172354
N           -0.45696966175906        1.65234982406848       -0.02498848850721
C           -3.84674628748307        1.22059956201548        0.09616542246820
C           -1.26401124485879        0.61737818598930       -0.00394097618433
O           -2.57738040243460        0.49013679525078        0.02875687138062
N           -0.74579584742666       -0.70212378226105       -0.04712431655618
C           -1.54630768055847       -1.91185938662818       -0.07130221591366
H            3.92894848315133        1.48105718905676        0.47392886125691
H            4.83239564400063       -0.09647486205621        0.15724352855250
H            2.60418298110295        2.39964007146062       -0.40479277567757
H            3.49247071117446       -2.25585809830196       -0.04243008332895
H           -3.69617345582767        2.29804224929797        0.06771115075123
H           -4.42033530278424        0.88750319474335       -0.76456199162419
H           -4.31983958415418        0.91675544886395        1.02846052329704
H           -1.28115245341358       -2.54417344272046        0.77752595989900
H           -1.37488676206020       -2.45337921480097       -1.00312725842885
H           -2.59821953696358       -1.65787603684810       -0.00227138810582
H            1.03001191882002       -2.89546178060688       -0.15263368762072

          :  Hamiltonian                  GFN2-xTB          :
         :: total energy             -42.146039333175 Eh    ::
         :: gradient norm              0.003085798494 Eh/a0 ::
         :: HOMO-LUMO gap              1.425362218199 eV    ::
         :: SCC energy               -42.647260080967 Eh    ::
         :: -> dispersion             -0.022156822063 Eh    ::
         :: repulsion energy           0.500687292273 Eh    ::

    * Orbital Energies and Occupations

         #    Occupation            Energy/Eh            Energy/eV
      -------------------------------------------------------------
         1        2.0000           -0.8847541             -24.0754
       ...           ...                  ...                  ...
        25        2.0000           -0.6632168             -18.0470
        26        2.0000           -0.6555947             -17.8396
        27        2.0000           -0.6505640             -17.7027
        28        2.0000           -0.6393144             -17.3966
        29        2.0000           -0.6314699             -17.1832
        30        2.0000           -0.6259664             -17.0334
        31        1.9999           -0.6059713             -16.4893
        32        1.9998           -0.5999533             -16.3256
        33        1.9998           -0.5935364             -16.1509
        34        1.9994           -0.5786359             -15.7455
        35        1.9973           -0.5550597             -15.1039
        36        1.9943           -0.5434391             -14.7877
        37        1.6659           -0.4761402             -12.9564 (HOMO)
        38        0.3086           -0.4237591             -11.5311 (LUMO)
        39        0.0298           -0.3843208             -10.4579
        40        0.0053           -0.3568339              -9.7099
        41        0.0000           -0.2799368              -7.6175
        42        0.0000           -0.2412685              -6.5653
        43                         -0.1656964              -4.5088
        44                         -0.1563922              -4.2556
        45                         -0.1399322              -3.8077
        46                         -0.1238894              -3.3712
        47                         -0.0517457              -1.4081
        48                         -0.0308913              -0.8406
       ...                                ...                  ...
        67                          0.4921217              13.3913
      -------------------------------------------------------------
                  HL-Gap            0.0523811 Eh            1.4254 eV

     #   Z          covCN         q      C6AA      α(0)
     1   6 C        2.789    -0.124    31.142     9.141
     2   7 N        2.798     0.100    19.521     6.562
     3   6 C        3.042    -0.004    28.088     8.693
     4   7 N        2.769    -0.071    22.610     7.062
     5   6 C        3.041     0.110    25.540     8.289
     6   6 C        3.084    -0.034    28.751     8.790
     7   6 C        2.781     0.230    23.174     7.885
     8   8 O        1.659    -0.323    19.421     5.949
     9   7 N        1.834    -0.251    27.377     7.754
    10   6 C        3.617     0.012    20.854     6.588
    11   6 C        2.727     0.296    21.978     7.675
    12   8 O        1.705    -0.224    17.714     5.683
    13   7 N        2.743    -0.051    22.226     7.002
    14   6 C        3.698    -0.074    22.088     6.722
    15   1 H        0.926     0.076     2.022     2.224
    16   1 H        0.926     0.079     1.984     2.203
    17   1 H        0.805     0.346     0.599     1.215
    18   1 H        0.927     0.101     1.778     2.085
    19   1 H        0.925     0.098     1.807     2.102
    20   1 H        0.925     0.108     1.717     2.049
    21   1 H        0.925     0.107     1.727     2.055
    22   1 H        0.924     0.083     1.944     2.180
    23   1 H        0.924     0.084     1.935     2.175
    24   1 H        0.925     0.113     1.669     2.020
    25   1 H        0.860     0.214     1.037     1.595

Wiberg/Mayer (AO) data.
largest (>0.10) Wiberg bond orders for each atom

     #   Z sym  total        # sym  WBO       # sym  WBO       # sym  WBO
 ---------------------------------------------------------------------------
     1   6 C    3.553 --     2 N    1.309    16 H    0.971    15 H    0.960
                             3 C    0.170
     2   7 N    3.728 --     1 C    1.309     3 C    1.247     6 C    1.073
     3   6 C    3.690 --     2 N    1.247     4 N    1.172    18 H    0.960
                             1 C    0.170
     4   7 N    3.551 --     5 C    1.254     3 C    1.172    25 H    0.925
     5   6 C    3.890 --     6 C    1.265     4 N    1.254    13 N    1.179
     6   6 C    3.892 --     5 C    1.265     7 C    1.255     2 N    1.073
     7   6 C    3.777 --     9 N    1.257     6 C    1.255     8 O    1.158
     8   8 O    2.177 --     7 C    1.158    17 H    0.842
     9   7 N    3.052 --    11 C    1.444     7 C    1.257    12 O    0.109
    10   6 C    3.864 --    19 H    0.979    20 H    0.968    21 H    0.968
                            12 O    0.901
    11   6 C    3.851 --     9 N    1.444    12 O    1.202    13 N    1.067
    12   8 O    2.336 --    11 C    1.202    10 C    0.901     9 N    0.109
    13   7 N    3.501 --     5 C    1.179    11 C    1.067    14 C    0.979
    14   6 C    3.935 --    13 N    0.979    22 H    0.969    24 H    0.969
                            23 H    0.968
    15   1 H    0.994 --     1 C    0.960
    16   1 H    0.992 --     1 C    0.971
    17   1 H    0.879 --     8 O    0.842
    18   1 H    0.989 --     3 C    0.960
    19   1 H    0.990 --    10 C    0.979
    20   1 H    0.985 --    10 C    0.968
    21   1 H    0.985 --    10 C    0.968
    22   1 H    0.988 --    14 C    0.969
    23   1 H    0.988 --    14 C    0.968
    24   1 H    0.987 --    14 C    0.969
    25   1 H    0.954 --     4 N    0.925
 ---------------------------------------------------------------------------

molecular dipole:
                 x           y           z       tot (Debye)
 q only:        0.229      -1.482      -0.163
   full:        0.492      -1.982      -0.168       5.209

           -------------------------------------------------
          | TOTAL ENERGY              -42.146039333175 Eh   |
          | GRADIENT NORM               0.003085798494 Eh/α |
          | HOMO-LUMO GAP               1.425362218199 eV   |
           -------------------------------------------------

 * finished run on 2024/06/05 at 19:57:58.717
