   * xtb version 6.6.1 (8d0f1dd) compiled by 'conda@1efc2f54142f' on 2023-08-01
          program call               : xtb struc.xyz --opt loose --input .xc1 --gfn2

   ID    Z sym.   atoms
    1    6 C      1, 3, 5-7, 10, 11, 14
    2    7 N      2, 4, 9, 13
    3    8 O      8, 12
    4    1 H      15-25
constraining bond 6 8 to    4.7600000 Å, actual value:    2.3687222 Å

          :  Hamiltonian                  GFN2-xTB          :
 * total energy  :   -32.0352366 Eh     change       -0.6633627E-10 Eh
 * total energy  :   -35.8571472 Eh     change       -0.3821911E+01 Eh
 * total energy  :   -38.7381602 Eh     change       -0.2881013E+01 Eh
 * total energy  :   -40.4848739 Eh     change       -0.1746714E+01 Eh
 * total energy  :   -41.2861816 Eh     change       -0.8013077E+00 Eh
 * total energy  :   -41.4456615 Eh     change       -0.1594799E+00 Eh
 * total energy  :   -41.4979308 Eh     change       -0.5226924E-01 Eh
 * total energy  :   -41.5524415 Eh     change       -0.5451069E-01 Eh
 * total energy  :   -41.5923886 Eh     change       -0.3994716E-01 Eh
 * total energy  :   -41.6171994 Eh     change       -0.2481074E-01 Eh
 * total energy  :   -42.1304787 Eh     change       -0.1693788E-02 Eh
 * total energy  :   -42.1311009 Eh     change       -0.6222166E-03 Eh
 * total energy  :   -42.1315651 Eh     change       -0.4642264E-03 Eh
 * total energy  :   -42.1318392 Eh     change       -0.2740832E-03 Eh
 * total energy  :   -42.1320553 Eh     change       -0.2161303E-03 Eh
 * total energy  :   -42.1321593 Eh     change       -0.1039791E-03 Eh
 * total energy  :   -42.1320687 Eh     change        0.9065252E-04 Eh
 * total energy  :   -42.1322373 Eh     change       -0.1686594E-03 Eh
 * total energy  :   -42.1322791 Eh     change       -0.4173616E-04 Eh
   *** GEOMETRY OPTIMIZATION CONVERGED AFTER 44 ITERATIONS ***

 final structure:
================
25
 xtb: 6.6.1 (8d0f1dd)
C            3.41454512819327        0.89357585126609        0.05950205603392
N            2.42165391861146       -0.14420209788938        0.03462964454138
C            2.62095288182288       -1.45183902373806        0.04336692805870
N            1.43580844155636       -2.10523846654604        0.01369049050471
C            0.45162893138236       -1.16191945586868       -0.01664088796393
C            1.07276161721480        0.07397225807868        0.00203510199437
C            0.29141427835834        1.31978378171290       -0.04345585597968
O           -2.12376486555863        3.55415840868299       -0.38834745407903
N           -1.03327183937250        1.13902458852672       -0.09336071188092
C           -2.18388328051857        2.22205837524439       -0.02538142492568
C           -1.68916675293606       -0.12410725396101       -0.07481341069613
O           -2.88286187130786       -0.24803222210383       -0.06500904334963
N           -0.88347845042023       -1.27930915065935       -0.05396281142175
C           -1.52577269477379       -2.58158654989315       -0.04515978341468
H            3.88064454514287        0.95238111086579        1.04392197656843
H            4.18674596527457        0.70090685762223       -0.68394388835808
H            2.91828554457664        1.83847231123061       -0.15578442792119
H            3.57796010930894       -1.93567562267715        0.06726749026072
H           -1.56139450715264        4.06570070414155        0.20906411718573
H           -2.93807067508358        1.79607196243865       -0.69115781798720
H           -2.51596690404810        2.10375170518732        1.01538189954880
H           -1.25064361057712       -3.13198472619606        0.85470156295241
H           -1.24627622413447       -3.14689807087251       -0.93433856232782
H           -2.60284221743315       -2.42079512713681       -0.04909779615219
H            1.32542404597434       -3.11003160585586        0.00806422670875

          :  Hamiltonian                  GFN2-xTB          :
         :: total energy             -42.132279070993 Eh    ::
         :: gradient norm              0.002465103313 Eh/a0 ::
         :: HOMO-LUMO gap              1.654653195670 eV    ::
         :: SCC energy               -42.626837732706 Eh    ::
         :: -> dispersion             -0.021826751641 Eh    ::
         :: repulsion energy           0.493883910896 Eh    ::

    * Orbital Energies and Occupations

         #    Occupation            Energy/Eh            Energy/eV
      -------------------------------------------------------------
         1        2.0000           -0.9099103             -24.7599
       ...           ...                  ...                  ...
        25        2.0000           -0.6636511             -18.0589
        26        2.0000           -0.6547969             -17.8179
        27        2.0000           -0.6420618             -17.4714
        28        2.0000           -0.6349456             -17.2777
        29        2.0000           -0.6292134             -17.1218
        30        2.0000           -0.6224433             -16.9375
        31        2.0000           -0.6206327             -16.8883
        32        2.0000           -0.6119187             -16.6512
        33        2.0000           -0.5878306             -15.9957
        34        2.0000           -0.5680528             -15.4575
        35        2.0000           -0.5562102             -15.1352
        36        1.9999           -0.5488861             -14.9360
        37        1.9577           -0.5000554             -13.6072 (HOMO)
        38        0.0419           -0.4392480             -11.9525 (LUMO)
        39        0.0006           -0.4048981             -11.0178
        40        0.0000           -0.3751622             -10.2087
        41                         -0.2890441              -7.8653
        42                         -0.2564588              -6.9786
        43                         -0.1952332              -5.3126
        44                         -0.1659125              -4.5147
        45                         -0.1475951              -4.0163
        46                         -0.0805525              -2.1919
        47                         -0.0550005              -1.4966
        48                         -0.0493558              -1.3430
       ...                                ...                  ...
        67                          0.5209168              14.1749
      -------------------------------------------------------------
                  HL-Gap            0.0608074 Eh            1.6547 eV

     #   Z          covCN         q      C6AA      α(0)
     1   6 C        3.693    -0.093    22.461     6.781
     2   7 N        2.836     0.085    19.772     6.604
     3   6 C        3.081     0.057    26.633     8.460
     4   7 N        2.795    -0.064    22.468     7.040
     5   6 C        3.055     0.117    25.376     8.261
     6   6 C        3.137     0.015    27.452     8.576
     7   6 C        1.902    -0.132    34.826     9.531
     8   8 O        1.657    -0.368    20.240     6.073
     9   7 N        2.721    -0.045    22.105     6.983
    10   6 C        3.606     0.124    19.047     6.306
    11   6 C        2.727     0.310    21.739     7.633
    12   8 O        0.859    -0.376    21.197     6.173
    13   7 N        2.740    -0.045    22.104     6.983
    14   6 C        3.698    -0.071    22.033     6.714
    15   1 H        0.924     0.109     1.703     2.041
    16   1 H        0.925     0.106     1.734     2.059
    17   1 H        0.925     0.129     1.544     1.943
    18   1 H        0.926     0.120     1.614     1.987
    19   1 H        0.805     0.320     0.664     1.280
    20   1 H        0.924     0.120     1.612     1.985
    21   1 H        0.923     0.071     2.078     2.255
    22   1 H        0.925     0.079     1.992     2.207
    23   1 H        0.925     0.080     1.975     2.198
    24   1 H        0.925     0.126     1.568     1.958
    25   1 H        0.860     0.225     0.988     1.557

Wiberg/Mayer (AO) data.
largest (>0.10) Wiberg bond orders for each atom

     #   Z sym  total        # sym  WBO       # sym  WBO       # sym  WBO
 ---------------------------------------------------------------------------
     1   6 C    3.922 --     2 N    0.987    17 H    0.967    16 H    0.964
                            15 H    0.956
     2   7 N    3.716 --     3 C    1.421     6 C    1.163     1 C    0.987
     3   6 C    3.901 --     2 N    1.421     4 N    1.278    18 H    0.953
     4   7 N    3.602 --     3 C    1.278     5 C    1.188    25 H    0.919
     5   6 C    3.951 --     6 C    1.339    13 N    1.223     4 N    1.188
     6   6 C    3.917 --     5 C    1.339     2 N    1.163     7 C    1.139
     7   6 C    2.823 --     9 N    1.451     6 C    1.139
     8   8 O    2.073 --    10 C    1.095    19 H    0.882
     9   7 N    3.639 --     7 C    1.451    11 C    1.059    10 C    0.863
                            12 O    0.111
    10   6 C    3.917 --     8 O    1.095    21 H    0.952    20 H    0.950
                             9 N    0.863
    11   6 C    3.952 --    12 O    1.718    13 N    1.066     9 N    1.059
    12   8 O    2.066 --    11 C    1.718    13 N    0.136     9 N    0.111
    13   7 N    3.590 --     5 C    1.223    11 C    1.066    14 C    0.973
                            12 O    0.136
    14   6 C    3.929 --    13 N    0.973    22 H    0.972    23 H    0.972
                            24 H    0.964
    15   1 H    0.987 --     1 C    0.956
    16   1 H    0.988 --     1 C    0.964
    17   1 H    0.983 --     1 C    0.967
    18   1 H    0.985 --     3 C    0.953
    19   1 H    0.897 --     8 O    0.882
    20   1 H    0.985 --    10 C    0.950
    21   1 H    0.993 --    10 C    0.952
    22   1 H    0.993 --    14 C    0.972
    23   1 H    0.993 --    14 C    0.972
    24   1 H    0.984 --    14 C    0.964
    25   1 H    0.949 --     4 N    0.919
 ---------------------------------------------------------------------------

molecular dipole:
                 x           y           z       tot (Debye)
 q only:        3.125      -1.504       0.429
   full:        3.411      -2.422       0.615      10.746

           -------------------------------------------------
          | TOTAL ENERGY              -42.132279070993 Eh   |
          | GRADIENT NORM               0.002465103313 Eh/α |
          | HOMO-LUMO GAP               1.654653195670 eV   |
           -------------------------------------------------

 * finished run on 2024/06/05 at 19:58:00.072
