   * xtb version 6.6.1 (8d0f1dd) compiled by 'conda@1efc2f54142f' on 2023-08-01
          program call               : xtb xtbopt.xyz --opt crude --input .xc2 --gfn2

   ID    Z sym.   atoms
    1    6 C      1, 3, 5-7, 10, 11, 14
    2    7 N      2, 4, 9, 13
    3    8 O      8, 12
    4    1 H      15-25
########################################################################
[WARNING] Please study the warnings concerning your input carefully
-1- readin_getIntValue: could not parse ''
########################################################################

          :  Hamiltonian                  GFN2-xTB          :
 * total energy  :   -42.1328898 Eh     change       -0.2842171E-13 Eh
 * total energy  :   -42.1442339 Eh     change       -0.1134410E-01 Eh
 * total energy  :   -42.1513430 Eh     change       -0.7109136E-02 Eh
 * total energy  :   -42.1539414 Eh     change       -0.2598376E-02 Eh
 * total energy  :   -42.1552104 Eh     change       -0.1269023E-02 Eh
 * total energy  :   -42.1561524 Eh     change       -0.9420482E-03 Eh
 * total energy  :   -42.1564969 Eh     change       -0.3444166E-03 Eh
   *** GEOMETRY OPTIMIZATION CONVERGED AFTER 7 ITERATIONS ***

 final structure:
================
25
 xtb: 6.6.1 (8d0f1dd)
C            3.26109979225063        1.02785631858023        0.05896476775092
N            2.30629491025987       -0.04720642299163        0.03125175170258
C            2.56633942153442       -1.34190615590037        0.01334444885597
N            1.41278022082559       -2.04836162034496       -0.01093721501968
C            0.38355078036770       -1.15454702091181       -0.01125135814654
C            0.94482404538873        0.11868396435875        0.02076651055336
C            0.16416304972361        1.31036887761000        0.04276877041128
O           -1.45672624940814        3.32123002963508       -0.45498805792088
N           -1.13840619352413        1.02923290864034        0.00728976281896
C           -2.07939434754080        2.18611194571521       -0.03234820330719
C           -1.78070926601163       -0.21827903900522       -0.01144986550135
O           -2.97382432565916       -0.32859975179347       -0.00985756187945
N           -0.94118683584358       -1.35108068216820       -0.02579887125282
C           -1.53628616082820       -2.67337477794883       -0.04680977612971
H            3.72766187556056        1.09510451662648        1.04248724200976
H            4.03580854408829        0.86670263639556       -0.68970720659820
H            2.73315554174781        1.95794641743723       -0.14859537497160
H            3.54628457960621       -1.77846937735739        0.01517216863369
H           -0.85673601887635        3.68268271003371        0.21689294293646
H           -2.86338237468413        1.94458928597120       -0.75544434896565
H           -2.53439610495752        2.26931965501763        0.96655717478770
H           -1.25378908468953       -3.23293597201421        0.84555266855157
H           -1.23146128323488       -3.21529817414346       -0.94262585208964
H           -2.61807001006274       -2.54491058072025       -0.05865215138639
H            1.34283700806736       -3.05662114912169       -0.03141074794316

          :  Hamiltonian                  GFN2-xTB          :
         :: total energy             -42.156496864568 Eh    ::
         :: gradient norm              0.007959609883 Eh/a0 ::
         :: HOMO-LUMO gap              1.725409251934 eV    ::
         :: SCC energy               -42.663995296039 Eh    ::
         :: -> dispersion             -0.022186130189 Eh    ::
         :: repulsion energy           0.507398097531 Eh    ::

    * Orbital Energies and Occupations

         #    Occupation            Energy/Eh            Energy/eV
      -------------------------------------------------------------
         1        2.0000           -0.9114703             -24.8024
       ...           ...                  ...                  ...
        25        2.0000           -0.6664449             -18.1349
        26        2.0000           -0.6557682             -17.8444
        27        2.0000           -0.6385793             -17.3766
        28        2.0000           -0.6348727             -17.2758
        29        2.0000           -0.6314430             -17.1824
        30        2.0000           -0.6242133             -16.9857
        31        2.0000           -0.6222404             -16.9320
        32        2.0000           -0.6126155             -16.6701
        33        2.0000           -0.5845519             -15.9065
        34        2.0000           -0.5690974             -15.4859
        35        1.9999           -0.5554738             -15.1152
        36        1.9998           -0.5479306             -14.9099
        37        1.9641           -0.5052417             -13.7483 (HOMO)
        38        0.0357           -0.4418341             -12.0229 (LUMO)
        39        0.0004           -0.4068031             -11.0697
        40        0.0000           -0.3724203             -10.1341
        41                         -0.2840965              -7.7307
        42                         -0.2016138              -5.4862
        43                         -0.1952284              -5.3124
        44                         -0.1397438              -3.8026
        45                         -0.1223744              -3.3300
        46                         -0.0762063              -2.0737
        47                         -0.0459322              -1.2499
        48                         -0.0440290              -1.1981
       ...                                ...                  ...
        67                          0.5372893              14.6204
      -------------------------------------------------------------
                  HL-Gap            0.0634076 Eh            1.7254 eV

     #   Z          covCN         q      C6AA      α(0)
     1   6 C        3.693    -0.093    22.472     6.783
     2   7 N        2.837     0.081    19.832     6.614
     3   6 C        3.069     0.059    26.607     8.458
     4   7 N        2.791    -0.063    22.450     7.037
     5   6 C        3.058     0.116    25.398     8.265
     6   6 C        3.143     0.020    27.322     8.553
     7   6 C        1.917    -0.137    34.955     9.548
     8   8 O        1.658    -0.383    20.519     6.115
     9   7 N        2.762    -0.031    21.839     6.941
    10   6 C        3.632     0.135    18.757     6.235
    11   6 C        2.726     0.311    21.718     7.629
    12   8 O        0.859    -0.371    21.112     6.160
    13   7 N        2.739    -0.045    22.120     6.985
    14   6 C        3.696    -0.070    22.020     6.713
    15   1 H        0.924     0.110     1.698     2.038
    16   1 H        0.925     0.106     1.729     2.056
    17   1 H        0.925     0.129     1.543     1.943
    18   1 H        0.926     0.121     1.606     1.982
    19   1 H        0.804     0.324     0.653     1.269
    20   1 H        0.924     0.105     1.744     2.065
    21   1 H        0.923     0.065     2.138     2.286
    22   1 H        0.924     0.080     1.977     2.199
    23   1 H        0.924     0.081     1.970     2.195
    24   1 H        0.925     0.125     1.577     1.964
    25   1 H        0.860     0.225     0.985     1.555

Wiberg/Mayer (AO) data.
largest (>0.10) Wiberg bond orders for each atom

     #   Z sym  total        # sym  WBO       # sym  WBO       # sym  WBO
 ---------------------------------------------------------------------------
     1   6 C    3.921 --     2 N    0.986    17 H    0.967    16 H    0.965
                            15 H    0.956
     2   7 N    3.717 --     3 C    1.429     6 C    1.152     1 C    0.986
     3   6 C    3.905 --     2 N    1.429     4 N    1.277    18 H    0.953
     4   7 N    3.604 --     3 C    1.277     5 C    1.191    25 H    0.919
     5   6 C    3.950 --     6 C    1.317    13 N    1.234     4 N    1.191
     6   6 C    3.919 --     5 C    1.317     7 C    1.182     2 N    1.152
     7   6 C    2.841 --     9 N    1.409     6 C    1.182
     8   8 O    2.038 --    10 C    1.073    19 H    0.875
     9   7 N    3.655 --     7 C    1.409    11 C    1.071    10 C    0.913
                            12 O    0.113
    10   6 C    3.930 --     8 O    1.073    20 H    0.949    21 H    0.947
                             9 N    0.913
    11   6 C    3.955 --    12 O    1.720     9 N    1.071    13 N    1.054
    12   8 O    2.068 --    11 C    1.720    13 N    0.138     9 N    0.113
    13   7 N    3.594 --     5 C    1.234    11 C    1.054    14 C    0.974
                            12 O    0.138
    14   6 C    3.930 --    13 N    0.974    23 H    0.971    22 H    0.971
                            24 H    0.965
    15   1 H    0.987 --     1 C    0.956
    16   1 H    0.988 --     1 C    0.965
    17   1 H    0.983 --     1 C    0.967
    18   1 H    0.984 --     3 C    0.953
    19   1 H    0.895 --     8 O    0.875
    20   1 H    0.987 --    10 C    0.949
    21   1 H    0.993 --    10 C    0.947
    22   1 H    0.993 --    14 C    0.971
    23   1 H    0.993 --    14 C    0.971
    24   1 H    0.984 --    14 C    0.965
    25   1 H    0.949 --     4 N    0.919
 ---------------------------------------------------------------------------

molecular dipole:
                 x           y           z       tot (Debye)
 q only:        3.123      -1.505       0.418
   full:        3.320      -2.496       0.613      10.672

           -------------------------------------------------
          | TOTAL ENERGY              -42.156496864568 Eh   |
          | GRADIENT NORM               0.007959609883 Eh/α |
          | HOMO-LUMO GAP               1.725409251934 eV   |
           -------------------------------------------------

 * finished run on 2024/06/05 at 19:58:00.386
