   * xtb version 6.6.1 (8d0f1dd) compiled by 'conda@1efc2f54142f' on 2023-08-01
          program call               : xtb struc.xyz --opt loose --input .xc1 --gfn2

   ID    Z sym.   atoms
    1    6 C      1, 3, 5-7, 10, 11, 14
    2    7 N      2, 4, 9, 13
    3    8 O      8, 12
    4    1 H      15-25
constraining bond 19 20 to    3.2800000 Å, actual value:    1.7855871 Å

          :  Hamiltonian                  GFN2-xTB          :
 * total energy  :   -26.2975592 Eh     change       -0.6650680E-10 Eh
 * total energy  :   -36.9791041 Eh     change       -0.1068154E+02 Eh
 * total energy  :   -41.1368716 Eh     change       -0.4157767E+01 Eh
 * total energy  :   -42.0383310 Eh     change       -0.9014594E+00 Eh
 * total energy  :   -42.0643339 Eh     change       -0.2600296E-01 Eh
 * total energy  :   -42.0642462 Eh     change        0.8773212E-04 Eh
 * total energy  :   -42.0652758 Eh     change       -0.1029632E-02 Eh
 * total energy  :   -42.0658137 Eh     change       -0.5378389E-03 Eh
 * total energy  :   -42.0673696 Eh     change       -0.1555980E-02 Eh
 * total energy  :   -42.0681027 Eh     change       -0.7331100E-03 Eh
 * total energy  :   -42.1880209 Eh     change       -0.3393440E-04 Eh
 * total energy  :   -42.1881349 Eh     change       -0.1139822E-03 Eh
 * total energy  :   -42.1882075 Eh     change       -0.7261705E-04 Eh
 * total energy  :   -42.1882886 Eh     change       -0.8103145E-04 Eh
 * total energy  :   -42.1882684 Eh     change        0.2016624E-04 Eh
 * total energy  :   -42.1883419 Eh     change       -0.7351573E-04 Eh
 * total energy  :   -42.1883565 Eh     change       -0.1455229E-04 Eh
 * total energy  :   -42.1883787 Eh     change       -0.2220254E-04 Eh
 * total energy  :   -42.1883882 Eh     change       -0.9565112E-05 Eh
   *** GEOMETRY OPTIMIZATION CONVERGED AFTER 55 ITERATIONS ***

 final structure:
================
25
 xtb: 6.6.1 (8d0f1dd)
C            3.10722352920535        1.21680855206642        0.08285085080916
N            2.17512513682013        0.12169604408816        0.06567576218284
C            2.49836910029935       -1.18601704989613        0.07051446672426
N            1.37033157494477       -1.93278922969772        0.03662817171194
C            0.30383775631243       -1.09152256596072        0.00931051606032
C            0.80006307475918        0.21784531317387        0.02887362491187
C           -0.08504750270552        1.28980463901652        0.01356458368113
O            0.31438440143913        2.57534925747753       -0.02294729116519
N           -1.43348924927747        1.00470901628175        0.01871144459490
C           -2.35216634100938        1.98330481534870        0.07706639490365
C           -1.94829063906029       -0.33611612136253       -0.08054795346351
O           -3.13042371345251       -0.52905191231846       -0.15839137905133
N           -1.02423966306444       -1.36413306573611       -0.06464805533419
C           -1.50268356356441       -2.73408491148426       -0.10096994092276
H            3.77679986416648        1.12898254311390        0.93880817398170
H            3.70446956638082        1.22277546460335       -0.83035938025255
H            2.55404511448965        2.14985108125244        0.15308181078392
H            3.49464052250203       -1.57353886729432        0.09343758054668
H           -0.42489024430102        3.12604173986658       -0.33184350481436
H           -3.37353764725619        1.71266766538281       -0.06352621101719
H           -2.09693100703301        2.97274885733316        0.39738478917274
H           -1.20456164719478       -3.26297215460756        0.80474777706908
H           -1.11420522621379       -3.24671096647513       -0.98108115148319
H           -2.58966763448473       -2.70626398271406       -0.15575261851581
H            1.34127595139827       -2.94114561985818        0.03058315678587

          :  Hamiltonian                  GFN2-xTB          :
         :: total energy             -42.188388245819 Eh    ::
         :: gradient norm              0.003919584345 Eh/a0 ::
         :: HOMO-LUMO gap              1.469167910112 eV    ::
         :: SCC energy               -42.710265727966 Eh    ::
         :: -> dispersion             -0.022956886100 Eh    ::
         :: repulsion energy           0.521754778612 Eh    ::

    * Orbital Energies and Occupations

         #    Occupation            Energy/Eh            Energy/eV
      -------------------------------------------------------------
         1        2.0000           -0.8909051             -24.2428
       ...           ...                  ...                  ...
        25        2.0000           -0.6672892             -18.1579
        26        2.0000           -0.6610845             -17.9890
        27        2.0000           -0.6583515             -17.9147
        28        2.0000           -0.6445476             -17.5390
        29        2.0000           -0.6260760             -17.0364
        30        2.0000           -0.6211934             -16.9035
        31        2.0000           -0.6170098             -16.7897
        32        1.9999           -0.6112610             -16.6333
        33        1.9999           -0.6051684             -16.4675
        34        1.9999           -0.6020211             -16.3818
        35        1.9991           -0.5715684             -15.5532
        36        1.9971           -0.5521196             -15.0239
        37        1.6655           -0.4741165             -12.9014 (HOMO)
        38        0.2826           -0.4201255             -11.4322 (LUMO)
        39        0.0448           -0.3888971             -10.5824
        40        0.0112           -0.3666768              -9.9778
        41        0.0001           -0.2824082              -7.6847
        42        0.0000           -0.1972770              -5.3682
        43        0.0000           -0.1826818              -4.9710
        44                         -0.1443405              -3.9277
        45                         -0.1238172              -3.3692
        46                         -0.1018922              -2.7726
        47                         -0.0631248              -1.7177
        48                         -0.0423516              -1.1524
       ...                                ...                  ...
        67                          0.5345950              14.5471
      -------------------------------------------------------------
                  HL-Gap            0.0539909 Eh            1.4692 eV

     #   Z          covCN         q      C6AA      α(0)
     1   6 C        3.690    -0.088    22.380     6.770
     2   7 N        2.822     0.050    20.368     6.703
     3   6 C        3.034     0.030    27.288     8.568
     4   7 N        2.779    -0.057    22.339     7.020
     5   6 C        3.045     0.083    26.099     8.379
     6   6 C        3.084     0.002    27.892     8.658
     7   6 C        2.788     0.150    24.736     8.147
     8   8 O        1.659    -0.366    20.200     6.067
     9   7 N        2.741    -0.012    21.485     6.884
    10   6 C        2.815    -0.086    30.153     8.997
    11   6 C        2.739     0.303    21.847     7.653
    12   8 O        0.859    -0.359    20.886     6.127
    13   7 N        2.736    -0.051    22.221     7.001
    14   6 C        3.700    -0.072    22.045     6.715
    15   1 H        0.924     0.098     1.807     2.102
    16   1 H        0.924     0.097     1.810     2.104
    17   1 H        0.925     0.119     1.620     1.990
    18   1 H        0.927     0.113     1.670     2.021
    19   1 H        0.804     0.342     0.608     1.225
    20   1 H        0.927     0.111     1.686     2.031
    21   1 H        0.926     0.081     1.972     2.196
    22   1 H        0.924     0.082     1.957     2.188
    23   1 H        0.925     0.082     1.954     2.186
    24   1 H        0.925     0.124     1.578     1.964
    25   1 H        0.860     0.223     0.997     1.564

Wiberg/Mayer (AO) data.
largest (>0.10) Wiberg bond orders for each atom

     #   Z sym  total        # sym  WBO       # sym  WBO       # sym  WBO
 ---------------------------------------------------------------------------
     1   6 C    3.929 --     2 N    0.990    17 H    0.968    15 H    0.966
                            16 H    0.963
     2   7 N    3.592 --     3 C    1.300     6 C    1.134     1 C    0.990
     3   6 C    3.721 --     2 N    1.300     4 N    1.261    18 H    0.957
     4   7 N    3.566 --     3 C    1.261     5 C    1.200    25 H    0.922
     5   6 C    3.867 --     6 C    1.266     4 N    1.200    13 N    1.160
     6   6 C    3.939 --     7 C    1.279     5 C    1.266     2 N    1.134
     7   6 C    3.751 --     6 C    1.279     9 N    1.133     8 O    1.096
                            10 C    0.131
     8   8 O    2.100 --     7 C    1.096    19 H    0.837
     9   7 N    3.635 --    10 C    1.302     7 C    1.133    11 C    0.983
    10   6 C    3.535 --     9 N    1.302    20 H    0.964    21 H    0.959
                             7 C    0.131
    11   6 C    3.908 --    12 O    1.700    13 N    1.117     9 N    0.983
    12   8 O    2.033 --    11 C    1.700    13 N    0.147
    13   7 N    3.542 --     5 C    1.160    11 C    1.117    14 C    0.972
                            12 O    0.147
    14   6 C    3.927 --    13 N    0.972    23 H    0.972    22 H    0.972
                            24 H    0.966
    15   1 H    0.985 --     1 C    0.966
    16   1 H    0.984 --     1 C    0.963
    17   1 H    0.986 --     1 C    0.968
    18   1 H    0.986 --     3 C    0.957
    19   1 H    0.881 --     8 O    0.837
    20   1 H    0.987 --    10 C    0.964
    21   1 H    0.992 --    10 C    0.959
    22   1 H    0.990 --    14 C    0.972
    23   1 H    0.990 --    14 C    0.972
    24   1 H    0.984 --    14 C    0.966
    25   1 H    0.950 --     4 N    0.922
 ---------------------------------------------------------------------------

molecular dipole:
                 x           y           z       tot (Debye)
 q only:        2.213      -0.792      -0.062
   full:        2.335      -0.949      -0.070       6.408

           -------------------------------------------------
          | TOTAL ENERGY              -42.188388245819 Eh   |
          | GRADIENT NORM               0.003919584345 Eh/α |
          | HOMO-LUMO GAP               1.469167910112 eV   |
           -------------------------------------------------

 * finished run on 2024/06/05 at 20:00:20.334
