   * xtb version 6.6.1 (8d0f1dd) compiled by 'conda@1efc2f54142f' on 2023-08-01
          program call               : xtb xtbopt.xyz --opt crude --input .xc2 --gfn2

   ID    Z sym.   atoms
    1    6 C      1, 3, 5-7, 10, 11, 14
    2    7 N      2, 4, 9, 13
    3    8 O      8, 12
    4    1 H      15-25
########################################################################
[WARNING] Please study the warnings concerning your input carefully
-1- readin_getIntValue: could not parse ''
########################################################################

          :  Hamiltonian                  GFN2-xTB          :
 * total energy  :   -42.1883937 Eh     change        0.1776357E-12 Eh
 * total energy  :   -42.1888184 Eh     change       -0.4246449E-03 Eh
   *** GEOMETRY OPTIMIZATION CONVERGED AFTER 2 ITERATIONS ***

 final structure:
================
25
 xtb: 6.6.1 (8d0f1dd)
C            3.10625850167599        1.21672715708377        0.08462644052071
N            2.17345466186545        0.12220992030118        0.06734388578524
C            2.49670397619207       -1.18541506673075        0.07287996968533
N            1.36859755352141       -1.93181011973766        0.03780121599621
C            0.30254277251706       -1.09001706767219        0.00856410639958
C            0.79828885745221        0.21924483204198        0.02790898452961
C           -0.08334568453368        1.29495966798804        0.00862482125500
O            0.34295542314345        2.57404053494345       -0.02491231619643
N           -1.43557664454122        1.00918812385306        0.01482508356293
C           -2.37084289779052        1.97333957808722        0.08198129020289
C           -1.94763819909549       -0.33338365681529       -0.08376263080334
O           -3.12975701732508       -0.52716980675822       -0.16019515164391
N           -1.02476431497730       -1.36212637138427       -0.06676385213884
C           -1.50345736028531       -2.73208335566930       -0.10296399530127
H            3.77638614725829        1.12770954662203        0.93987462247584
H            3.70285800143492        1.22320626128355       -0.82885211368200
H            2.55363339418010        2.14990573573452        0.15612083519530
H            3.49281631648649       -1.57323370054079        0.09762017957646
H           -0.36061571013133        3.14914719083682       -0.36916786444214
H           -3.39324225113248        1.67911847931516       -0.03425508376287
H           -2.13352499944768        2.96534963124786        0.40955877591655
H           -1.20560738732853       -3.26113624107134        0.80274653515200
H           -1.11477272963574       -3.24498628375319       -0.98285399113080
H           -2.59034247020244       -2.70437739953165       -0.15812059364298
H            1.33942357479944       -2.94016904807396        0.03254246439093

          :  Hamiltonian                  GFN2-xTB          :
         :: total energy             -42.188818365429 Eh    ::
         :: gradient norm              0.005414010795 Eh/a0 ::
         :: HOMO-LUMO gap              1.469910503929 eV    ::
         :: SCC energy               -42.709010109493 Eh    ::
         :: -> dispersion             -0.022952785726 Eh    ::
         :: repulsion energy           0.520074697520 Eh    ::

    * Orbital Energies and Occupations

         #    Occupation            Energy/Eh            Energy/eV
      -------------------------------------------------------------
         1        2.0000           -0.8904811             -24.2312
       ...           ...                  ...                  ...
        25        2.0000           -0.6664335             -18.1346
        26        2.0000           -0.6612933             -17.9947
        27        2.0000           -0.6580850             -17.9074
        28        2.0000           -0.6441001             -17.5269
        29        2.0000           -0.6256930             -17.0260
        30        2.0000           -0.6207456             -16.8913
        31        2.0000           -0.6165904             -16.7783
        32        1.9999           -0.6106974             -16.6179
        33        1.9999           -0.6046421             -16.4531
        34        1.9999           -0.6008249             -16.3493
        35        1.9991           -0.5712141             -15.5435
        36        1.9971           -0.5518189             -15.0158
        37        1.6657           -0.4738235             -12.8934 (HOMO)
        38        0.2824           -0.4198052             -11.4235 (LUMO)
        39        0.0448           -0.3885990             -10.5743
        40        0.0113           -0.3665205              -9.9735
        41        0.0001           -0.2826985              -7.6926
        42        0.0000           -0.1976525              -5.3784
        43        0.0000           -0.1823085              -4.9609
        44                         -0.1442285              -3.9247
        45                         -0.1257382              -3.4215
        46                         -0.1027803              -2.7968
        47                         -0.0625401              -1.7018
        48                         -0.0405722              -1.1040
       ...                                ...                  ...
        67                          0.5337737              14.5247
      -------------------------------------------------------------
                  HL-Gap            0.0540182 Eh            1.4699 eV

     #   Z          covCN         q      C6AA      α(0)
     1   6 C        3.690    -0.089    22.388     6.771
     2   7 N        2.823     0.050    20.366     6.703
     3   6 C        3.033     0.030    27.290     8.569
     4   7 N        2.778    -0.057    22.342     7.020
     5   6 C        3.046     0.083    26.101     8.379
     6   6 C        3.083     0.002    27.889     8.657
     7   6 C        2.783     0.149    24.755     8.150
     8   8 O        1.658    -0.365    20.187     6.065
     9   7 N        2.741    -0.012    21.489     6.885
    10   6 C        2.813    -0.084    30.087     8.987
    11   6 C        2.742     0.304    21.846     7.653
    12   8 O        0.859    -0.360    20.894     6.128
    13   7 N        2.736    -0.050    22.216     7.000
    14   6 C        3.700    -0.072    22.046     6.715
    15   1 H        0.925     0.097     1.808     2.103
    16   1 H        0.924     0.097     1.813     2.106
    17   1 H        0.925     0.120     1.616     1.988
    18   1 H        0.927     0.113     1.671     2.022
    19   1 H        0.804     0.340     0.612     1.229
    20   1 H        0.927     0.112     1.680     2.027
    21   1 H        0.926     0.080     1.976     2.198
    22   1 H        0.924     0.082     1.957     2.188
    23   1 H        0.925     0.082     1.954     2.186
    24   1 H        0.925     0.124     1.578     1.965
    25   1 H        0.860     0.223     0.998     1.565

Wiberg/Mayer (AO) data.
largest (>0.10) Wiberg bond orders for each atom

     #   Z sym  total        # sym  WBO       # sym  WBO       # sym  WBO
 ---------------------------------------------------------------------------
     1   6 C    3.929 --     2 N    0.990    17 H    0.967    15 H    0.966
                            16 H    0.963
     2   7 N    3.593 --     3 C    1.300     6 C    1.134     1 C    0.990
     3   6 C    3.722 --     2 N    1.300     4 N    1.261    18 H    0.957
     4   7 N    3.566 --     3 C    1.261     5 C    1.200    25 H    0.922
     5   6 C    3.867 --     6 C    1.266     4 N    1.200    13 N    1.159
     6   6 C    3.940 --     7 C    1.279     5 C    1.266     2 N    1.134
     7   6 C    3.747 --     6 C    1.279     9 N    1.130     8 O    1.093
                            10 C    0.133
     8   8 O    2.098 --     7 C    1.093    19 H    0.844
     9   7 N    3.634 --    10 C    1.305     7 C    1.130    11 C    0.983
    10   6 C    3.536 --     9 N    1.305    21 H    0.963    20 H    0.963
                             7 C    0.133
    11   6 C    3.908 --    12 O    1.700    13 N    1.117     9 N    0.983
    12   8 O    2.034 --    11 C    1.700    13 N    0.146
    13   7 N    3.542 --     5 C    1.159    11 C    1.117    14 C    0.972
                            12 O    0.146
    14   6 C    3.927 --    13 N    0.972    23 H    0.972    22 H    0.972
                            24 H    0.966
    15   1 H    0.985 --     1 C    0.966
    16   1 H    0.984 --     1 C    0.963
    17   1 H    0.986 --     1 C    0.967
    18   1 H    0.986 --     3 C    0.957
    19   1 H    0.882 --     8 O    0.844
    20   1 H    0.987 --    10 C    0.963
    21   1 H    0.992 --    10 C    0.963
    22   1 H    0.990 --    14 C    0.972
    23   1 H    0.990 --    14 C    0.972
    24   1 H    0.984 --    14 C    0.966
    25   1 H    0.950 --     4 N    0.922
 ---------------------------------------------------------------------------

molecular dipole:
                 x           y           z       tot (Debye)
 q only:        2.211      -0.775      -0.076
   full:        2.331      -0.923      -0.089       6.377

           -------------------------------------------------
          | TOTAL ENERGY              -42.188818365429 Eh   |
          | GRADIENT NORM               0.005414010795 Eh/α |
          | HOMO-LUMO GAP               1.469910503929 eV   |
           -------------------------------------------------

 * finished run on 2024/06/05 at 20:00:20.492
