   * xtb version 6.6.1 (8d0f1dd) compiled by 'conda@1efc2f54142f' on 2023-08-01
          program call               : xtb struc.xyz --opt loose --input .xc1 --gfn2

   ID    Z sym.   atoms
    1    7 N      1, 17
    2    6 C      2-6, 8, 9, 11-16, 18-23, 25, 26, 28-33
    3    8 O      7, 10, 24, 27
    4    1 H      34-72
constraining bond 7 37 to    2.6333300 Å, actual value:    2.0783804 Å

          :  Hamiltonian                  GFN2-xTB          :
 * total energy  :   -99.4591198 Eh     change       -0.4035485E-08 Eh
 * total energy  :   -99.5622069 Eh     change       -0.1030871E+00 Eh
 * total energy  :   -99.7187642 Eh     change       -0.1565574E+00 Eh
 * total energy  :   -97.2021839 Eh     change        0.2516580E+01 Eh
 * total energy  :   -99.7874039 Eh     change       -0.2585220E+01 Eh
 * total energy  :   -99.8028626 Eh     change       -0.1545870E-01 Eh
 * total energy  :   -99.8087323 Eh     change       -0.5869706E-02 Eh
 * total energy  :   -99.8131761 Eh     change       -0.4443792E-02 Eh
 * total energy  :   -99.8173150 Eh     change       -0.4138897E-02 Eh
 * total energy  :   -99.8204245 Eh     change       -0.3109445E-02 Eh
 * total energy  :   -99.8419165 Eh     change       -0.5559732E-04 Eh
 * total energy  :   -99.8420262 Eh     change       -0.1097072E-03 Eh
 * total energy  :   -99.8420789 Eh     change       -0.5269050E-04 Eh
 * total energy  :   -99.8421335 Eh     change       -0.5459215E-04 Eh
 * total energy  :   -99.8421816 Eh     change       -0.4807156E-04 Eh
 * total energy  :   -99.8422268 Eh     change       -0.4516685E-04 Eh
 * total energy  :   -99.8422916 Eh     change       -0.6485016E-04 Eh
 * total energy  :   -99.8423603 Eh     change       -0.6872003E-04 Eh
 * total energy  :   -99.8424084 Eh     change       -0.4808666E-04 Eh
   *** GEOMETRY OPTIMIZATION CONVERGED AFTER 39 ITERATIONS ***

 final structure:
================
72
 xtb: 6.6.1 (8d0f1dd)
N           -1.99983298474411        2.80276983886366        2.24335390705554
C           -1.88289871225696        2.10231330912273        1.21313289247240
C           -2.96187632967631        1.93228579633999        0.17714528492344
C           -3.45666392573295        0.49663124952263        0.18364208043864
C           -4.31965620767663        0.04746469493037       -0.81345045143513
C           -4.84245123695307       -1.23205523916287       -0.76018799092515
O           -5.77322427942899       -1.67104517451575       -1.75346274629642
C           -7.19485196504970       -1.23716292725386       -1.45144731299597
C           -4.53427616512271       -2.12599670854028        0.27605533974622
O           -5.12332548990049       -3.33679249750022        0.21559431136512
C           -4.90864332607403       -4.25389546553311        1.26935138106259
C           -3.65490209077005       -1.67675226164952        1.25807066846010
C           -3.13856993133945       -0.38997006428771        1.20862327393182
C           -2.30756808724372        2.27064347699475       -1.18724658295078
C           -1.32677901866462        1.20714301182854       -1.71398942340820
C           -0.03040661494829        1.18794748032934       -0.99610860889310
N            0.62412753820345        0.08667842522168       -0.60889196971144
C            2.00676701121397        0.16502510199818       -0.20329858723189
C            2.96206662781640       -0.22450772447914       -1.34823076368063
C            4.38834516164698       -0.05778837379084       -0.90619425803567
C            5.04671299912015        1.14668263685521       -1.08312636273632
C            6.35514768723236        1.30932527563619       -0.65331448067492
C            7.02855351859256        0.26958442286280       -0.03069292892984
O            8.29832590436906        0.31472244128398        0.42147746131055
C            9.05135453458542        1.48901197053976        0.22482162636660
C            6.35812076897089       -0.96796543582872        0.16303155902199
O            7.08587995595345       -1.92651229884583        0.77658977341569
C            6.51235883877345       -3.19432328467421        0.98432812727927
C            5.05185238635262       -1.10805952464529       -0.27516728211935
C            0.04416692460226       -1.22814220271960       -0.73026105269412
C           -4.19863613068728        2.85334075807206        0.41064083421404
C           -4.93200870356977        2.49559957597246        1.70170703418706
C           -3.84880557357003        4.33871130988376        0.41730539464772
H           -4.62161313081075        0.69364582861493       -1.62371933844396
H           -7.44995894914992       -1.56843521000764       -0.45562483991255
H           -7.80861620115709       -1.66815531104391       -2.22969051213130
H           -5.60401640212877       -1.35901723666237       -2.44971209327376
H           -5.24840451238364       -3.84553804518272        2.22445625457138
H           -5.50361283245501       -5.12885767159794        1.01618310448164
H           -3.85539991758049       -4.53838247510888        1.34091568235738
H           -3.38602769630083       -2.31631598872350        2.08279973022843
H           -2.49672398905371       -0.06478786116506        2.01336857405624
H           -3.09540757703148        2.40682179199271       -1.92842208552423
H           -1.77871621584149        3.21940369891307       -1.09327128235036
H           -1.80295098935915        0.22764785201460       -1.70326695410746
H           -1.12095094463373        1.46339618270977       -2.76285308590222
H           -0.95506112517303        1.57145054258394        0.93021979406512
H            0.50730409072682        2.11888864000551       -0.90839657782382
H            2.16968497063459       -0.50062341129516        0.64872783035714
H            2.23194601026146        1.18539582994065        0.11306373135679
H            2.75932886251425        0.41910225059144       -2.20606398101594
H            2.77732003099363       -1.25919518855449       -1.64033741355322
H            4.54721067016418        1.96940900781815       -1.57183505715565
H            6.84448948997519        2.25601497105951       -0.81326800836283
H            8.61354584135560        2.34022791219929        0.75541846376810
H            9.14618291426166        1.73024972808519       -0.83822141764939
H           10.03624247787421        1.27641785050939        0.63591492181458
H            7.28436383508093       -3.78846140241997        1.46930987661194
H            5.63668234900961       -3.13702791054527        1.63935247075056
H            6.23216279952477       -3.66866660757329        0.03845854332476
H            4.53689056022531       -2.04695114556875       -0.14302985733727
H           -0.04067291637667       -1.53348287361086       -1.77678125218561
H           -0.94885837195634       -1.24909897106482       -0.27509851775339
H            0.67589231604539       -1.94489152183899       -0.21107406361513
H           -4.88350984929927        2.67128694233225       -0.42566238051142
H           -4.28865405303286        2.67756158034180        2.55594679349811
H           -5.24300735135369        1.45364116147119        1.70627739265476
H           -5.81959619879228        3.11506059964842        1.79663511451187
H           -3.15563330255215        4.55815258092619        1.22277669020995
H           -3.41726840812778        4.66029879019249       -0.52666581592820
H           -4.75568627556031        4.91480713754332        0.58108100219862
H           -1.19078749557659        2.86823588212850        2.85355325914481

          :  Hamiltonian                  GFN2-xTB          :
         :: total energy             -99.842408423098 Eh    ::
         :: gradient norm              0.003919784004 Eh/a0 ::
         :: HOMO-LUMO gap              0.986177813835 eV    ::
         :: SCC energy              -100.669500308192 Eh    ::
         :: -> dispersion             -0.075147926655 Eh    ::
         :: repulsion energy           1.438236430106 Eh    ::

    * Orbital Energies and Occupations

         #    Occupation            Energy/Eh            Energy/eV
      -------------------------------------------------------------
         1        2.0000           -0.8810127             -23.9736
       ...           ...                  ...                  ...
        78        1.9993           -0.5256180             -14.3028
        79        1.9992           -0.5237446             -14.2518
        80        1.9991           -0.5223559             -14.2140
        81        1.9989           -0.5186697             -14.1137
        82        1.9985           -0.5148888             -14.0108
        83        1.9980           -0.5096190             -13.8674
        84        1.9980           -0.5095137             -13.8646
        85        1.9978           -0.5081365             -13.8271
        86        1.9924           -0.4887222             -13.2988
        87        1.9846           -0.4774184             -12.9912
        88        1.9659           -0.4646359             -12.6434
        89        1.8889           -0.4453115             -12.1175
        90        1.5419           -0.4196607             -11.4195 (HOMO)
        91        0.5089           -0.3834193             -10.4334 (LUMO)
        92        0.0699           -0.3479052              -9.4670
        93        0.0283           -0.3332269              -9.0676
        94        0.0271           -0.3325642              -9.0495
        95        0.0038           -0.3012085              -8.1963
        96        0.0032           -0.2985542              -8.1241
        97        0.0000           -0.2192896              -5.9672
        98        0.0000           -0.1759039              -4.7866
        99        0.0000           -0.1653547              -4.4995
       100                         -0.1255549              -3.4165
       101                         -0.0856916              -2.3318
       ...                                ...                  ...
       171                          0.5887416              16.0205
      -------------------------------------------------------------
                  HL-Gap            0.0362414 Eh            0.9862 eV

     #   Z          covCN         q      C6AA      α(0)
     1   7 N        1.774    -0.279    28.059     7.844
     2   6 C        2.826     0.096    25.857     8.332
     3   6 C        3.907     0.006    20.424     6.424
     4   6 C        2.976     0.008    27.831     8.653
     5   6 C        2.920    -0.062    29.538     8.913
     6   6 C        2.854     0.074    26.348     8.413
     7   8 O        2.487    -0.128    16.202     5.436
     8   6 C        2.689    -0.145    31.688     9.213
     9   6 C        2.860     0.138    24.986     8.193
    10   8 O        1.705    -0.244    18.047     5.736
    11   6 C        3.645     0.025    20.484     6.505
    12   6 C        2.918    -0.073    29.811     8.953
    13   6 C        2.923    -0.044    29.085     8.844
    14   6 C        3.812    -0.066    21.757     6.639
    15   6 C        3.801    -0.066    21.758     6.641
    16   6 C        2.841    -0.008    28.212     8.705
    17   7 N        2.729    -0.006    21.368     6.865
    18   6 C        3.755    -0.014    20.882     6.516
    19   6 C        3.808    -0.070    21.826     6.650
    20   6 C        2.969    -0.003    28.094     8.694
    21   6 C        2.922    -0.051    29.255     8.870
    22   6 C        2.914    -0.069    29.716     8.939
    23   6 C        2.865     0.131    25.130     8.217
    24   8 O        1.706    -0.229    17.798     5.696
    25   6 C        3.646     0.027    20.451     6.499
    26   6 C        2.863     0.131    25.140     8.219
    27   8 O        1.706    -0.232    17.839     5.702
    28   6 C        3.645     0.030    20.411     6.493
    29   6 C        2.920    -0.081    30.019     8.985
    30   6 C        3.699    -0.063    21.889     6.691
    31   6 C        3.853    -0.008    20.687     6.469
    32   6 C        3.756    -0.120    22.853     6.816
    33   6 C        3.755    -0.119    22.833     6.813
    34   1 H        0.926     0.060     2.201     2.320
    35   1 H        0.926     0.042     2.420     2.433
    36   1 H        0.926     0.037     2.487     2.466
    37   1 H        0.810     0.343     0.603     1.219
    38   1 H        0.924     0.057     2.229     2.335
    39   1 H        0.925     0.082     1.959     2.189
    40   1 H        0.924     0.051     2.313     2.378
    41   1 H        0.926     0.062     2.178     2.308
    42   1 H        0.926     0.053     2.277     2.360
    43   1 H        0.924     0.054     2.268     2.355
    44   1 H        0.924     0.056     2.246     2.343
    45   1 H        0.925     0.053     2.285     2.364
    46   1 H        0.923     0.071     2.078     2.254
    47   1 H        0.922     0.004     2.991     2.705
    48   1 H        0.926     0.062     2.173     2.305
    49   1 H        0.924     0.062     2.171     2.304
    50   1 H        0.924     0.066     2.132     2.284
    51   1 H        0.924     0.052     2.298     2.371
    52   1 H        0.924     0.051     2.304     2.374
    53   1 H        0.926     0.042     2.424     2.435
    54   1 H        0.926     0.055     2.258     2.350
    55   1 H        0.924     0.051     2.305     2.374
    56   1 H        0.924     0.052     2.290     2.366
    57   1 H        0.925     0.079     1.989     2.206
    58   1 H        0.925     0.078     1.995     2.209
    59   1 H        0.924     0.045     2.382     2.414
    60   1 H        0.924     0.049     2.335     2.389
    61   1 H        0.926     0.043     2.411     2.428
    62   1 H        0.924     0.067     2.114     2.274
    63   1 H        0.924     0.068     2.108     2.271
    64   1 H        0.925     0.076     2.023     2.224
    65   1 H        0.924     0.034     2.530     2.487
    66   1 H        0.925     0.069     2.101     2.267
    67   1 H        0.925     0.031     2.578     2.511
    68   1 H        0.925     0.051     2.305     2.374
    69   1 H        0.925     0.062     2.170     2.304
    70   1 H        0.925     0.034     2.535     2.490
    71   1 H        0.925     0.053     2.280     2.361
    72   1 H        0.860     0.153     1.381     1.841

Wiberg/Mayer (AO) data.
largest (>0.10) Wiberg bond orders for each atom

     #   Z sym  total        # sym  WBO       # sym  WBO       # sym  WBO
 ---------------------------------------------------------------------------
     1   7 N    3.025 --     2 C    1.948    72 H    0.945
     2   6 C    3.920 --     1 N    1.948     3 C    0.993    47 H    0.908
     3   6 C    3.981 --     2 C    0.993     4 C    0.975    14 C    0.959
                            31 C    0.942
     4   6 C    3.963 --    13 C    1.397     5 C    1.382     3 C    0.975
     5   6 C    3.943 --     6 C    1.413     4 C    1.382    34 H    0.960
     6   6 C    3.817 --     5 C    1.413     9 C    1.302     7 O    0.892
     7   8 O    2.568 --     6 C    0.892    37 H    0.866     8 C    0.751
     8   6 C    2.735 --    35 H    0.979    36 H    0.971     7 O    0.751
     9   6 C    3.923 --    12 C    1.352     6 C    1.302    10 O    1.100
    10   8 O    2.263 --     9 C    1.100    11 C    0.970
    11   6 C    3.929 --    39 H    0.977    40 H    0.976    38 H    0.976
                            10 O    0.970
    12   6 C    3.950 --    13 C    1.429     9 C    1.352    41 H    0.964
    13   6 C    3.949 --    12 C    1.429     4 C    1.397    42 H    0.962
    14   6 C    3.973 --    15 C    0.984    44 H    0.972    43 H    0.970
                             3 C    0.959
    15   6 C    3.990 --    16 C    1.055    14 C    0.984    45 H    0.964
                            46 H    0.933
    16   6 C    3.513 --    17 N    1.350    15 C    1.055    48 H    0.960
    17   7 N    3.424 --    16 C    1.350    30 C    1.002    18 C    0.990
    18   6 C    3.957 --    17 N    0.990    50 H    0.968    19 C    0.966
                            49 H    0.965
    19   6 C    3.975 --    20 C    1.008    51 H    0.973    52 H    0.972
                            18 C    0.966
    20   6 C    3.953 --    21 C    1.417    29 C    1.376    19 C    1.008
    21   6 C    3.959 --    20 C    1.417    22 C    1.412    53 H    0.969
    22   6 C    3.965 --    21 C    1.412    23 C    1.390    54 H    0.964
    23   6 C    3.905 --    22 C    1.390    26 C    1.228    24 O    1.101
    24   8 O    2.254 --    23 C    1.101    25 C    0.978
    25   6 C    3.932 --    24 O    0.978    57 H    0.977    56 H    0.974
                            55 H    0.974
    26   6 C    3.908 --    29 C    1.402    23 C    1.228    27 O    1.094
    27   8 O    2.253 --    26 C    1.094    28 C    0.981
    28   6 C    3.936 --    27 O    0.981    58 H    0.977    59 H    0.974
                            60 H    0.974
    29   6 C    3.964 --    26 C    1.402    20 C    1.376    61 H    0.963
    30   6 C    3.965 --    17 N    1.002    64 H    0.978    62 H    0.968
                            63 H    0.967
    31   6 C    3.979 --    33 C    1.009    32 C    1.009    65 H    0.963
                             3 C    0.942
    32   6 C    3.986 --    31 C    1.009    67 H    0.983    68 H    0.983
                            66 H    0.977
    33   6 C    3.987 --    31 C    1.009    70 H    0.984    71 H    0.981
                            69 H    0.978
    34   1 H    0.996 --     5 C    0.960
    35   1 H    0.984 --     8 C    0.979
    36   1 H    0.985 --     8 C    0.971
    37   1 H    0.881 --     7 O    0.866
    38   1 H    0.996 --    11 C    0.976
    39   1 H    0.993 --    11 C    0.977
    40   1 H    0.997 --    11 C    0.976
    41   1 H    0.995 --    12 C    0.964
    42   1 H    0.997 --    13 C    0.962
    43   1 H    0.996 --    14 C    0.970
    44   1 H    0.996 --    14 C    0.972
    45   1 H    0.996 --    15 C    0.964
    46   1 H    0.968 --    15 C    0.933
    47   1 H    0.992 --     2 C    0.908
    48   1 H    0.996 --    16 C    0.960
    49   1 H    0.992 --    18 C    0.965
    50   1 H    0.994 --    18 C    0.968
    51   1 H    0.996 --    19 C    0.973
    52   1 H    0.996 --    19 C    0.972
    53   1 H    0.998 --    21 C    0.969
    54   1 H    0.995 --    22 C    0.964
    55   1 H    0.993 --    25 C    0.974
    56   1 H    0.993 --    25 C    0.974
    57   1 H    0.993 --    25 C    0.977
    58   1 H    0.993 --    28 C    0.977
    59   1 H    0.995 --    28 C    0.974
    60   1 H    0.995 --    28 C    0.974
    61   1 H    0.997 --    29 C    0.963
    62   1 H    0.984 --    30 C    0.968
    63   1 H    0.989 --    30 C    0.967
    64   1 H    0.994 --    30 C    0.978
    65   1 H    0.996 --    31 C    0.963
    66   1 H    0.993 --    32 C    0.977
    67   1 H    0.998 --    32 C    0.983
    68   1 H    0.996 --    32 C    0.983
    69   1 H    0.995 --    33 C    0.978
    70   1 H    0.998 --    33 C    0.984
    71   1 H    0.995 --    33 C    0.981
    72   1 H    0.973 --     1 N    0.945
 ---------------------------------------------------------------------------

molecular dipole:
                 x           y           z       tot (Debye)
 q only:       -0.904      -0.823      -1.135
   full:       -0.559      -1.318      -1.512       5.293

           -------------------------------------------------
          | TOTAL ENERGY              -99.842408423098 Eh   |
          | GRADIENT NORM               0.003919784004 Eh/α |
          | HOMO-LUMO GAP               0.986177813835 eV   |
           -------------------------------------------------

 * finished run on 2024/04/06 at 11:16:11.143
