   * xtb version 6.6.1 (8d0f1dd) compiled by 'conda@1efc2f54142f' on 2023-08-01
          program call               : xtb xtbopt.xyz --opt crude --input .xc2 --gfn2

   ID    Z sym.   atoms
    1    7 N      1, 17
    2    6 C      2-6, 8, 9, 11-16, 18-23, 25, 26, 28-33
    3    8 O      7, 10, 24, 27
    4    1 H      34-72
########################################################################
[WARNING] Please study the warnings concerning your input carefully
-1- readin_getIntValue: could not parse ''
########################################################################

          :  Hamiltonian                  GFN2-xTB          :
 * total energy  :   -99.2301063 Eh     change       -0.4561684E-11 Eh
 * total energy  :   -99.2776201 Eh     change       -0.4751381E-01 Eh
 * total energy  :   -99.2779852 Eh     change       -0.3651107E-03 Eh
 * total energy  :   -99.2781535 Eh     change       -0.1682240E-03 Eh
   *** GEOMETRY OPTIMIZATION CONVERGED AFTER 4 ITERATIONS ***

 final structure:
================
72
 xtb: 6.6.1 (8d0f1dd)
N           -1.99913335507559        2.80024246769204        2.24197868754392
C           -1.88408535413157        2.09977891699566        1.21160315635152
C           -2.96580875084953        1.93056356893805        0.17717196244912
C           -3.46420432353011        0.49565983929336        0.18684641673531
C           -4.33193452020233        0.04632401671075       -0.80692227195816
C           -4.85099383322373       -1.23308325598366       -0.75235796204388
O           -5.78162768467181       -1.69174335621931       -1.73293093313751
C           -7.19132467853300       -1.24356788524469       -1.43882142833466
C           -4.53701086887463       -2.12657761486623        0.28290990338819
O           -5.12276687110539       -3.33989680106403        0.22350216474151
C           -4.90367845650639       -4.25548500976002        1.27635634202659
C           -3.65573643963450       -1.67678697974844        1.26301800257011
C           -3.14128081063094       -0.38939453953159        1.21036976746166
C           -2.31070724113676        2.26664598156569       -1.18723778747407
C           -1.32900754301712        1.20358472808753       -1.71212710225840
C           -0.03206139896068        1.18566592385909       -0.99533725953649
N            0.62349065075069        0.08491195711523       -0.60886361339595
C            2.00609957939973        0.16474816864530       -0.20369270190243
C            2.96226254404607       -0.22441455391291       -1.34825559002593
C            4.38854747303845       -0.05746168334108       -0.90607288843526
C            5.04723600642635        1.14669170052338       -1.08335765538714
C            6.35601015402417        1.30937605907767       -0.65426102900911
C            7.02955893698004        0.26919291289228       -0.03253242618913
O            8.29991634538034        0.31367075079588        0.41854318684556
C            9.05174819659569        1.48929548342484        0.22688555298936
C            6.35893885377034       -0.96787953391836        0.16162468631452
O            7.08709287551844       -1.92655450322166        0.77484874719511
C            6.51393811173262       -3.19414999085876        0.98299007872105
C            5.05218801360007       -1.10781646361879       -0.27507268177783
C            0.04247214472440       -1.22920249217898       -0.72640513643074
C           -4.19986957447895        2.85519705370464        0.41154136182853
C           -4.93258248848063        2.49953188496218        1.70350897564688
C           -3.84562042815320        4.33962302548656        0.41655873417105
H           -4.63384454111819        0.69564666643452       -1.61411668661272
H           -7.45117201008851       -1.58246562284205       -0.44538602943939
H           -7.80919260871491       -1.66462788625430       -2.22165283505309
H           -5.57426421798831       -1.28943750654781       -2.59523757058233
H           -5.23925001415356       -3.84856515944023        2.23372535634821
H           -5.49888623757023       -5.13144260673750        1.02694032806034
H           -3.85000346842156       -4.53975952500406        1.34412142290342
H           -3.38338809487609       -2.31799955456045        2.08478699780280
H           -2.49438682729714       -0.06479667002560        2.01015938056086
H           -3.09689406774749        2.40291676769896       -1.92980001310871
H           -1.78220381415668        3.21553884062973       -1.09350642482297
H           -1.80403369589984        0.22374656106498       -1.69932643396621
H           -1.12327492783299        1.45894210911740       -2.76068407672662
H           -0.95752408908787        1.56849818502478        0.92555679622443
H            0.50527553902071        2.11708962230687       -0.91060731804114
H            2.17016743271831       -0.50003585301924        0.64879587779264
H            2.23027216727431        1.18547100414140        0.11198590751430
H            2.75966802902454        0.41918511979000       -2.20609532907607
H            2.77795406397938       -1.25909606390498       -1.64060594189353
H            4.54779962966896        1.96961389555917       -1.57196359194165
H            6.84523560689320        2.25605228529786       -0.81433812720925
H            8.61124609738200        2.33882520626991        0.75801238361136
H            9.14985895409453        1.73326837153532       -0.83530753949511
H           10.03571555690577        1.27711463593168        0.64060225526466
H            7.28622011748778       -3.78797512049864        1.46808524868177
H            5.63828845075220       -3.13711778610046        1.63811890356595
H            6.23363063223718       -3.66908992000117        0.03733474984689
H            4.53684973889188       -2.04631298675071       -0.14186699496708
H           -0.04488263094514       -1.53713308112390       -1.77178542479347
H           -0.94957565407434       -1.24840236969151       -0.26923496626420
H            0.67452763932464       -1.94576286499341       -0.20747090374004
H           -4.88641898831112        2.67474412136261       -0.42384647199061
H           -4.28778344104688        2.67895166282228        2.55718087006166
H           -5.24692908136394        1.45870770169234        1.70802581832603
H           -5.81819891813702        3.12157826304351        1.79990516046350
H           -3.14842554317079        4.55728369765264        1.21912318569976
H           -3.41686185547853        4.65913213274036       -0.52937730605440
H           -4.74985115958509        4.91876401309964        0.58393686849188
H           -1.18901343639536        2.86639946046826        2.85106805747921

          :  Hamiltonian                  GFN2-xTB          :
         :: total energy             -99.278153455643 Eh    ::
         :: gradient norm              0.002663712314 Eh/a0 ::
         :: HOMO-LUMO gap              0.977461488166 eV    ::
         :: SCC energy              -100.647696135737 Eh    ::
         :: -> dispersion             -0.075150610127 Eh    ::
         :: repulsion energy           1.368385300750 Eh    ::

    * Orbital Energies and Occupations

         #    Occupation            Energy/Eh            Energy/eV
      -------------------------------------------------------------
         1        2.0000           -0.8715684             -23.7166
       ...           ...                  ...                  ...
        78        1.9993           -0.5250688             -14.2878
        79        1.9992           -0.5234231             -14.2431
        80        1.9991           -0.5219692             -14.2035
        81        1.9989           -0.5182596             -14.1026
        82        1.9986           -0.5146347             -14.0039
        83        1.9980           -0.5094269             -13.8622
        84        1.9980           -0.5091872             -13.8557
        85        1.9978           -0.5079792             -13.8228
        86        1.9925           -0.4880932             -13.2817
        87        1.9848           -0.4769931             -12.9796
        88        1.9666           -0.4643277             -12.6350
        89        1.8905           -0.4449196             -12.1069
        90        1.5373           -0.4188196             -11.3967 (HOMO)
        91        0.5116           -0.3828986             -10.4192 (LUMO)
        92        0.0682           -0.3468661              -9.4387
        93        0.0285           -0.3327309              -9.0541
        94        0.0275           -0.3321424              -9.0381
        95        0.0038           -0.3008278              -8.1859
        96        0.0032           -0.2981130              -8.1121
        97        0.0000           -0.2176795              -5.9234
        98        0.0000           -0.1754800              -4.7751
        99        0.0000           -0.1750531              -4.7634
       100                         -0.1250056              -3.4016
       101                         -0.0821176              -2.2345
       ...                                ...                  ...
       171                          0.5892247              16.0336
      -------------------------------------------------------------
                  HL-Gap            0.0359210 Eh            0.9775 eV

     #   Z          covCN         q      C6AA      α(0)
     1   7 N        1.774    -0.279    28.063     7.845
     2   6 C        2.826     0.096    25.861     8.333
     3   6 C        3.907     0.006    20.426     6.424
     4   6 C        2.976     0.008    27.833     8.654
     5   6 C        2.920    -0.063    29.559     8.916
     6   6 C        2.856     0.077    26.275     8.402
     7   8 O        2.484    -0.121    16.109     5.421
     8   6 C        2.692    -0.141    31.591     9.199
     9   6 C        2.860     0.139    24.973     8.191
    10   8 O        1.705    -0.244    18.045     5.735
    11   6 C        3.645     0.026    20.469     6.503
    12   6 C        2.918    -0.073    29.817     8.954
    13   6 C        2.923    -0.044    29.088     8.845
    14   6 C        3.812    -0.066    21.756     6.639
    15   6 C        3.801    -0.066    21.757     6.641
    16   6 C        2.841    -0.008    28.222     8.706
    17   7 N        2.729    -0.006    21.372     6.866
    18   6 C        3.755    -0.014    20.882     6.516
    19   6 C        3.808    -0.070    21.826     6.650
    20   6 C        2.969    -0.003    28.096     8.694
    21   6 C        2.922    -0.051    29.257     8.870
    22   6 C        2.914    -0.069    29.717     8.939
    23   6 C        2.865     0.131    25.132     8.217
    24   8 O        1.706    -0.229    17.802     5.697
    25   6 C        3.645     0.027    20.449     6.499
    26   6 C        2.863     0.130    25.142     8.219
    27   8 O        1.706    -0.232    17.842     5.703
    28   6 C        3.645     0.030    20.408     6.493
    29   6 C        2.920    -0.081    30.020     8.985
    30   6 C        3.699    -0.063    21.885     6.691
    31   6 C        3.853    -0.008    20.685     6.469
    32   6 C        3.756    -0.120    22.850     6.816
    33   6 C        3.755    -0.119    22.832     6.813
    34   1 H        0.926     0.059     2.215     2.328
    35   1 H        0.925     0.041     2.434     2.440
    36   1 H        0.925     0.035     2.519     2.482
    37   1 H        0.804     0.343     0.604     1.221
    38   1 H        0.924     0.057     2.238     2.339
    39   1 H        0.925     0.081     1.965     2.192
    40   1 H        0.924     0.050     2.322     2.383
    41   1 H        0.926     0.061     2.181     2.310
    42   1 H        0.926     0.053     2.280     2.361
    43   1 H        0.925     0.053     2.277     2.360
    44   1 H        0.925     0.056     2.246     2.344
    45   1 H        0.925     0.052     2.291     2.367
    46   1 H        0.923     0.070     2.083     2.257
    47   1 H        0.922     0.004     2.988     2.703
    48   1 H        0.926     0.062     2.177     2.307
    49   1 H        0.924     0.062     2.173     2.305
    50   1 H        0.924     0.066     2.133     2.284
    51   1 H        0.924     0.052     2.299     2.371
    52   1 H        0.924     0.051     2.306     2.374
    53   1 H        0.926     0.042     2.426     2.436
    54   1 H        0.926     0.055     2.259     2.351
    55   1 H        0.924     0.051     2.307     2.375
    56   1 H        0.924     0.052     2.291     2.367
    57   1 H        0.925     0.079     1.991     2.206
    58   1 H        0.925     0.078     1.997     2.210
    59   1 H        0.924     0.045     2.384     2.415
    60   1 H        0.924     0.049     2.337     2.391
    61   1 H        0.926     0.043     2.412     2.429
    62   1 H        0.924     0.067     2.118     2.276
    63   1 H        0.924     0.068     2.110     2.272
    64   1 H        0.925     0.076     2.025     2.225
    65   1 H        0.924     0.034     2.536     2.490
    66   1 H        0.925     0.069     2.102     2.267
    67   1 H        0.925     0.031     2.579     2.511
    68   1 H        0.925     0.051     2.308     2.376
    69   1 H        0.925     0.062     2.172     2.304
    70   1 H        0.925     0.034     2.537     2.491
    71   1 H        0.925     0.053     2.281     2.362
    72   1 H        0.860     0.153     1.382     1.842

Wiberg/Mayer (AO) data.
largest (>0.10) Wiberg bond orders for each atom

     #   Z sym  total        # sym  WBO       # sym  WBO       # sym  WBO
 ---------------------------------------------------------------------------
     1   7 N    3.025 --     2 C    1.948    72 H    0.945
     2   6 C    3.919 --     1 N    1.948     3 C    0.993    47 H    0.908
     3   6 C    3.981 --     2 C    0.993     4 C    0.975    14 C    0.959
                            31 C    0.942
     4   6 C    3.963 --    13 C    1.399     5 C    1.380     3 C    0.975
     5   6 C    3.943 --     6 C    1.416     4 C    1.380    34 H    0.959
     6   6 C    3.822 --     5 C    1.416     9 C    1.300     7 O    0.897
     7   8 O    2.573 --     6 C    0.897    37 H    0.855     8 C    0.762
     8   6 C    2.743 --    35 H    0.976    36 H    0.971     7 O    0.762
     9   6 C    3.924 --    12 C    1.353     6 C    1.300    10 O    1.099
    10   8 O    2.262 --     9 C    1.099    11 C    0.971
    11   6 C    3.930 --    39 H    0.977    40 H    0.976    38 H    0.976
                            10 O    0.971
    12   6 C    3.950 --    13 C    1.428     9 C    1.353    41 H    0.964
    13   6 C    3.950 --    12 C    1.428     4 C    1.399    42 H    0.962
    14   6 C    3.973 --    15 C    0.985    44 H    0.972    43 H    0.970
                             3 C    0.959
    15   6 C    3.990 --    16 C    1.055    14 C    0.985    45 H    0.964
                            46 H    0.933
    16   6 C    3.511 --    17 N    1.348    15 C    1.055    48 H    0.960
    17   7 N    3.423 --    16 C    1.348    30 C    1.003    18 C    0.990
    18   6 C    3.957 --    17 N    0.990    50 H    0.968    19 C    0.966
                            49 H    0.965
    19   6 C    3.975 --    20 C    1.008    51 H    0.973    52 H    0.972
                            18 C    0.966
    20   6 C    3.954 --    21 C    1.418    29 C    1.376    19 C    1.008
    21   6 C    3.959 --    20 C    1.418    22 C    1.412    53 H    0.969
    22   6 C    3.966 --    21 C    1.412    23 C    1.390    54 H    0.964
    23   6 C    3.906 --    22 C    1.390    26 C    1.228    24 O    1.101
    24   8 O    2.254 --    23 C    1.101    25 C    0.978
    25   6 C    3.932 --    24 O    0.978    57 H    0.977    56 H    0.974
                            55 H    0.974
    26   6 C    3.909 --    29 C    1.402    23 C    1.228    27 O    1.094
    27   8 O    2.253 --    26 C    1.094    28 C    0.981
    28   6 C    3.936 --    27 O    0.981    58 H    0.977    59 H    0.974
                            60 H    0.974
    29   6 C    3.964 --    26 C    1.402    20 C    1.376    61 H    0.963
    30   6 C    3.965 --    17 N    1.003    64 H    0.978    62 H    0.968
                            63 H    0.967
    31   6 C    3.979 --    33 C    1.009    32 C    1.009    65 H    0.963
                             3 C    0.942
    32   6 C    3.986 --    31 C    1.009    67 H    0.983    68 H    0.983
                            66 H    0.977
    33   6 C    3.987 --    31 C    1.009    70 H    0.984    71 H    0.981
                            69 H    0.978
    34   1 H    0.996 --     5 C    0.959
    35   1 H    0.984 --     8 C    0.976
    36   1 H    0.985 --     8 C    0.971
    37   1 H    0.879 --     7 O    0.855
    38   1 H    0.996 --    11 C    0.976
    39   1 H    0.993 --    11 C    0.977
    40   1 H    0.997 --    11 C    0.976
    41   1 H    0.995 --    12 C    0.964
    42   1 H    0.997 --    13 C    0.962
    43   1 H    0.996 --    14 C    0.970
    44   1 H    0.996 --    14 C    0.972
    45   1 H    0.996 --    15 C    0.964
    46   1 H    0.968 --    15 C    0.933
    47   1 H    0.992 --     2 C    0.908
    48   1 H    0.996 --    16 C    0.960
    49   1 H    0.992 --    18 C    0.965
    50   1 H    0.994 --    18 C    0.968
    51   1 H    0.996 --    19 C    0.973
    52   1 H    0.996 --    19 C    0.972
    53   1 H    0.998 --    21 C    0.969
    54   1 H    0.996 --    22 C    0.964
    55   1 H    0.993 --    25 C    0.974
    56   1 H    0.994 --    25 C    0.974
    57   1 H    0.993 --    25 C    0.977
    58   1 H    0.993 --    28 C    0.977
    59   1 H    0.995 --    28 C    0.974
    60   1 H    0.995 --    28 C    0.974
    61   1 H    0.997 --    29 C    0.963
    62   1 H    0.984 --    30 C    0.968
    63   1 H    0.989 --    30 C    0.967
    64   1 H    0.994 --    30 C    0.978
    65   1 H    0.996 --    31 C    0.963
    66   1 H    0.993 --    32 C    0.977
    67   1 H    0.998 --    32 C    0.983
    68   1 H    0.996 --    32 C    0.983
    69   1 H    0.995 --    33 C    0.978
    70   1 H    0.998 --    33 C    0.984
    71   1 H    0.995 --    33 C    0.981
    72   1 H    0.973 --     1 N    0.945
 ---------------------------------------------------------------------------

molecular dipole:
                 x           y           z       tot (Debye)
 q only:       -0.968      -0.802      -1.250
   full:       -0.632      -1.295      -1.593       5.461

           -------------------------------------------------
          | TOTAL ENERGY              -99.278153455643 Eh   |
          | GRADIENT NORM               0.002663712314 Eh/α |
          | HOMO-LUMO GAP               0.977461488166 eV   |
           -------------------------------------------------

 * finished run on 2024/04/06 at 11:16:12.094
