   * xtb version 6.6.1 (8d0f1dd) compiled by 'conda@1efc2f54142f' on 2023-08-01
          program call               : xtb struc.xyz --opt loose --input .xc1 --gfn2

   ID    Z sym.   atoms
    1    6 C      1, 3, 5-7, 10, 11, 14
    2    7 N      2, 4, 9, 13
    3    8 O      8, 12
    4    1 H      15-25
constraining bond 12 14 to    5.7600000 Å, actual value:    2.7358220 Å

          :  Hamiltonian                  GFN2-xTB          :
 * total energy  :    -9.5881459 Eh     change       -0.6650680E-10 Eh
 * total energy  :   -21.8566922 Eh     change       -0.1226855E+02 Eh
 * total energy  :   -30.9605790 Eh     change       -0.9103887E+01 Eh
 * total energy  :   -37.0745669 Eh     change       -0.6113988E+01 Eh
 * total energy  :   -40.4086092 Eh     change       -0.3334042E+01 Eh
 * total energy  :   -41.5317365 Eh     change       -0.1123127E+01 Eh
 * total energy  :   -41.6471491 Eh     change       -0.1154125E+00 Eh
 * total energy  :   -41.6515853 Eh     change       -0.4436202E-02 Eh
 * total energy  :   -41.6665474 Eh     change       -0.1496209E-01 Eh
 * total energy  :   -41.6677052 Eh     change       -0.1157825E-02 Eh
 * total energy  :   -42.1693306 Eh     change       -0.2543325E-03 Eh
 * total energy  :   -42.1695629 Eh     change       -0.2322815E-03 Eh
 * total energy  :   -42.1697369 Eh     change       -0.1739943E-03 Eh
 * total energy  :   -42.1698929 Eh     change       -0.1559913E-03 Eh
 * total energy  :   -42.1700297 Eh     change       -0.1368161E-03 Eh
 * total energy  :   -42.1701429 Eh     change       -0.1132276E-03 Eh
 * total energy  :   -42.1702261 Eh     change       -0.8311718E-04 Eh
 * total energy  :   -42.1702965 Eh     change       -0.7045369E-04 Eh
 * total energy  :   -42.1703357 Eh     change       -0.3921025E-04 Eh
   *** GEOMETRY OPTIMIZATION CONVERGED AFTER 89 ITERATIONS ***

 final structure:
================
25
 xtb: 6.6.1 (8d0f1dd)
C            3.02554312163744        1.25782924912122        0.29645360625299
N            2.18946200528071        0.09105632664341        0.17041687216235
C            2.58856171359802       -1.17774324216148        0.13546326132786
N            1.51546686886280       -1.99335670279663        0.00258939940956
C            0.39742958966394       -1.21309888630006       -0.04687648199369
C            0.81912399252275        0.10410730456849        0.05977623605654
C           -0.12063214553462        1.20025784775192        0.00469267416562
O            0.13729808563150        2.38399971645668        0.05307460315055
N           -1.43542161662917        0.71323803373388       -0.13492972084356
C           -2.48056827365116        1.76897801033018       -0.21943234870552
C           -1.83536949526735       -0.55366604056620       -0.22423200811480
O           -2.48951637731290        2.59029287542782        0.87646401916787
N           -0.91185529937004       -1.53713158394617       -0.18702128640535
C           -1.32381452049167       -2.92294781993523       -0.31242842836877
H            3.57958823961861        1.22970794375036        1.23619016280626
H            3.73310046369177        1.30644193065045       -0.53044568005728
H            2.39218340901781        2.14366862026010        0.28053014504439
H            3.60454961524163       -1.51184710553031        0.20166543535485
H           -2.29607447376747        2.31735206425250       -1.15536386141116
H           -3.44040943026939        1.25142525828128       -0.26143168702284
H           -1.71780279061252        3.17562989989173        0.86220878157751
H           -1.01149877490993       -3.49528583151517        0.56194048986500
H           -0.90333087833162       -3.36493350660581       -1.21634247103622
H           -2.40910697828502       -2.94358152845653       -0.37958354510203
H            1.55352546376599       -3.00215429170682       -0.04220654938028

          :  Hamiltonian                  GFN2-xTB          :
         :: total energy             -42.170335719279 Eh    ::
         :: gradient norm              0.003665836538 Eh/a0 ::
         :: HOMO-LUMO gap              2.120925099504 eV    ::
         :: SCC energy               -42.673874678136 Eh    ::
         :: -> dispersion             -0.022367569466 Eh    ::
         :: repulsion energy           0.503423832699 Eh    ::

    * Orbital Energies and Occupations

         #    Occupation            Energy/Eh            Energy/eV
      -------------------------------------------------------------
         1        2.0000           -0.9111952             -24.7949
       ...           ...                  ...                  ...
        25        2.0000           -0.6762434             -18.4015
        26        2.0000           -0.6571686             -17.8825
        27        2.0000           -0.6435239             -17.5112
        28        1.9999           -0.6330060             -17.2250
        29        1.9999           -0.6271550             -17.0658
        30        1.9999           -0.6261100             -17.0373
        31        1.9998           -0.6189886             -16.8435
        32        1.9996           -0.6111190             -16.6294
        33        1.9982           -0.5866275             -15.9629
        34        1.9933           -0.5656649             -15.3925
        35        1.9908           -0.5604336             -15.2502
        36        1.9829           -0.5506297             -14.9834
        37        1.8418           -0.5142418             -13.9932 (HOMO)
        38        0.1563           -0.4362993             -11.8723 (LUMO)
        39        0.0302           -0.4092287             -11.1357
        40        0.0075           -0.3869143             -10.5285
        41        0.0000           -0.2882135              -7.8427
        42                         -0.1993463              -5.4245
        43                         -0.1907139              -5.1896
        44                         -0.1369522              -3.7267
        45                         -0.1339143              -3.6440
        46                         -0.0739436              -2.0121
        47                         -0.0490133              -1.3337
        48                         -0.0297690              -0.8101
       ...                                ...                  ...
        67                          0.5247108              14.2781
      -------------------------------------------------------------
                  HL-Gap            0.0779426 Eh            2.1209 eV

     #   Z          covCN         q      C6AA      α(0)
     1   6 C        3.691    -0.090    22.417     6.776
     2   7 N        2.829     0.072    19.985     6.640
     3   6 C        3.053     0.051    26.810     8.492
     4   7 N        2.792    -0.063    22.457     7.038
     5   6 C        3.054     0.106    25.607     8.299
     6   6 C        3.121    -0.009    28.061     8.675
     7   6 C        2.767     0.268    22.480     7.765
     8   8 O        0.857    -0.390    21.491     6.215
     9   7 N        2.749    -0.041    22.033     6.971
    10   6 C        3.630     0.135    18.769     6.238
    11   6 C        1.890    -0.077    33.209     9.307
    12   8 O        1.657    -0.391    20.670     6.137
    13   7 N        2.744     0.031    20.712     6.759
    14   6 C        3.702    -0.080    22.189     6.735
    15   1 H        0.924     0.105     1.741     2.063
    16   1 H        0.925     0.105     1.744     2.065
    17   1 H        0.925     0.132     1.517     1.926
    18   1 H        0.926     0.121     1.602     1.979
    19   1 H        0.923     0.066     2.133     2.284
    20   1 H        0.924     0.105     1.738     2.062
    21   1 H        0.804     0.333     0.629     1.246
    22   1 H        0.924     0.082     1.960     2.190
    23   1 H        0.924     0.082     1.958     2.188
    24   1 H        0.925     0.120     1.616     1.988
    25   1 H        0.860     0.227     0.977     1.549

Wiberg/Mayer (AO) data.
largest (>0.10) Wiberg bond orders for each atom

     #   Z sym  total        # sym  WBO       # sym  WBO       # sym  WBO
 ---------------------------------------------------------------------------
     1   6 C    3.917 --     2 N    0.985    17 H    0.963    16 H    0.961
                            15 H    0.960
     2   7 N    3.655 --     3 C    1.376     6 C    1.157     1 C    0.985
     3   6 C    3.820 --     2 N    1.376     4 N    1.269    18 H    0.954
     4   7 N    3.574 --     3 C    1.269     5 C    1.188    25 H    0.920
     5   6 C    3.934 --     6 C    1.360     4 N    1.188    13 N    1.183
     6   6 C    3.919 --     5 C    1.360     2 N    1.157     7 C    1.088
     7   6 C    3.921 --     8 O    1.670     6 C    1.088     9 N    1.061
     8   8 O    2.004 --     7 C    1.670     9 N    0.127
     9   7 N    3.621 --    11 C    1.380     7 C    1.061    10 C    0.914
                             8 O    0.127
    10   6 C    3.921 --    12 O    1.064    20 H    0.957    19 H    0.949
                             9 N    0.914
    11   6 C    2.861 --     9 N    1.380    13 N    1.277
    12   8 O    2.014 --    10 C    1.064    21 H    0.862
    13   7 N    3.634 --    11 C    1.277     5 C    1.183    14 C    0.980
    14   6 C    3.935 --    13 N    0.980    24 H    0.971    22 H    0.971
                            23 H    0.970
    15   1 H    0.985 --     1 C    0.960
    16   1 H    0.985 --     1 C    0.961
    17   1 H    0.982 --     1 C    0.963
    18   1 H    0.984 --     3 C    0.954
    19   1 H    0.989 --    10 C    0.949
    20   1 H    0.986 --    10 C    0.957
    21   1 H    0.888 --    12 O    0.862
    22   1 H    0.991 --    14 C    0.971
    23   1 H    0.990 --    14 C    0.970
    24   1 H    0.985 --    14 C    0.971
    25   1 H    0.948 --     4 N    0.920
 ---------------------------------------------------------------------------

molecular dipole:
                 x           y           z       tot (Debye)
 q only:        2.131      -2.347      -0.287
   full:        2.928      -2.700      -0.387      10.172

           -------------------------------------------------
          | TOTAL ENERGY              -42.170335719279 Eh   |
          | GRADIENT NORM               0.003665836538 Eh/α |
          | HOMO-LUMO GAP               2.120925099504 eV   |
           -------------------------------------------------

 * finished run on 2024/06/05 at 19:59:21.860
