   * xtb version 6.6.1 (8d0f1dd) compiled by 'conda@1efc2f54142f' on 2023-08-01
          program call               : xtb struc.xyz --opt loose --input .xc1 --gfn2

   ID    Z sym.   atoms
    1    6 C      1, 3, 5-7, 10, 11, 14
    2    7 N      2, 4, 9, 13
    3    8 O      8, 12
    4    1 H      15-25
constraining bond 3 17 to    5.1400000 Å, actual value:    3.3163079 Å

          :  Hamiltonian                  GFN2-xTB          :
 * total energy  :   -36.3068664 Eh     change       -0.6633627E-10 Eh
 * total energy  :   -39.1415572 Eh     change       -0.2834691E+01 Eh
 * total energy  :   -40.9922031 Eh     change       -0.1850646E+01 Eh
 * total energy  :   -41.7738249 Eh     change       -0.7816218E+00 Eh
 * total energy  :   -41.9237983 Eh     change       -0.1499734E+00 Eh
 * total energy  :   -41.9350761 Eh     change       -0.1127787E-01 Eh
 * total energy  :   -41.9474390 Eh     change       -0.1236287E-01 Eh
 * total energy  :   -41.9585719 Eh     change       -0.1113294E-01 Eh
 * total energy  :   -41.9638892 Eh     change       -0.5317282E-02 Eh
 * total energy  :   -41.9665213 Eh     change       -0.2632087E-02 Eh
 * total energy  :   -42.0542245 Eh     change       -0.2083813E-03 Eh
 * total energy  :   -42.0543576 Eh     change       -0.1331527E-03 Eh
 * total energy  :   -42.0544694 Eh     change       -0.1117713E-03 Eh
 * total energy  :   -42.0546019 Eh     change       -0.1324395E-03 Eh
 * total energy  :   -42.0547646 Eh     change       -0.1627722E-03 Eh
 * total energy  :   -42.0549656 Eh     change       -0.2009234E-03 Eh
 * total energy  :   -42.0551160 Eh     change       -0.1504913E-03 Eh
 * total energy  :   -42.0552406 Eh     change       -0.1245662E-03 Eh
 * total energy  :   -42.0552860 Eh     change       -0.4536273E-04 Eh
   *** GEOMETRY OPTIMIZATION CONVERGED AFTER 46 ITERATIONS ***

 final structure:
================
25
 xtb: 6.6.1 (8d0f1dd)
C            3.05649500930314        1.70204812246504       -0.12121260473229
N            2.35260377482167        0.49748090983368       -0.14199240793082
C            2.49683849249995       -2.43493289848893        0.45971237553549
N            1.34161811038117       -2.20639261683422       -0.06136401572966
C            0.55916003668039       -1.05294378937828        0.00014182892848
C            1.09984887181370        0.27083136062351        0.02756940281810
C            0.11684431098202        1.40979817852754        0.16986031267949
O            0.48553905907614        2.54163815324416        0.35590355728095
N           -1.20517494678421        1.08269326165512        0.00407485881053
C           -2.19813469990834        2.15376567346810        0.00700606234154
C           -1.71756238719003       -0.18593977908168       -0.08777712480150
O           -2.88850223507961       -0.41373624240493       -0.19201495808544
N           -0.77693164824161       -1.24562741308799       -0.02076689483672
C           -1.35143813142129       -2.57647022522283        0.04818687871437
H            3.47792627330859        1.82938870384129        0.88411026178499
H            3.89898942442193        1.60039634165642       -0.80948213084756
H            2.48805261936797        2.63755817467733       -0.33319582306385
H            2.98680731683541       -3.37249674665162        0.21855405932900
H           -1.67689153455723        3.10653713908063        0.03382995341829
H           -2.80894354719585        2.07727633377695       -0.89111385471217
H           -2.84480330141046        2.05607360880826        0.87805913711428
H           -0.95918668899155       -3.12584502001327        0.90379740207481
H           -1.18327286959856       -3.13450281762311       -0.87657113460970
H           -2.43015301559706       -2.45703121180575        0.16380915704034
H            0.84070322058369       -2.94132865946532       -0.58795268062102

          :  Hamiltonian                  GFN2-xTB          :
         :: total energy             -42.055285974539 Eh    ::
         :: gradient norm              0.002339403707 Eh/a0 ::
         :: HOMO-LUMO gap              0.471812496283 eV    ::
         :: SCC energy               -42.565374217198 Eh    ::
         :: -> dispersion             -0.022022482862 Eh    ::
         :: repulsion energy           0.509900083593 Eh    ::

    * Orbital Energies and Occupations

         #    Occupation            Energy/Eh            Energy/eV
      -------------------------------------------------------------
         1        2.0000           -0.8975181             -24.4227
       ...           ...                  ...                  ...
        25        2.0000           -0.6743381             -18.3497
        26        2.0000           -0.6696464             -18.2220
        27        2.0000           -0.6451256             -17.5548
        28        2.0000           -0.6435260             -17.5112
        29        2.0000           -0.6364335             -17.3182
        30        2.0000           -0.6312864             -17.1782
        31        2.0000           -0.6148407             -16.7307
        32        2.0000           -0.6061915             -16.4953
        33        1.9999           -0.6008552             -16.3501
        34        1.9998           -0.5929934             -16.1362
        35        1.9987           -0.5785735             -15.7438
        36        1.8385           -0.5394873             -14.6802
        37        1.5757           -0.5306204             -14.4389 (HOMO)
        38        0.5871           -0.5132816             -13.9671 (LUMO)
        39        0.0004           -0.4518645             -12.2959
        40        0.0000           -0.4087325             -11.1222
        41                         -0.3871239             -10.5342
        42                         -0.3058707              -8.3232
        43                         -0.2116916              -5.7604
        44                         -0.1752332              -4.7683
        45                         -0.1492454              -4.0612
        46                         -0.1122420              -3.0543
        47                         -0.0934417              -2.5427
        48                         -0.0481145              -1.3093
       ...                                ...                  ...
        67                          0.5486381              14.9292
      -------------------------------------------------------------
                  HL-Gap            0.0173388 Eh            0.4718 eV

     #   Z          covCN         q      C6AA      α(0)
     1   6 C        3.689    -0.056    21.775     6.679
     2   7 N        1.832    -0.096    23.865     7.239
     3   6 C        1.847    -0.070    33.050     9.287
     4   7 N        2.687     0.014    21.020     6.809
     5   6 C        2.842     0.112    25.514     8.278
     6   6 C        2.888     0.055    26.765     8.482
     7   6 C        2.767     0.268    22.483     7.765
     8   8 O        0.859    -0.323    20.203     6.026
     9   7 N        2.738    -0.070    22.593     7.059
    10   6 C        3.710    -0.064    21.864     6.683
    11   6 C        2.724     0.320    21.569     7.603
    12   8 O        0.859    -0.343    20.566     6.080
    13   7 N        2.744    -0.038    21.970     6.962
    14   6 C        3.702    -0.080    22.192     6.736
    15   1 H        0.924     0.143     1.443     1.879
    16   1 H        0.924     0.117     1.639     2.002
    17   1 H        0.921     0.130     1.533     1.937
    18   1 H        0.925     0.117     1.642     2.004
    19   1 H        0.925     0.112     1.676     2.025
    20   1 H        0.925     0.103     1.761     2.075
    21   1 H        0.925     0.101     1.780     2.086
    22   1 H        0.925     0.095     1.834     2.118
    23   1 H        0.924     0.094     1.842     2.122
    24   1 H        0.924     0.140     1.463     1.892
    25   1 H        0.859     0.220     1.011     1.575

Wiberg/Mayer (AO) data.
largest (>0.10) Wiberg bond orders for each atom

     #   Z sym  total        # sym  WBO       # sym  WBO       # sym  WBO
 ---------------------------------------------------------------------------
     1   6 C    3.895 --     2 N    1.121    16 H    0.936    17 H    0.890
                            15 H    0.879
     2   7 N    2.908 --     6 C    1.602     1 C    1.121
     3   6 C    2.719 --     4 N    1.616    18 H    0.931
     4   7 N    3.666 --     3 C    1.616     5 C    1.100    25 H    0.861
     5   6 C    3.742 --    13 N    1.276     6 C    1.183     4 N    1.100
     6   6 C    3.943 --     2 N    1.602     5 C    1.183     7 C    0.934
     7   6 C    3.919 --     8 O    1.728     9 N    1.148     6 C    0.934
     8   8 O    2.058 --     7 C    1.728     9 N    0.142
     9   7 N    3.574 --     7 C    1.148    11 C    1.130    10 C    0.956
                             8 O    0.142    12 O    0.134
    10   6 C    3.909 --    19 H    0.971    20 H    0.967    21 H    0.966
                             9 N    0.956
    11   6 C    3.945 --    12 O    1.718     9 N    1.130    13 N    1.013
    12   8 O    2.050 --    11 C    1.718     9 N    0.134    13 N    0.101
    13   7 N    3.526 --     5 C    1.276    11 C    1.013    14 C    0.981
                            12 O    0.101
    14   6 C    3.916 --    13 N    0.981    22 H    0.966    24 H    0.954
                            23 H    0.949
    15   1 H    0.941 --     1 C    0.879
    16   1 H    0.959 --     1 C    0.936
    17   1 H    0.934 --     1 C    0.890
    18   1 H    0.956 --     3 C    0.931
    19   1 H    0.987 --    10 C    0.971
    20   1 H    0.988 --    10 C    0.967
    21   1 H    0.988 --    10 C    0.966
    22   1 H    0.985 --    14 C    0.966
    23   1 H    0.982 --    14 C    0.949
    24   1 H    0.978 --    14 C    0.954
    25   1 H    0.915 --     4 N    0.861
 ---------------------------------------------------------------------------

molecular dipole:
                 x           y           z       tot (Debye)
 q only:        1.422      -1.588      -0.256
   full:        1.257      -1.918      -0.477       5.954

           -------------------------------------------------
          | TOTAL ENERGY              -42.055285974539 Eh   |
          | GRADIENT NORM               0.002339403707 Eh/α |
          | HOMO-LUMO GAP               0.471812496283 eV   |
           -------------------------------------------------

 * finished run on 2024/06/05 at 19:57:56.562
