   * xtb version 6.6.1 (8d0f1dd) compiled by 'conda@1efc2f54142f' on 2023-08-01
          program call               : xtb xtbopt.xyz --opt crude --input .xc2 --gfn2

   ID    Z sym.   atoms
    1    6 C      1, 3, 5-7, 10, 11, 14
    2    7 N      2, 4, 9, 13
    3    8 O      8, 12
    4    1 H      15-25
########################################################################
[WARNING] Please study the warnings concerning your input carefully
-1- readin_getIntValue: could not parse ''
########################################################################

          :  Hamiltonian                  GFN2-xTB          :
 * total energy  :   -42.0553482 Eh     change       -0.1704592E-10 Eh
 * total energy  :   -42.0585352 Eh     change       -0.3186968E-02 Eh
 * total energy  :   -42.0645142 Eh     change       -0.5979085E-02 Eh
 * total energy  :   -42.0741968 Eh     change       -0.9682511E-02 Eh
 * total energy  :   -42.1025502 Eh     change       -0.2835345E-01 Eh
 * total energy  :   -42.1699971 Eh     change       -0.6744690E-01 Eh
 * total energy  :   -42.1565319 Eh     change        0.1346518E-01 Eh
 * total energy  :   -42.2100168 Eh     change       -0.5348491E-01 Eh
 * total energy  :   -42.2110406 Eh     change       -0.1023749E-02 Eh
 * total energy  :   -42.2288111 Eh     change       -0.1777052E-01 Eh
 * total energy  :   -42.2284449 Eh     change        0.3662366E-03 Eh
 * total energy  :   -42.2379503 Eh     change       -0.9505384E-02 Eh
 * total energy  :   -42.2393962 Eh     change       -0.1445946E-02 Eh
 * total energy  :   -42.2430156 Eh     change       -0.3619426E-02 Eh
 * total energy  :   -42.2438880 Eh     change       -0.8723966E-03 Eh
 * total energy  :   -42.2443310 Eh     change       -0.4429412E-03 Eh
 * total energy  :   -42.2439988 Eh     change        0.3322018E-03 Eh
 * total energy  :   -42.2447423 Eh     change       -0.7435683E-03 Eh
 * total energy  :   -42.2449267 Eh     change       -0.1843839E-03 Eh
   *** GEOMETRY OPTIMIZATION CONVERGED AFTER 19 ITERATIONS ***

 final structure:
================
25
 xtb: 6.6.1 (8d0f1dd)
C            3.21943669866748        1.13009042466992        0.04955732842905
N            2.27063661560356        0.05378409996125       -0.01324729571824
C            2.54328795498522       -1.23787746436558       -0.06813708134695
N            1.39628846922423       -1.94923595028851       -0.07745606945518
C            0.35574853432959       -1.06592078422152       -0.02986347011073
C            0.90720602653621        0.20221715516619        0.01047489741319
C            0.07410142296285        1.39999813465548        0.02677244624882
O            0.48567024419459        2.53306806197593        0.04994412907481
N           -1.27292281067547        1.06605015398726       -0.00047345537429
C           -2.23565019390963        2.16329052258603       -0.01348249448152
C           -1.84669142905949       -0.19331417670672        0.00593629475462
O           -3.03033328637439       -0.36562874505464        0.02038907299940
N           -0.96271388083829       -1.30079868232350       -0.01160933711419
C           -1.51718866276820       -2.64042766611464        0.03162387464626
H            3.61597964265137        1.22380012174447        1.06160930958666
H            4.04444007769701        0.95255865274330       -0.63827220924053
H            2.71568293773133        2.06114855157928       -0.20578122798503
H            3.53135831881400       -1.64923022840681       -0.07343300814029
H           -1.68319740981207        3.09820463964651       -0.05338737697200
H           -2.88522907300054        2.06751205897921       -0.88207463672498
H           -2.85002459868115        2.12643687911633        0.88494453158734
H           -1.10994486815810       -3.19183387948609        0.87890404601403
H           -1.31859804488081       -3.17292781497220       -0.89901297592492
H           -2.59506676838636       -2.53977155437484        0.15533163818827
H            1.30815559724687       -2.95295396889615       -0.17808531245351

          :  Hamiltonian                  GFN2-xTB          :
         :: total energy             -42.244926713486 Eh    ::
         :: gradient norm              0.006615321875 Eh/a0 ::
         :: HOMO-LUMO gap              3.233255203075 eV    ::
         :: SCC energy               -42.776332799605 Eh    ::
         :: -> dispersion             -0.022666541145 Eh    ::
         :: repulsion energy           0.531291583302 Eh    ::

    * Orbital Energies and Occupations

         #    Occupation            Energy/Eh            Energy/eV
      -------------------------------------------------------------
         1        2.0000           -0.9217990             -25.0834
       ...           ...                  ...                  ...
        25        2.0000           -0.6685547             -18.1923
        26        2.0000           -0.6637438             -18.0614
        27        2.0000           -0.6553514             -17.8330
        28        2.0000           -0.6391481             -17.3921
        29        2.0000           -0.6306448             -17.1607
        30        2.0000           -0.6246960             -16.9988
        31        2.0000           -0.6244946             -16.9934
        32        2.0000           -0.6188055             -16.8386
        33        2.0000           -0.5946858             -16.1822
        34        1.9999           -0.5765400             -15.6885
        35        1.9996           -0.5617654             -15.2864
        36        1.9994           -0.5582829             -15.1917
        37        1.9993           -0.5574326             -15.1685 (HOMO)
        38        0.0018           -0.4386127             -11.9353 (LUMO)
        39        0.0000           -0.4060621             -11.0495
        40        0.0000           -0.3721752             -10.1274
        41                         -0.2885045              -7.8506
        42                         -0.2065421              -5.6203
        43                         -0.2015554              -5.4846
        44                         -0.1466049              -3.9893
        45                         -0.1309274              -3.5627
        46                         -0.0864888              -2.3535
        47                         -0.0476173              -1.2957
        48                         -0.0363253              -0.9885
       ...                                ...                  ...
        67                          0.5634806              15.3331
      -------------------------------------------------------------
                  HL-Gap            0.1188199 Eh            3.2333 eV

     #   Z          covCN         q      C6AA      α(0)
     1   6 C        3.693    -0.097    22.536     6.792
     2   7 N        2.841     0.095    19.594     6.574
     3   6 C        3.067     0.057    26.665     8.467
     4   7 N        2.800    -0.056    22.325     7.018
     5   6 C        3.050     0.117    25.389     8.264
     6   6 C        3.130    -0.026    28.453     8.733
     7   6 C        2.764     0.276    22.331     7.739
     8   8 O        0.858    -0.366    21.020     6.147
     9   7 N        2.746    -0.086    22.920     7.110
    10   6 C        3.711    -0.062    21.840     6.678
    11   6 C        2.728     0.319    21.586     7.606
    12   8 O        0.859    -0.355    20.809     6.116
    13   7 N        2.738    -0.061    22.425     7.033
    14   6 C        3.696    -0.072    22.061     6.719
    15   1 H        0.924     0.115     1.657     2.013
    16   1 H        0.925     0.107     1.723     2.053
    17   1 H        0.925     0.140     1.463     1.892
    18   1 H        0.927     0.130     1.535     1.938
    19   1 H        0.925     0.111     1.686     2.031
    20   1 H        0.925     0.096     1.817     2.108
    21   1 H        0.925     0.097     1.817     2.108
    22   1 H        0.925     0.080     1.984     2.203
    23   1 H        0.924     0.083     1.953     2.185
    24   1 H        0.925     0.129     1.545     1.944
    25   1 H        0.860     0.234     0.950     1.526

Wiberg/Mayer (AO) data.
largest (>0.10) Wiberg bond orders for each atom

     #   Z sym  total        # sym  WBO       # sym  WBO       # sym  WBO
 ---------------------------------------------------------------------------
     1   6 C    3.913 --     2 N    0.985    16 H    0.966    17 H    0.959
                            15 H    0.951
     2   7 N    3.735 --     3 C    1.427     6 C    1.173     1 C    0.985
     3   6 C    3.928 --     2 N    1.427     4 N    1.284    18 H    0.951
     4   7 N    3.610 --     3 C    1.284     5 C    1.187    25 H    0.917
     5   6 C    3.962 --     6 C    1.359    13 N    1.227     4 N    1.187
     6   6 C    3.934 --     5 C    1.359     2 N    1.173     7 C    1.048
     7   6 C    3.966 --     8 O    1.704     9 N    1.120     6 C    1.048
     8   8 O    2.072 --     7 C    1.704     9 N    0.161
     9   7 N    3.578 --    11 C    1.121     7 C    1.120    10 C    0.965
                             8 O    0.161    12 O    0.138
    10   6 C    3.920 --    19 H    0.970    20 H    0.969    21 H    0.968
                             9 N    0.965
    11   6 C    3.960 --    12 O    1.723     9 N    1.121    13 N    1.024
    12   8 O    2.084 --    11 C    1.723     9 N    0.138    13 N    0.124
    13   7 N    3.567 --     5 C    1.227    11 C    1.024    14 C    0.973
                            12 O    0.124
    14   6 C    3.926 --    22 H    0.973    13 N    0.973    23 H    0.971
                            24 H    0.963
    15   1 H    0.987 --     1 C    0.951
    16   1 H    0.988 --     1 C    0.966
    17   1 H    0.980 --     1 C    0.959
    18   1 H    0.982 --     3 C    0.951
    19   1 H    0.987 --    10 C    0.970
    20   1 H    0.990 --    10 C    0.969
    21   1 H    0.990 --    10 C    0.968
    22   1 H    0.992 --    14 C    0.973
    23   1 H    0.992 --    14 C    0.971
    24   1 H    0.983 --    14 C    0.963
    25   1 H    0.945 --     4 N    0.917
 ---------------------------------------------------------------------------

molecular dipole:
                 x           y           z       tot (Debye)
 q only:        2.753      -2.062      -0.081
   full:        3.057      -2.593      -0.102      10.191

           -------------------------------------------------
          | TOTAL ENERGY              -42.244926713486 Eh   |
          | GRADIENT NORM               0.006615321875 Eh/α |
          | HOMO-LUMO GAP               3.233255203075 eV   |
           -------------------------------------------------

 * finished run on 2024/06/05 at 19:57:57.620
