   * xtb version 6.6.1 (8d0f1dd) compiled by 'conda@1efc2f54142f' on 2023-08-01
          program call               : xtb struc.xyz --opt loose --input .xc1 --gfn2

   ID    Z sym.   atoms
    1    6 C      1, 3, 5-7, 10, 11, 14
    2    7 N      2, 4, 9, 13
    3    8 O      8, 12
    4    1 H      15-25
constraining bond 7 8 to    3.7600000 Å, actual value:    1.2054518 Å

          :  Hamiltonian                  GFN2-xTB          :
 * total energy  :   -30.5959821 Eh     change       -0.6650680E-10 Eh
 * total energy  :   -34.7366535 Eh     change       -0.4140671E+01 Eh
 * total energy  :   -38.2200112 Eh     change       -0.3483358E+01 Eh
 * total energy  :   -40.4536010 Eh     change       -0.2233590E+01 Eh
 * total energy  :   -41.4660953 Eh     change       -0.1012494E+01 Eh
 * total energy  :   -41.6649472 Eh     change       -0.1988519E+00 Eh
 * total energy  :   -41.6842350 Eh     change       -0.1928787E-01 Eh
 * total energy  :   -41.6960908 Eh     change       -0.1185573E-01 Eh
 * total energy  :   -41.7615564 Eh     change       -0.6546566E-01 Eh
 * total energy  :   -41.7855475 Eh     change       -0.2399112E-01 Eh
 * total energy  :   -42.1623422 Eh     change       -0.1227618E-02 Eh
 * total energy  :   -42.1630335 Eh     change       -0.6912826E-03 Eh
 * total energy  :   -42.1636103 Eh     change       -0.5767747E-03 Eh
 * total energy  :   -42.1639254 Eh     change       -0.3151664E-03 Eh
 * total energy  :   -42.1641500 Eh     change       -0.2245860E-03 Eh
 * total energy  :   -42.1642107 Eh     change       -0.6069547E-04 Eh
 * total energy  :   -42.1641782 Eh     change        0.3250995E-04 Eh
 * total energy  :   -42.1643529 Eh     change       -0.1747042E-03 Eh
 * total energy  :   -42.1643831 Eh     change       -0.3019474E-04 Eh
   *** GEOMETRY OPTIMIZATION CONVERGED AFTER 65 ITERATIONS ***

 final structure:
================
25
 xtb: 6.6.1 (8d0f1dd)
C            3.02880020284569        1.36006488207439        0.19130475753502
N            2.13304477766244        0.20017804713390        0.10898829551388
C            2.49861706225315       -1.07003901089685       -0.04960674463492
N            1.40265547997950       -1.85898295989976       -0.13514291986190
C            0.30499371500749       -1.06164365623116       -0.03484383342622
C            0.75447791037139        0.25401370717742        0.11155480486627
C           -0.13814984041834        1.33471284950754        0.23792563169514
O            3.35655849310040        1.82239585509080       -1.06194501175438
N           -1.41786686082292        0.96863171025516        0.20950950764515
C           -2.43364592380548        1.99877378814790        0.33396638294775
C           -1.94040564784365       -0.32863032500716        0.08335946889088
O           -3.11859389814450       -0.54777260706500        0.08932010088067
N           -1.00125152553810       -1.36949006217883       -0.05343108000913
C           -1.47799002270056       -2.73311997232581       -0.18227138521405
H            2.52324909314798        2.10451890528501        0.81746522613230
H            3.95566739066055        1.02250797868063        0.66883092996193
H            2.71240170243540        2.45778939314334       -1.39692105561229
H            3.51014555154993       -1.41878559007881       -0.10482718808664
H           -1.93698072238899        2.95880903761080        0.43642096565603
H           -3.07541640791641        1.99519090782009       -0.54707404298324
H           -3.05917712716445        1.79944928677556        1.20419844878581
H           -1.11807388181284       -3.34200676928336        0.64759166674127
H           -1.15481914568044       -3.16216091240929       -1.13099509912576
H           -2.56673621974733       -2.70360786160665       -0.15643253391967
H            1.41892735906932       -2.86255808011875       -0.25577367472128

          :  Hamiltonian                  GFN2-xTB          :
         :: total energy             -42.164383120393 Eh    ::
         :: gradient norm              0.003071411399 Eh/a0 ::
         :: HOMO-LUMO gap              1.737740793709 eV    ::
         :: SCC energy               -42.671732841706 Eh    ::
         :: -> dispersion             -0.022170216463 Eh    ::
         :: repulsion energy           0.507239985609 Eh    ::

    * Orbital Energies and Occupations

         #    Occupation            Energy/Eh            Energy/eV
      -------------------------------------------------------------
         1        2.0000           -0.9054421             -24.6383
       ...           ...                  ...                  ...
        25        2.0000           -0.6740686             -18.3423
        26        2.0000           -0.6496487             -17.6778
        27        2.0000           -0.6469402             -17.6041
        28        1.9999           -0.6406319             -17.4325
        29        1.9998           -0.6250991             -17.0098
        30        1.9998           -0.6243101             -16.9883
        31        1.9995           -0.6092708             -16.5791
        32        1.9992           -0.6016903             -16.3728
        33        1.9984           -0.5896828             -16.0461
        34        1.9976           -0.5834444             -15.8763
        35        1.9976           -0.5831469             -15.8682
        36        1.9850           -0.5543178             -15.0838
        37        1.7638           -0.5087860             -13.8448 (HOMO)
        38        0.2337           -0.4449252             -12.1070 (LUMO)
        39        0.0226           -0.4061537             -11.0520
        40        0.0031           -0.3743303             -10.1860
        41        0.0000           -0.2859188              -7.7802
        42                         -0.2015447              -5.4843
        43                         -0.1973405              -5.3699
        44                         -0.1439678              -3.9176
        45                         -0.1160290              -3.1573
        46                         -0.0770416              -2.0964
        47                         -0.0632564              -1.7213
        48                         -0.0453141              -1.2331
       ...                                ...                  ...
        67                          0.5363639              14.5952
      -------------------------------------------------------------
                  HL-Gap            0.0638608 Eh            1.7377 eV

     #   Z          covCN         q      C6AA      α(0)
     1   6 C        3.613     0.119    19.097     6.308
     2   7 N        2.828     0.022    20.870     6.785
     3   6 C        3.047     0.064    26.526     8.447
     4   7 N        2.783    -0.058    22.368     7.024
     5   6 C        3.050     0.114    25.454     8.274
     6   6 C        3.113     0.025    27.281     8.556
     7   6 C        1.925    -0.124    34.570     9.495
     8   8 O        1.658    -0.392    20.691     6.141
     9   7 N        2.759     0.012    21.050     6.814
    10   6 C        3.718    -0.070    21.971     6.696
    11   6 C        2.732     0.309    21.754     7.636
    12   8 O        0.859    -0.360    20.899     6.129
    13   7 N        2.738    -0.047    22.159     6.991
    14   6 C        3.696    -0.070    22.016     6.712
    15   1 H        0.924     0.089     1.888     2.149
    16   1 H        0.924     0.099     1.794     2.095
    17   1 H        0.805     0.328     0.643     1.259
    18   1 H        0.926     0.124     1.583     1.968
    19   1 H        0.925     0.104     1.751     2.069
    20   1 H        0.925     0.100     1.785     2.089
    21   1 H        0.925     0.101     1.777     2.085
    22   1 H        0.924     0.081     1.967     2.193
    23   1 H        0.924     0.082     1.959     2.189
    24   1 H        0.925     0.125     1.577     1.964
    25   1 H        0.860     0.226     0.981     1.552

Wiberg/Mayer (AO) data.
largest (>0.10) Wiberg bond orders for each atom

     #   Z sym  total        # sym  WBO       # sym  WBO       # sym  WBO
 ---------------------------------------------------------------------------
     1   6 C    3.922 --     8 O    1.052    15 H    0.957    16 H    0.956
                             2 N    0.927
     2   7 N    3.615 --     3 C    1.376     6 C    1.130     1 C    0.927
     3   6 C    3.798 --     2 N    1.376     4 N    1.273    18 H    0.953
     4   7 N    3.588 --     3 C    1.273     5 C    1.195    25 H    0.918
     5   6 C    3.907 --     6 C    1.290    13 N    1.227     4 N    1.195
     6   6 C    3.894 --     5 C    1.290     7 C    1.232     2 N    1.130
     7   6 C    2.800 --     9 N    1.375     6 C    1.232
     8   8 O    2.021 --     1 C    1.052    17 H    0.878
     9   7 N    3.627 --     7 C    1.375    11 C    1.067    10 C    0.979
                            12 O    0.114
    10   6 C    3.924 --     9 N    0.979    19 H    0.975    20 H    0.961
                            21 H    0.961
    11   6 C    3.937 --    12 O    1.715     9 N    1.067    13 N    1.053
    12   8 O    2.052 --    11 C    1.715    13 N    0.133     9 N    0.114
    13   7 N    3.562 --     5 C    1.227    11 C    1.053    14 C    0.974
                            12 O    0.133
    14   6 C    3.926 --    13 N    0.974    22 H    0.970    23 H    0.970
                            24 H    0.965
    15   1 H    0.991 --     1 C    0.957
    16   1 H    0.989 --     1 C    0.956
    17   1 H    0.892 --     8 O    0.878
    18   1 H    0.984 --     3 C    0.953
    19   1 H    0.988 --    10 C    0.975
    20   1 H    0.985 --    10 C    0.961
    21   1 H    0.985 --    10 C    0.961
    22   1 H    0.991 --    14 C    0.970
    23   1 H    0.991 --    14 C    0.970
    24   1 H    0.984 --    14 C    0.965
    25   1 H    0.948 --     4 N    0.918
 ---------------------------------------------------------------------------

molecular dipole:
                 x           y           z       tot (Debye)
 q only:        1.906      -0.894       0.124
   full:        1.972      -1.581       0.109       6.430

           -------------------------------------------------
          | TOTAL ENERGY              -42.164383120393 Eh   |
          | GRADIENT NORM               0.003071411399 Eh/α |
          | HOMO-LUMO GAP               1.737740793709 eV   |
           -------------------------------------------------

 * finished run on 2024/06/05 at 20:00:12.232
