   * xtb version 6.6.1 (8d0f1dd) compiled by 'conda@1efc2f54142f' on 2023-08-01
          program call               : xtb xtbopt.xyz --opt crude --input .xc2 --gfn2

   ID    Z sym.   atoms
    1    6 C      1, 3, 5-7, 10, 11, 14
    2    7 N      2, 4, 9, 13
    3    8 O      8, 12
    4    1 H      15-25
########################################################################
[WARNING] Please study the warnings concerning your input carefully
-1- readin_getIntValue: could not parse ''
########################################################################

          :  Hamiltonian                  GFN2-xTB          :
 * total energy  :   -42.1643834 Eh     change        0.9947598E-13 Eh
 * total energy  :   -42.1644149 Eh     change       -0.3150429E-04 Eh
   *** GEOMETRY OPTIMIZATION CONVERGED AFTER 2 ITERATIONS ***

 final structure:
================
25
 xtb: 6.6.1 (8d0f1dd)
C            3.02916340448439        1.36026655652580        0.19203598139740
N            2.13386385863994        0.19956317480801        0.11289862772232
C            2.49953425914582       -1.07049013876456       -0.04777677037250
N            1.40347744820825       -1.85929228117679       -0.13444305359364
C            0.30588338262800       -1.06198722810350       -0.03296042938378
C            0.75538826310291        0.25357578139941        0.11545339077812
C           -0.13583314797004        1.33492521939233        0.24084234265327
O            3.35169170962373        1.81915152287632       -1.06346596464564
N           -1.41620603268120        0.96954213830376        0.21135225038343
C           -2.43269154885517        1.99944456757632        0.33440557931448
C           -1.93921519274284       -0.32718688680604        0.08317209610731
O           -3.11766163982418       -0.54590029059764        0.08596924923325
N           -1.00044260550951       -1.36891829919923       -0.05221350043339
C           -1.47756578106147       -2.73205761697100       -0.18403923573641
H            2.52138440007896        2.10451275938981        0.81599656180433
H            3.95707579894083        1.02790330967603        0.66949680166510
H            2.69964886459653        2.44587160376659       -1.40107301371679
H            3.51132331675489       -1.41855267134804       -0.10486654345280
H           -1.93704050284799        2.96000844164710        0.43749833837151
H           -3.07387116682150        1.99509418309309       -0.54730186029115
H           -3.05892537905961        1.79983396800745        1.20414440143394
H           -1.11856978421791       -3.34246505453755        0.64508041573000
H           -1.15341546497440       -3.15941691376023       -1.13316517300385
H           -2.56631791268556       -2.70249479826552       -0.15939538206308
H            1.41975296714637       -2.86269250533078       -0.25647349199881

          :  Hamiltonian                  GFN2-xTB          :
         :: total energy             -42.164414888134 Eh    ::
         :: gradient norm              0.001418748106 Eh/a0 ::
         :: HOMO-LUMO gap              1.737956052224 eV    ::
         :: SCC energy               -42.671676442493 Eh    ::
         :: -> dispersion             -0.022175110648 Eh    ::
         :: repulsion energy           0.507151547777 Eh    ::

    * Orbital Energies and Occupations

         #    Occupation            Energy/Eh            Energy/eV
      -------------------------------------------------------------
         1        2.0000           -0.9054802             -24.6394
       ...           ...                  ...                  ...
        25        2.0000           -0.6740882             -18.3429
        26        2.0000           -0.6496860             -17.6789
        27        2.0000           -0.6469633             -17.6048
        28        1.9999           -0.6406283             -17.4324
        29        1.9998           -0.6251391             -17.0109
        30        1.9998           -0.6243527             -16.9895
        31        1.9995           -0.6094180             -16.5831
        32        1.9992           -0.6017060             -16.3733
        33        1.9984           -0.5897583             -16.0481
        34        1.9976           -0.5834646             -15.8769
        35        1.9975           -0.5831598             -15.8686
        36        1.9849           -0.5543479             -15.0846
        37        1.7639           -0.5088961             -13.8478 (HOMO)
        38        0.2337           -0.4450274             -12.1098 (LUMO)
        39        0.0226           -0.4062325             -11.0541
        40        0.0030           -0.3743765             -10.1873
        41        0.0000           -0.2859667              -7.7815
        42                         -0.2016023              -5.4859
        43                         -0.1974825              -5.3738
        44                         -0.1440073              -3.9186
        45                         -0.1161587              -3.1608
        46                         -0.0769854              -2.0949
        47                         -0.0633453              -1.7237
        48                         -0.0452043              -1.2301
       ...                                ...                  ...
        67                          0.5359150              14.5830
      -------------------------------------------------------------
                  HL-Gap            0.0638687 Eh            1.7380 eV

     #   Z          covCN         q      C6AA      α(0)
     1   6 C        3.613     0.119    19.097     6.308
     2   7 N        2.828     0.021    20.876     6.786
     3   6 C        3.046     0.064    26.526     8.447
     4   7 N        2.783    -0.058    22.367     7.024
     5   6 C        3.050     0.114    25.453     8.274
     6   6 C        3.113     0.025    27.281     8.556
     7   6 C        1.924    -0.124    34.574     9.496
     8   8 O        1.658    -0.392    20.688     6.140
     9   7 N        2.759     0.012    21.052     6.815
    10   6 C        3.718    -0.070    21.971     6.696
    11   6 C        2.732     0.309    21.755     7.636
    12   8 O        0.859    -0.360    20.900     6.129
    13   7 N        2.738    -0.047    22.158     6.991
    14   6 C        3.696    -0.070    22.016     6.712
    15   1 H        0.924     0.089     1.888     2.149
    16   1 H        0.924     0.099     1.791     2.093
    17   1 H        0.805     0.328     0.643     1.260
    18   1 H        0.926     0.124     1.583     1.968
    19   1 H        0.925     0.104     1.752     2.070
    20   1 H        0.925     0.100     1.785     2.089
    21   1 H        0.925     0.101     1.777     2.085
    22   1 H        0.924     0.081     1.966     2.193
    23   1 H        0.925     0.082     1.959     2.189
    24   1 H        0.925     0.125     1.577     1.964
    25   1 H        0.860     0.226     0.981     1.552

Wiberg/Mayer (AO) data.
largest (>0.10) Wiberg bond orders for each atom

     #   Z sym  total        # sym  WBO       # sym  WBO       # sym  WBO
 ---------------------------------------------------------------------------
     1   6 C    3.922 --     8 O    1.053    15 H    0.957    16 H    0.956
                             2 N    0.926
     2   7 N    3.615 --     3 C    1.377     6 C    1.130     1 C    0.926
     3   6 C    3.798 --     2 N    1.377     4 N    1.273    18 H    0.953
     4   7 N    3.588 --     3 C    1.273     5 C    1.195    25 H    0.918
     5   6 C    3.907 --     6 C    1.289    13 N    1.228     4 N    1.195
     6   6 C    3.894 --     5 C    1.289     7 C    1.233     2 N    1.130
     7   6 C    2.800 --     9 N    1.375     6 C    1.233
     8   8 O    2.022 --     1 C    1.053    17 H    0.878
     9   7 N    3.626 --     7 C    1.375    11 C    1.067    10 C    0.979
                            12 O    0.115
    10   6 C    3.924 --     9 N    0.979    19 H    0.975    20 H    0.961
                            21 H    0.961
    11   6 C    3.937 --    12 O    1.715     9 N    1.067    13 N    1.052
    12   8 O    2.052 --    11 C    1.715    13 N    0.133     9 N    0.115
    13   7 N    3.562 --     5 C    1.228    11 C    1.052    14 C    0.974
                            12 O    0.133
    14   6 C    3.926 --    13 N    0.974    22 H    0.970    23 H    0.970
                            24 H    0.965
    15   1 H    0.991 --     1 C    0.957
    16   1 H    0.989 --     1 C    0.956
    17   1 H    0.892 --     8 O    0.878
    18   1 H    0.984 --     3 C    0.953
    19   1 H    0.988 --    10 C    0.975
    20   1 H    0.985 --    10 C    0.961
    21   1 H    0.985 --    10 C    0.961
    22   1 H    0.991 --    14 C    0.970
    23   1 H    0.991 --    14 C    0.970
    24   1 H    0.984 --    14 C    0.965
    25   1 H    0.948 --     4 N    0.918
 ---------------------------------------------------------------------------

molecular dipole:
                 x           y           z       tot (Debye)
 q only:        1.905      -0.898       0.124
   full:        1.970      -1.587       0.108       6.436

           -------------------------------------------------
          | TOTAL ENERGY              -42.164414888134 Eh   |
          | GRADIENT NORM               0.001418748106 Eh/α |
          | HOMO-LUMO GAP               1.737956052224 eV   |
           -------------------------------------------------

 * finished run on 2024/06/05 at 20:00:12.442
