   * xtb version 6.6.1 (8d0f1dd) compiled by 'conda@1efc2f54142f' on 2023-08-01
          program call               : xtb struc.xyz --opt loose --input .xc1 --gfn2

   ID    Z sym.   atoms
    1    7 N      1, 17
    2    6 C      2-6, 8, 9, 11-16, 18-23, 25, 26, 28-33
    3    8 O      7, 10, 24, 27
    4    1 H      34-72
constraining bond 16 52 to    4.7133300 Å, actual value:    3.8267223 Å

          :  Hamiltonian                  GFN2-xTB          :
 * total energy  :   -99.5444868 Eh     change       -0.4035485E-08 Eh
 * total energy  :   -99.7770661 Eh     change       -0.2325793E+00 Eh
 * total energy  :  -100.0925283 Eh     change       -0.3154621E+00 Eh
 * total energy  :  -100.4958857 Eh     change       -0.4033575E+00 Eh
 * total energy  :  -101.0360340 Eh     change       -0.5401482E+00 Eh
 * total energy  :  -101.6178522 Eh     change       -0.5818183E+00 Eh
 * total energy  :  -101.6739246 Eh     change       -0.5607240E-01 Eh
 * total energy  :  -101.8282673 Eh     change       -0.1543426E+00 Eh
 * total energy  :  -101.9124361 Eh     change       -0.8416885E-01 Eh
 * total energy  :  -101.9637102 Eh     change       -0.5127406E-01 Eh
 * total energy  :  -102.0370119 Eh     change       -0.7044608E-04 Eh
 * total energy  :  -102.0371043 Eh     change       -0.9238239E-04 Eh
 * total energy  :  -102.0371939 Eh     change       -0.8961405E-04 Eh
 * total energy  :  -102.0372588 Eh     change       -0.6488189E-04 Eh
 * total energy  :  -102.0373104 Eh     change       -0.5161897E-04 Eh
 * total energy  :  -102.0373710 Eh     change       -0.6059573E-04 Eh
 * total energy  :  -102.0374390 Eh     change       -0.6799002E-04 Eh
 * total energy  :  -102.0374961 Eh     change       -0.5709160E-04 Eh
 * total energy  :  -102.0375404 Eh     change       -0.4428542E-04 Eh
   *** GEOMETRY OPTIMIZATION CONVERGED AFTER 62 ITERATIONS ***

 final structure:
================
72
 xtb: 6.6.1 (8d0f1dd)
N           -1.44709056098312        2.32418072334426        2.07898006836301
C           -1.64882248023489        1.50441120438326        1.15578496950388
C           -2.88358183315212        1.49796353801722        0.29658183612238
C           -3.47803736975016        0.10010478174824        0.29263767645181
C           -4.39136687175627       -0.28360021631742       -0.68786590348488
C           -5.00125344144552       -1.52888491156311       -0.66264233851025
O           -5.89215455801930       -1.97820935111549       -1.56599640196601
C           -6.30216243672069       -1.13512914925384       -2.61699065337581
C           -4.69684427094426       -2.43842971908601        0.38937699196106
O           -5.34517914552625       -3.61503548584811        0.34447025618497
C           -5.13666545473825       -4.55628522777213        1.37238468743416
C           -3.78784087190795       -2.04820711848740        1.36293448660249
C           -3.19219341037039       -0.79798390748072        1.31469277560695
C           -2.40247449251438        1.90416019205488       -1.12070005031562
C           -1.45893928235538        0.90614219477860       -1.80603558198092
C            0.06128180975040        1.24102679833859       -1.70776352923521
N            0.69363695256418        0.40923547269149       -0.66135477108417
C            1.73316230444671        1.06563590190597        0.12202914399201
C            2.94140846122813        1.44526890030041       -0.66896443337297
C            4.22284143367479        0.94006502973533       -0.54358200449092
C            5.26519111125500        1.50548318454834       -1.33191849238011
C            6.56702772108463        1.09580950602045       -1.20676536356724
C            6.91558790409608        0.07849511799571       -0.31294428555900
O            8.14659945241631       -0.39257095543227       -0.10711864125378
C            9.24102287606320        0.17412683787551       -0.79588338676777
C            5.88320476434249       -0.53912076504501        0.46598581828412
O            6.31552024180796       -1.52612649472239        1.27541646708054
C            5.39195824720794       -2.20116837111657        2.09517956616982
C            4.58500238727434       -0.10775206790961        0.35100194892038
C            1.08026610378001       -0.89669045228286       -1.14505350844760
C           -3.99729283301688        2.47522097992840        0.77967139954646
C           -4.47542690905450        2.12705504035085        2.18758393476989
C           -3.58449047076749        3.94388866490704        0.73347651526169
H           -4.63953782443119        0.40302897368099       -1.47963150624636
H           -6.77874266926655       -0.22586668087765       -2.23839251473279
H           -7.02860101189970       -1.71149017218084       -3.18669169240704
H           -5.46349688651633       -0.86698579323092       -3.26727386921447
H           -5.43819343478748       -4.15760791757860        2.34576282746504
H           -5.76537154758114       -5.40808340943102        1.12069840892165
H           -4.09138745129696       -4.87685844829065        1.41651311838640
H           -3.54512899409894       -2.71112612035573        2.17734663410200
H           -2.51348604747085       -0.51849754335259        2.10545162384406
H           -3.28528130261257        2.04756184551208       -1.74397394694860
H           -1.90956616860390        2.87355612893213       -1.04790724895123
H           -1.63678281058424       -0.09468728369128       -1.41226839633784
H           -1.70281740886776        0.88087634704846       -2.86977125418742
H           -0.92336249115565        0.73984239491975        0.84661563769277
H            0.12903710816526        2.27899534760122       -1.33663528527787
H            1.99029210409318        0.39823045022936        0.94631322783462
H            1.29107822804784        1.97612566760103        0.54444550337910
H            2.77779180472241        2.20423204604156       -1.42136227999734
H            0.38822490250032        1.15852282856455       -2.37095166517523
H            5.01886176799051        2.29213771930885       -2.02796384098022
H            7.32846517279312        1.56770084116672       -1.80728484398494
H            9.35885329246829        1.23321761594279       -0.55018741972965
H            9.13730840493592        0.05803976961940       -1.87837035317556
H           10.11584723932813       -0.37598913109725       -0.45627150667581
H            5.97647721910687       -2.92817606823498        2.65545103934308
H            4.89969482744196       -1.51701841190164        2.79341490084487
H            4.63712539262967       -2.72541417620862        1.50005190711897
H            3.81670064176857       -0.57589561497083        0.94259034612924
H            1.92629746787909       -0.85584529558245       -1.84305540644093
H            0.23533278274061       -1.35814044077376       -1.65222289378769
H            1.36033593916370       -1.52357245598981       -0.29982344141806
H           -4.84224816043077        2.33617822775340        0.09395180920136
H           -3.66795241467597        2.26793332324222        2.90002894217071
H           -4.82455158086513        1.09901663331975        2.24443601597260
H           -5.29690051653635        2.78137527103014        2.46724810796269
H           -2.68979057406295        4.09931506344874        1.32909973991604
H           -3.40802801317345        4.28645947671681       -0.28241642145158
H           -4.38285087105541        4.55139923516431        1.15249301288009
H           -0.56902559653235        2.26856940396780        2.58519863011052

          :  Hamiltonian                  GFN2-xTB          :
         :: total energy            -102.037540398095 Eh    ::
         :: gradient norm              0.002917901996 Eh/a0 ::
         :: HOMO-LUMO gap              1.087565504717 eV    ::
         :: SCC energy              -100.780500175189 Eh    ::
         :: -> dispersion             -0.074998036426 Eh    ::
         :: repulsion energy           1.554966198316 Eh    ::

    * Orbital Energies and Occupations

         #    Occupation            Energy/Eh            Energy/eV
      -------------------------------------------------------------
         1        2.0000           -0.8222884             -22.3756
       ...           ...                  ...                  ...
        78        1.9967           -0.5301529             -14.4262
        79        1.9967           -0.5298879             -14.4190
        80        1.9961           -0.5272854             -14.3482
        81        1.9941           -0.5208205             -14.1722
        82        1.9911           -0.5141523             -13.9908
        83        1.9906           -0.5133079             -13.9678
        84        1.9878           -0.5091383             -13.8544
        85        1.9865           -0.5076071             -13.8127
        86        1.9633           -0.4915425             -13.3756
        87        1.9231           -0.4795050             -13.0480
        88        1.8967           -0.4746087             -12.9148
        89        1.7765           -0.4613456             -12.5539
        90        1.7620           -0.4602268             -12.5234 (HOMO)
        91        0.7448           -0.4202595             -11.4358 (LUMO)
        92        0.0061           -0.3368376              -9.1658
        93        0.0019           -0.3180390              -8.6543
        94        0.0018           -0.3170677              -8.6279
        95        0.0015           -0.3147824              -8.5657
        96        0.0005           -0.2969758              -8.0811
        97        0.0000           -0.1922301              -5.2308
        98        0.0000           -0.1894293              -5.1546
        99                         -0.1081955              -2.9441
       100                         -0.0725602              -1.9745
       101                         -0.0671305              -1.8267
       ...                                ...                  ...
       171                          1.4084213              38.3251
      -------------------------------------------------------------
                  HL-Gap            0.0399673 Eh            1.0876 eV

     #   Z          covCN         q      C6AA      α(0)
     1   7 N        1.774    -0.264    27.682     7.791
     2   6 C        2.830     0.098    25.814     8.326
     3   6 C        3.908     0.008    20.384     6.417
     4   6 C        2.975     0.009    27.812     8.651
     5   6 C        2.919    -0.075    29.860     8.961
     6   6 C        2.862     0.134    25.061     8.206
     7   8 O        1.706    -0.219    17.638     5.670
     8   6 C        3.644     0.025    20.493     6.507
     9   6 C        2.864     0.135    25.057     8.205
    10   8 O        1.706    -0.216    17.595     5.663
    11   6 C        3.645     0.024    20.505     6.508
    12   6 C        2.913    -0.068    29.683     8.934
    13   6 C        2.922    -0.044    29.088     8.845
    14   6 C        3.811    -0.066    21.753     6.639
    15   6 C        3.796    -0.073    21.902     6.664
    16   6 C        3.746    -0.031    21.200     6.568
    17   7 N        2.724    -0.142    24.068     7.286
    18   6 C        3.750     0.002    20.609     6.474
    19   6 C        2.903    -0.050    29.251     8.868
    20   6 C        2.960     0.016    27.654     8.625
    21   6 C        2.925    -0.036    28.889     8.814
    22   6 C        2.906    -0.061    29.515     8.908
    23   6 C        2.864     0.144    24.861     8.173
    24   8 O        1.706    -0.198    17.302     5.616
    25   6 C        3.645     0.019    20.584     6.521
    26   6 C        2.857     0.137    25.010     8.197
    27   8 O        1.706    -0.226    17.746     5.688
    28   6 C        3.645     0.027    20.463     6.502
    29   6 C        2.914    -0.077    29.920     8.970
    30   6 C        3.703    -0.041    21.467     6.625
    31   6 C        3.853    -0.007    20.669     6.466
    32   6 C        3.756    -0.117    22.790     6.807
    33   6 C        3.755    -0.120    22.851     6.816
    34   1 H        0.926     0.057     2.230     2.335
    35   1 H        0.924     0.057     2.238     2.339
    36   1 H        0.925     0.084     1.935     2.176
    37   1 H        0.924     0.053     2.278     2.360
    38   1 H        0.924     0.059     2.214     2.327
    39   1 H        0.925     0.084     1.933     2.174
    40   1 H        0.924     0.056     2.250     2.346
    41   1 H        0.926     0.059     2.216     2.328
    42   1 H        0.926     0.049     2.332     2.388
    43   1 H        0.925     0.053     2.278     2.360
    44   1 H        0.925     0.055     2.264     2.353
    45   1 H        0.925     0.053     2.283     2.363
    46   1 H        0.924     0.046     2.368     2.407
    47   1 H        0.923     0.045     2.380     2.413
    48   1 H        0.923     0.045     2.385     2.415
    49   1 H        0.924     0.053     2.286     2.364
    50   1 H        0.924     0.058     2.220     2.330
    51   1 H        0.926     0.049     2.336     2.390
    52   1 H        0.930     0.100     1.781     2.087
    53   1 H        0.926     0.059     2.206     2.323
    54   1 H        0.926     0.065     2.145     2.290
    55   1 H        0.924     0.064     2.151     2.293
    56   1 H        0.924     0.063     2.159     2.298
    57   1 H        0.925     0.089     1.888     2.149
    58   1 H        0.925     0.084     1.939     2.178
    59   1 H        0.924     0.052     2.292     2.368
    60   1 H        0.924     0.051     2.310     2.377
    61   1 H        0.926     0.053     2.282     2.362
    62   1 H        0.924     0.038     2.477     2.461
    63   1 H        0.925     0.056     2.247     2.344
    64   1 H        0.925     0.049     2.331     2.388
    65   1 H        0.924     0.040     2.448     2.447
    66   1 H        0.925     0.064     2.148     2.292
    67   1 H        0.925     0.036     2.505     2.475
    68   1 H        0.925     0.053     2.285     2.364
    69   1 H        0.925     0.068     2.103     2.268
    70   1 H        0.925     0.040     2.453     2.449
    71   1 H        0.925     0.056     2.248     2.345
    72   1 H        0.860     0.156     1.361     1.827

Wiberg/Mayer (AO) data.
largest (>0.10) Wiberg bond orders for each atom

     #   Z sym  total        # sym  WBO       # sym  WBO       # sym  WBO
 ---------------------------------------------------------------------------
     1   7 N    3.001 --     2 C    1.948    72 H    0.939
     2   6 C    3.926 --     1 N    1.948     3 C    0.990    47 H    0.914
     3   6 C    3.963 --     2 C    0.990     4 C    0.977    14 C    0.949
                            31 C    0.941
     4   6 C    3.924 --    13 C    1.389     5 C    1.381     3 C    0.977
     5   6 C    3.950 --     6 C    1.388     4 C    1.381    34 H    0.956
     6   6 C    3.881 --     5 C    1.388     9 C    1.210     7 O    1.111
     7   8 O    2.249 --     6 C    1.111     8 C    0.976
     8   6 C    3.927 --     7 O    0.976    36 H    0.976    37 H    0.972
                            35 H    0.972
     9   6 C    3.875 --    12 C    1.375     6 C    1.210    10 O    1.115
    10   8 O    2.248 --     9 C    1.115    11 C    0.975
    11   6 C    3.925 --    39 H    0.976    10 O    0.975    40 H    0.971
                            38 H    0.971
    12   6 C    3.950 --    13 C    1.421     9 C    1.375    41 H    0.962
    13   6 C    3.930 --    12 C    1.421     4 C    1.389    42 H    0.961
    14   6 C    3.982 --    15 C    1.008    44 H    0.967    43 H    0.966
                             3 C    0.949
    15   6 C    3.977 --    14 C    1.008    16 C    0.985    46 H    0.977
                            45 H    0.967
    16   6 C    3.958 --    15 C    0.985    17 N    0.982    52 H    0.973
                            48 H    0.968
    17   7 N    3.069 --    30 C    1.017    16 C    0.982    18 C    0.981
    18   6 C    3.972 --    19 C    1.026    17 N    0.981    49 H    0.961
                            50 H    0.947
    19   6 C    3.549 --    20 C    1.446    18 C    1.026    51 H    0.966
    20   6 C    3.975 --    19 C    1.446    29 C    1.212    21 C    1.211
    21   6 C    3.816 --    22 C    1.521    20 C    1.211    53 H    0.966
    22   6 C    3.966 --    21 C    1.521    23 C    1.315    54 H    0.961
    23   6 C    3.777 --    22 C    1.315    26 C    1.171    24 O    1.152
    24   8 O    2.266 --    23 C    1.152    25 C    0.969
    25   6 C    3.920 --    57 H    0.976    55 H    0.971    56 H    0.971
                            24 O    0.969
    26   6 C    3.911 --    29 C    1.475    23 C    1.171    27 O    1.103
    27   8 O    2.258 --    26 C    1.103    28 C    0.978
    28   6 C    3.930 --    27 O    0.978    58 H    0.976    60 H    0.973
                            59 H    0.973
    29   6 C    3.860 --    26 C    1.475    20 C    1.212    61 H    0.956
    30   6 C    3.970 --    17 N    1.017    64 H    0.979    63 H    0.977
                            62 H    0.965
    31   6 C    3.964 --    32 C    1.008    33 C    1.007    65 H    0.957
                             3 C    0.941
    32   6 C    3.973 --    31 C    1.008    68 H    0.980    67 H    0.980
                            66 H    0.973
    33   6 C    3.970 --    31 C    1.007    70 H    0.980    71 H    0.977
                            69 H    0.970
    34   1 H    0.995 --     5 C    0.956
    35   1 H    0.990 --     8 C    0.972
    36   1 H    0.992 --     8 C    0.976
    37   1 H    0.991 --     8 C    0.972
    38   1 H    0.989 --    11 C    0.971
    39   1 H    0.992 --    11 C    0.976
    40   1 H    0.990 --    11 C    0.971
    41   1 H    0.994 --    12 C    0.962
    42   1 H    0.996 --    13 C    0.961
    43   1 H    0.994 --    14 C    0.966
    44   1 H    0.995 --    14 C    0.967
    45   1 H    0.996 --    15 C    0.967
    46   1 H    0.996 --    15 C    0.977
    47   1 H    0.967 --     2 C    0.914
    48   1 H    0.997 --    16 C    0.968
    49   1 H    0.994 --    18 C    0.961
    50   1 H    0.979 --    18 C    0.947
    51   1 H    0.996 --    19 C    0.966
    52   1 H    0.982 --    16 C    0.973
    53   1 H    0.996 --    21 C    0.966
    54   1 H    0.993 --    22 C    0.961
    55   1 H    0.988 --    25 C    0.971
    56   1 H    0.988 --    25 C    0.971
    57   1 H    0.991 --    25 C    0.976
    58   1 H    0.992 --    28 C    0.976
    59   1 H    0.993 --    28 C    0.973
    60   1 H    0.993 --    28 C    0.973
    61   1 H    0.995 --    29 C    0.956
    62   1 H    0.978 --    30 C    0.965
    63   1 H    0.994 --    30 C    0.977
    64   1 H    0.995 --    30 C    0.979
    65   1 H    0.986 --    31 C    0.957
    66   1 H    0.989 --    32 C    0.973
    67   1 H    0.995 --    32 C    0.980
    68   1 H    0.993 --    32 C    0.980
    69   1 H    0.988 --    33 C    0.970
    70   1 H    0.995 --    33 C    0.980
    71   1 H    0.991 --    33 C    0.977
    72   1 H    0.965 --     1 N    0.939
 ---------------------------------------------------------------------------

molecular dipole:
                 x           y           z       tot (Debye)
 q only:        1.059      -0.025      -0.473
   full:        1.489      -0.140      -0.710       4.208

           -------------------------------------------------
          | TOTAL ENERGY             -102.037540398095 Eh   |
          | GRADIENT NORM               0.002917901996 Eh/α |
          | HOMO-LUMO GAP               1.087565504717 eV   |
           -------------------------------------------------

 * finished run on 2024/04/06 at 11:16:43.356
