   * xtb version 6.6.1 (8d0f1dd) compiled by 'conda@1efc2f54142f' on 2023-08-01
          program call               : xtb xtbopt.xyz --opt crude --input .xc2 --gfn2

   ID    Z sym.   atoms
    1    7 N      1, 17
    2    6 C      2-6, 8, 9, 11-16, 18-23, 25, 26, 28-33
    3    8 O      7, 10, 24, 27
    4    1 H      34-72
########################################################################
[WARNING] Please study the warnings concerning your input carefully
-1- readin_getIntValue: could not parse ''
########################################################################

          :  Hamiltonian                  GFN2-xTB          :
 * total energy  :   -99.2243131 Eh     change       -0.5229595E-11 Eh
 * total energy  :   -99.3854990 Eh     change       -0.1611859E+00 Eh
 * total energy  :   -99.3873802 Eh     change       -0.1881121E-02 Eh
 * total energy  :   -99.3882680 Eh     change       -0.8878929E-03 Eh
 * total energy  :   -99.3884905 Eh     change       -0.2224888E-03 Eh
   *** GEOMETRY OPTIMIZATION CONVERGED AFTER 5 ITERATIONS ***

 final structure:
================
72
 xtb: 6.6.1 (8d0f1dd)
N           -1.44904974303201        2.32922180511641        2.08239405669652
C           -1.65348618274566        1.50486708069658        1.16368538833516
C           -2.88744305758979        1.49814083878349        0.30385656301561
C           -3.48222277906553        0.10011812716449        0.29849680148651
C           -4.39360762306941       -0.28358713517917       -0.68395850858849
C           -5.00155280381254       -1.52984906277826       -0.66206118271254
O           -5.89218150422172       -1.97801136983402       -1.56605600888157
C           -6.30022326685522       -1.13507762606865       -2.61782156918474
C           -4.69552947569423       -2.44176006959800        0.38754124391087
O           -5.33822400837681       -3.62110747494063        0.33613261213069
C           -5.13447393074201       -4.56265703940546        1.36449741646699
C           -3.79018771556063       -2.05099749076766        1.36419417153330
C           -3.19782175270496       -0.79901954109197        1.32010950637848
C           -2.40493859389273        1.90429425388829       -1.11331409168715
C           -1.45744054427539        0.91069482336850       -1.80521740265048
C            0.04594099099846        1.23723953667112       -1.65922023196165
N            0.68736055802060        0.41811932365115       -0.64512538721300
C            1.73387108025013        1.07139916956300        0.13518543403638
C            2.94077446488563        1.44868300633485       -0.65994662979809
C            4.22203696665541        0.94240542586862       -0.53916798251523
C            5.26284366887686        1.50554135706425       -1.33170141581666
C            6.56371843649991        1.09284314626288       -1.21091529478432
C            6.91421925443506        0.07835152643897       -0.31433019471990
O            8.14563039323844       -0.39094370962600       -0.10811025177129
C            9.23823841529300        0.16965322301062       -0.80313516392189
C            5.88366987548799       -0.53735604578267        0.46818297451329
O            6.31728931505731       -1.52283757975385        1.27858713416913
C            5.39316854634121       -2.19848930588536        2.09809398369452
C            4.58541228544482       -0.10591069248818        0.35470591374468
C            1.06685027261596       -0.89157633606934       -1.12128452771510
C           -4.00145867499198        2.47589679247173        0.78651723134814
C           -4.47966063345129        2.12890264440489        2.19458023528272
C           -3.58902435925933        3.94483078813904        0.73982142269974
H           -4.64204246346634        0.40335177590441       -1.47532921910490
H           -6.77646983244037       -0.22517356507019       -2.24028949295655
H           -7.02662986902047       -1.71104093433663       -3.18790358584311
H           -5.46067409736093       -0.86807445821286       -3.26728655971779
H           -5.43487774316707       -4.16249275310221        2.33746412710304
H           -5.76638364504909       -5.41209695565184        1.11273029270004
H           -4.09063006726161       -4.88768983743166        1.40932318379534
H           -3.54720438845648       -2.71559654503685        2.17719040776388
H           -2.52231167783197       -0.51931911333348        2.11357777068782
H           -3.28890104492514        2.04232006749770       -1.73657499063456
H           -1.91595111771407        2.87586169185845       -1.04312722681791
H           -1.65115871191804       -0.09622066463531       -1.43119633931863
H           -1.69208828066808        0.91007744328744       -2.86977766235917
H           -0.93054128399770        0.73619177048801        0.85960502555669
H            0.15350008156876        2.28592572745356       -1.36961921121286
H            1.99392396196982        0.40299833719506        0.95830698292831
H            1.29863303195867        1.98322417530344        0.56152479611938
H            2.77502403396883        2.20962197788704       -1.40945535074462
H            0.53598638554059        1.10124794979258       -2.62560136805449
H            5.01512407006587        2.29175448364485       -2.02765635030538
H            7.32416819443351        1.55976548625836       -1.81598836277523
H            9.35443772344779        1.23191460433914       -0.56992235762843
H            9.13420896268042        0.04038887685488       -1.88399575831768
H           10.11463101872032       -0.37487732208335       -0.45667846143125
H            5.97654497075243       -2.92930910084399        2.65463034535603
H            4.90508210258445       -1.51485388731653        2.79962706651618
H            4.63579838451042       -2.71789297746824        1.50235006126276
H            3.81759517568078       -0.57351726459575        0.94720034612614
H            1.91316736757947       -0.84999091227109       -1.81974958716072
H            0.22202020863473       -1.34877791948994       -1.63187308891309
H            1.34478134671388       -1.52138874808128       -0.27714171843702
H           -4.84653838269282        2.33697413813638        0.10098957025938
H           -3.67442793000137        2.27703762529460        2.90835274201143
H           -4.82237514333693        1.09861298083930        2.25431048345971
H           -5.30589415057991        2.77870705950062        2.47099718282430
H           -2.69401895230416        4.10042809161736        1.33480749430181
H           -3.41306272090423        4.28695208607852       -0.27624613182516
H           -4.38698048468365        4.55256110575756        1.15902417572108
H           -0.57144731078521        2.27451263689703        2.58944936616309

          :  Hamiltonian                  GFN2-xTB          :
         :: total energy             -99.388490539145 Eh    ::
         :: gradient norm              0.007920468646 Eh/a0 ::
         :: HOMO-LUMO gap              1.088161773186 eV    ::
         :: SCC energy              -100.756324151862 Eh    ::
         :: -> dispersion             -0.074972316629 Eh    ::
         :: repulsion energy           1.366610582263 Eh    ::

    * Orbital Energies and Occupations

         #    Occupation            Energy/Eh            Energy/eV
      -------------------------------------------------------------
         1        2.0000           -0.8226046             -22.3842
       ...           ...                  ...                  ...
        78        1.9967           -0.5303788             -14.4323
        79        1.9967           -0.5299782             -14.4214
        80        1.9961           -0.5274630             -14.3530
        81        1.9941           -0.5208937             -14.1742
        82        1.9910           -0.5142454             -13.9933
        83        1.9905           -0.5133661             -13.9694
        84        1.9877           -0.5092248             -13.8567
        85        1.9865           -0.5077991             -13.8179
        86        1.9632           -0.4916953             -13.3797
        87        1.9231           -0.4796957             -13.0532
        88        1.8994           -0.4752529             -12.9323
        89        1.7762           -0.4615273             -12.5588
        90        1.7617           -0.4604073             -12.5283 (HOMO)
        91        0.7435           -0.4204180             -11.4402 (LUMO)
        92        0.0061           -0.3370640              -9.1720
        93        0.0019           -0.3181651              -8.6577
        94        0.0017           -0.3172385              -8.6325
        95        0.0015           -0.3149769              -8.5710
        96        0.0005           -0.2971303              -8.0853
        97        0.0000           -0.1924005              -5.2355
        98        0.0000           -0.1895673              -5.1584
        99                         -0.0971204              -2.6428
       100                         -0.0722873              -1.9670
       101                         -0.0671135              -1.8263
       ...                                ...                  ...
       171                          0.5803399              15.7919
      -------------------------------------------------------------
                  HL-Gap            0.0399892 Eh            1.0882 eV

     #   Z          covCN         q      C6AA      α(0)
     1   7 N        1.774    -0.264    27.689     7.792
     2   6 C        2.830     0.099    25.802     8.324
     3   6 C        3.908     0.008    20.379     6.417
     4   6 C        2.975     0.009    27.811     8.650
     5   6 C        2.919    -0.074    29.859     8.961
     6   6 C        2.862     0.134    25.060     8.205
     7   8 O        1.706    -0.219    17.635     5.670
     8   6 C        3.644     0.025    20.493     6.507
     9   6 C        2.864     0.135    25.057     8.205
    10   8 O        1.706    -0.216    17.594     5.663
    11   6 C        3.645     0.024    20.505     6.508
    12   6 C        2.913    -0.068    29.683     8.934
    13   6 C        2.922    -0.044    29.087     8.844
    14   6 C        3.811    -0.066    21.750     6.638
    15   6 C        3.798    -0.070    21.848     6.655
    16   6 C        3.748    -0.003    20.698     6.489
    17   7 N        2.725    -0.127    23.763     7.240
    18   6 C        3.751     0.000    20.637     6.478
    19   6 C        2.903    -0.050    29.232     8.865
    20   6 C        2.960     0.016    27.649     8.625
    21   6 C        2.925    -0.035    28.883     8.813
    22   6 C        2.906    -0.061    29.513     8.908
    23   6 C        2.864     0.144    24.860     8.173
    24   8 O        1.706    -0.197    17.294     5.615
    25   6 C        3.645     0.020    20.583     6.520
    26   6 C        2.857     0.137    25.008     8.197
    27   8 O        1.706    -0.226    17.745     5.688
    28   6 C        3.645     0.026    20.467     6.502
    29   6 C        2.914    -0.077    29.921     8.970
    30   6 C        3.705    -0.042    21.480     6.626
    31   6 C        3.853    -0.007    20.667     6.466
    32   6 C        3.756    -0.117    22.785     6.806
    33   6 C        3.755    -0.120    22.849     6.816
    34   1 H        0.926     0.057     2.231     2.336
    35   1 H        0.924     0.057     2.238     2.339
    36   1 H        0.925     0.084     1.935     2.175
    37   1 H        0.924     0.054     2.277     2.360
    38   1 H        0.924     0.059     2.215     2.327
    39   1 H        0.925     0.085     1.933     2.174
    40   1 H        0.924     0.056     2.250     2.346
    41   1 H        0.926     0.059     2.216     2.328
    42   1 H        0.926     0.049     2.335     2.390
    43   1 H        0.924     0.053     2.277     2.360
    44   1 H        0.925     0.055     2.264     2.353
    45   1 H        0.924     0.053     2.285     2.364
    46   1 H        0.925     0.049     2.328     2.386
    47   1 H        0.923     0.045     2.384     2.415
    48   1 H        0.924     0.050     2.319     2.381
    49   1 H        0.924     0.054     2.275     2.359
    50   1 H        0.924     0.059     2.213     2.326
    51   1 H        0.926     0.049     2.328     2.386
    52   1 H        0.924     0.041     2.441     2.443
    53   1 H        0.926     0.060     2.202     2.321
    54   1 H        0.926     0.065     2.142     2.289
    55   1 H        0.924     0.064     2.152     2.294
    56   1 H        0.924     0.064     2.157     2.297
    57   1 H        0.925     0.089     1.888     2.149
    58   1 H        0.925     0.084     1.938     2.177
    59   1 H        0.924     0.052     2.290     2.367
    60   1 H        0.924     0.051     2.308     2.376
    61   1 H        0.926     0.053     2.281     2.362
    62   1 H        0.923     0.039     2.466     2.456
    63   1 H        0.925     0.057     2.232     2.337
    64   1 H        0.925     0.050     2.323     2.383
    65   1 H        0.924     0.040     2.449     2.447
    66   1 H        0.925     0.064     2.151     2.293
    67   1 H        0.925     0.036     2.505     2.475
    68   1 H        0.925     0.053     2.285     2.364
    69   1 H        0.925     0.068     2.103     2.268
    70   1 H        0.925     0.040     2.453     2.449
    71   1 H        0.925     0.056     2.248     2.344
    72   1 H        0.860     0.156     1.361     1.828

Wiberg/Mayer (AO) data.
largest (>0.10) Wiberg bond orders for each atom

     #   Z sym  total        # sym  WBO       # sym  WBO       # sym  WBO
 ---------------------------------------------------------------------------
     1   7 N    3.001 --     2 C    1.948    72 H    0.939
     2   6 C    3.925 --     1 N    1.948     3 C    0.991    47 H    0.914
     3   6 C    3.963 --     2 C    0.991     4 C    0.977    14 C    0.949
                            31 C    0.940
     4   6 C    3.924 --    13 C    1.389     5 C    1.381     3 C    0.977
     5   6 C    3.950 --     6 C    1.388     4 C    1.381    34 H    0.956
     6   6 C    3.881 --     5 C    1.388     9 C    1.209     7 O    1.111
     7   8 O    2.249 --     6 C    1.111     8 C    0.976
     8   6 C    3.927 --     7 O    0.976    36 H    0.976    37 H    0.972
                            35 H    0.972
     9   6 C    3.875 --    12 C    1.375     6 C    1.209    10 O    1.115
    10   8 O    2.248 --     9 C    1.115    11 C    0.975
    11   6 C    3.925 --    39 H    0.976    10 O    0.975    40 H    0.971
                            38 H    0.971
    12   6 C    3.950 --    13 C    1.421     9 C    1.375    41 H    0.962
    13   6 C    3.929 --    12 C    1.421     4 C    1.389    42 H    0.961
    14   6 C    3.982 --    15 C    1.005    44 H    0.967    43 H    0.966
                             3 C    0.949
    15   6 C    3.979 --    14 C    1.005    16 C    0.991    46 H    0.977
                            45 H    0.967
    16   6 C    3.969 --    17 N    1.000    15 C    0.991    48 H    0.969
                            52 H    0.962
    17   7 N    3.087 --    30 C    1.016    16 C    1.000    18 C    0.979
    18   6 C    3.971 --    19 C    1.026    17 N    0.979    49 H    0.962
                            50 H    0.947
    19   6 C    3.550 --    20 C    1.448    18 C    1.026    51 H    0.966
    20   6 C    3.975 --    19 C    1.448    29 C    1.212    21 C    1.211
    21   6 C    3.816 --    22 C    1.522    20 C    1.211    53 H    0.966
    22   6 C    3.966 --    21 C    1.522    23 C    1.314    54 H    0.960
    23   6 C    3.777 --    22 C    1.314    26 C    1.171    24 O    1.152
    24   8 O    2.266 --    23 C    1.152    25 C    0.969
    25   6 C    3.920 --    57 H    0.976    55 H    0.971    56 H    0.970
                            24 O    0.969
    26   6 C    3.911 --    29 C    1.475    23 C    1.171    27 O    1.103
    27   8 O    2.258 --    26 C    1.103    28 C    0.977
    28   6 C    3.930 --    27 O    0.977    58 H    0.976    60 H    0.973
                            59 H    0.973
    29   6 C    3.860 --    26 C    1.475    20 C    1.212    61 H    0.956
    30   6 C    3.970 --    17 N    1.016    64 H    0.979    63 H    0.977
                            62 H    0.965
    31   6 C    3.964 --    32 C    1.008    33 C    1.007    65 H    0.957
                             3 C    0.940
    32   6 C    3.973 --    31 C    1.008    68 H    0.980    67 H    0.980
                            66 H    0.973
    33   6 C    3.969 --    31 C    1.007    70 H    0.980    71 H    0.977
                            69 H    0.970
    34   1 H    0.995 --     5 C    0.956
    35   1 H    0.990 --     8 C    0.972
    36   1 H    0.992 --     8 C    0.976
    37   1 H    0.990 --     8 C    0.972
    38   1 H    0.989 --    11 C    0.971
    39   1 H    0.992 --    11 C    0.976
    40   1 H    0.990 --    11 C    0.971
    41   1 H    0.994 --    12 C    0.962
    42   1 H    0.996 --    13 C    0.961
    43   1 H    0.994 --    14 C    0.966
    44   1 H    0.995 --    14 C    0.967
    45   1 H    0.996 --    15 C    0.967
    46   1 H    0.995 --    15 C    0.977
    47   1 H    0.967 --     2 C    0.914
    48   1 H    0.997 --    16 C    0.969
    49   1 H    0.994 --    18 C    0.962
    50   1 H    0.979 --    18 C    0.947
    51   1 H    0.996 --    19 C    0.966
    52   1 H    0.982 --    16 C    0.962
    53   1 H    0.996 --    21 C    0.966
    54   1 H    0.993 --    22 C    0.960
    55   1 H    0.988 --    25 C    0.971
    56   1 H    0.988 --    25 C    0.970
    57   1 H    0.991 --    25 C    0.976
    58   1 H    0.992 --    28 C    0.976
    59   1 H    0.993 --    28 C    0.973
    60   1 H    0.993 --    28 C    0.973
    61   1 H    0.995 --    29 C    0.956
    62   1 H    0.979 --    30 C    0.965
    63   1 H    0.994 --    30 C    0.977
    64   1 H    0.995 --    30 C    0.979
    65   1 H    0.986 --    31 C    0.957
    66   1 H    0.989 --    32 C    0.973
    67   1 H    0.995 --    32 C    0.980
    68   1 H    0.993 --    32 C    0.980
    69   1 H    0.988 --    33 C    0.970
    70   1 H    0.995 --    33 C    0.980
    71   1 H    0.991 --    33 C    0.977
    72   1 H    0.965 --     1 N    0.939
 ---------------------------------------------------------------------------

molecular dipole:
                 x           y           z       tot (Debye)
 q only:        1.054      -0.050      -0.388
   full:        1.480      -0.156      -0.649       4.127

           -------------------------------------------------
          | TOTAL ENERGY              -99.388490539145 Eh   |
          | GRADIENT NORM               0.007920468646 Eh/α |
          | HOMO-LUMO GAP               1.088161773186 eV   |
           -------------------------------------------------

 * finished run on 2024/04/06 at 11:16:44.478
