   * xtb version 6.6.1 (8d0f1dd) compiled by 'conda@1efc2f54142f' on 2023-08-01
          program call               : xtb struc.xyz --opt loose --input .xc1 --gfn2

   ID    Z sym.   atoms
    1    6 C      1, 3, 5-7, 10, 11, 14
    2    7 N      2, 4, 9, 13
    3    8 O      8, 12
    4    1 H      15-25
constraining bond 9 12 to    4.6800000 Å, actual value:    2.2666725 Å

          :  Hamiltonian                  GFN2-xTB          :
 * total energy  :   -31.8460771 Eh     change       -0.6633627E-10 Eh
 * total energy  :   -35.7146080 Eh     change       -0.3868531E+01 Eh
 * total energy  :   -38.6516878 Eh     change       -0.2937080E+01 Eh
 * total energy  :   -40.5198395 Eh     change       -0.1868152E+01 Eh
 * total energy  :   -41.4461571 Eh     change       -0.9263176E+00 Eh
 * total energy  :   -41.6405504 Eh     change       -0.1943932E+00 Eh
 * total energy  :   -41.6545660 Eh     change       -0.1401568E-01 Eh
 * total energy  :   -41.6881687 Eh     change       -0.3360269E-01 Eh
 * total energy  :   -41.7081571 Eh     change       -0.1998832E-01 Eh
 * total energy  :   -41.7229359 Eh     change       -0.1477888E-01 Eh
 * total energy  :   -42.0476887 Eh     change       -0.5768711E-02 Eh
 * total energy  :   -42.0482588 Eh     change       -0.5700592E-03 Eh
 * total energy  :   -42.0503239 Eh     change       -0.2065171E-02 Eh
 * total energy  :   -42.0511741 Eh     change       -0.8502113E-03 Eh
 * total energy  :   -42.0515863 Eh     change       -0.4121857E-03 Eh
 * total energy  :   -42.0518275 Eh     change       -0.2411823E-03 Eh
 * total energy  :   -42.0519254 Eh     change       -0.9787829E-04 Eh
 * total energy  :   -42.0519912 Eh     change       -0.6578804E-04 Eh
 * total energy  :   -42.0520218 Eh     change       -0.3059823E-04 Eh
   *** GEOMETRY OPTIMIZATION CONVERGED AFTER 92 ITERATIONS ***

 final structure:
================
25
 xtb: 6.6.1 (8d0f1dd)
C            2.98094906357493        1.02027124408229       -0.04068787233469
N            2.03734251475820       -0.02130334797742       -0.33549403111499
C            2.28742806584569       -1.21527244737951       -0.81410210285105
N            1.19356000056534       -1.94356571158231       -0.95501788638745
C            0.02455821595951       -1.15787202352133       -0.61059872145021
C            0.64288072325295        0.10916245584970       -0.11351356362650
C            0.08943318085521        1.16791499230510        0.45516877539531
O            0.42623155497627        2.33698575556163        1.00621062047342
N           -0.95759396466195        1.81567899784237        1.04104541394207
C           -1.91339261383690        2.56196401462968        0.26426956775343
C           -1.33467815332036       -1.42226917534992       -1.26422965238731
O           -1.99856095974609       -1.35849386612850       -2.23495000480746
N           -1.12816892301053       -1.79880240675189       -0.02992387465918
C           -1.59694558944832       -2.37800487585632        1.19373706285872
H            2.87226390395724        1.34271903789545        0.99570767653962
H            3.99278723673207        0.65769562655374       -0.20481599360015
H            2.79728133622746        1.88372716769305       -0.68264087885309
H            3.27593503483514       -1.56476966086497       -1.06086684298463
H           -2.22954945299551        3.41266784459379        0.86531062624967
H           -1.52528772434478        2.90707843140012       -0.69628895061218
H           -2.76605555089963        1.90343002322804        0.10507602956985
H           -1.47520923946383       -1.66618453232891        2.01235613802401
H           -1.03676432744827       -3.28730935860621        1.41836717706145
H           -2.65102519705778       -2.62072750757105        1.07612789182481
H            1.15301237879496       -2.86648213611523       -1.35907498612358

          :  Hamiltonian                  GFN2-xTB          :
         :: total energy             -42.052021779083 Eh    ::
         :: gradient norm              0.003355727763 Eh/a0 ::
         :: HOMO-LUMO gap              2.432727246305 eV    ::
         :: SCC energy               -42.575736277723 Eh    ::
         :: -> dispersion             -0.020861845468 Eh    ::
         :: repulsion energy           0.523446687951 Eh    ::

    * Orbital Energies and Occupations

         #    Occupation            Energy/Eh            Energy/eV
      -------------------------------------------------------------
         1        2.0000           -0.9093154             -24.7437
       ...           ...                  ...                  ...
        25        2.0000           -0.6792079             -18.4822
        26        2.0000           -0.6645864             -18.0843
        27        2.0000           -0.6625187             -18.0281
        28        2.0000           -0.6557102             -17.8428
        29        2.0000           -0.6426328             -17.4869
        30        2.0000           -0.6237920             -16.9742
        31        2.0000           -0.6195893             -16.8599
        32        2.0000           -0.6134065             -16.6916
        33        2.0000           -0.6007633             -16.3476
        34        2.0000           -0.5803146             -15.7912
        35        2.0000           -0.5676891             -15.4476
        36        1.9996           -0.5485471             -14.9267
        37        1.9932           -0.5265920             -14.3293 (HOMO)
        38        0.0073           -0.4371909             -11.8966 (LUMO)
        39        0.0000           -0.3675969             -10.0028
        40        0.0000           -0.3581276              -9.7451
        41                         -0.3239398              -8.8149
        42                         -0.2263756              -6.1600
        43                         -0.2175021              -5.9185
        44                         -0.1995508              -5.4301
        45                         -0.1734755              -4.7205
        46                         -0.1395575              -3.7976
        47                         -0.1038177              -2.8250
        48                         -0.0683841              -1.8608
       ...                                ...                  ...
        67                          0.7918554              21.5475
      -------------------------------------------------------------
                  HL-Gap            0.0894011 Eh            2.4327 eV

     #   Z          covCN         q      C6AA      α(0)
     1   6 C        3.692    -0.085    22.320     6.760
     2   7 N        2.797     0.053    20.317     6.695
     3   6 C        2.940     0.101    25.764     8.325
     4   7 N        2.756    -0.095    23.105     7.139
     5   6 C        3.858     0.075    19.295     6.247
     6   6 C        3.014    -0.020    28.477     8.754
     7   6 C        2.760     0.199    23.768     7.984
     8   8 O        1.746    -0.220    17.647     5.672
     9   7 N        2.710    -0.029    21.805     6.935
    10   6 C        3.690    -0.055    21.758     6.675
    11   6 C        2.741     0.292    22.039     7.687
    12   8 O        0.856    -0.287    19.550     5.928
    13   7 N        2.727    -0.079    22.769     7.087
    14   6 C        3.682    -0.061    21.895     6.701
    15   1 H        0.924     0.115     1.657     2.013
    16   1 H        0.925     0.101     1.778     2.085
    17   1 H        0.924     0.110     1.695     2.036
    18   1 H        0.926     0.125     1.576     1.963
    19   1 H        0.925     0.102     1.764     2.077
    20   1 H        0.924     0.064     2.151     2.294
    21   1 H        0.925     0.089     1.892     2.151
    22   1 H        0.924     0.089     1.893     2.151
    23   1 H        0.924     0.088     1.898     2.155
    24   1 H        0.925     0.105     1.736     2.061
    25   1 H        0.860     0.224     0.992     1.560

Wiberg/Mayer (AO) data.
largest (>0.10) Wiberg bond orders for each atom

     #   Z sym  total        # sym  WBO       # sym  WBO       # sym  WBO
 ---------------------------------------------------------------------------
     1   6 C    3.928 --     2 N    0.990    16 H    0.974    15 H    0.959
                            17 H    0.959
     2   7 N    3.678 --     3 C    1.438     6 C    1.020     1 C    0.990
                             4 N    0.152
     3   6 C    3.947 --     2 N    1.438     4 N    1.390    18 H    0.945
     4   7 N    3.556 --     3 C    1.390     5 C    0.968    25 H    0.923
                             2 N    0.152
     5   6 C    3.863 --     6 C    0.997     4 N    0.968    13 N    0.901
                            11 C    0.766
     6   6 C    3.917 --     7 C    1.636     2 N    1.020     5 C    0.997
     7   6 C    3.917 --     6 C    1.636     9 N    1.057     8 O    1.027
     8   8 O    2.099 --     7 C    1.027     9 N    0.880
     9   7 N    3.058 --     7 C    1.057    10 C    1.002     8 O    0.880
    10   6 C    3.950 --     9 N    1.002    20 H    0.976    19 H    0.969
                            21 H    0.958
    11   6 C    3.944 --    12 O    1.808    13 N    1.252     5 C    0.766
    12   8 O    2.227 --    11 C    1.808    13 N    0.253
    13   7 N    3.498 --    11 C    1.252    14 C    0.977     5 C    0.901
                            12 O    0.253
    14   6 C    3.939 --    13 N    0.977    22 H    0.967    23 H    0.966
                            24 H    0.966
    15   1 H    0.986 --     1 C    0.959
    16   1 H    0.989 --     1 C    0.974
    17   1 H    0.987 --     1 C    0.959
    18   1 H    0.983 --     3 C    0.945
    19   1 H    0.988 --    10 C    0.969
    20   1 H    0.995 --    10 C    0.976
    21   1 H    0.992 --    10 C    0.958
    22   1 H    0.992 --    14 C    0.967
    23   1 H    0.992 --    14 C    0.966
    24   1 H    0.988 --    14 C    0.966
    25   1 H    0.949 --     4 N    0.923
 ---------------------------------------------------------------------------

molecular dipole:
                 x           y           z       tot (Debye)
 q only:        1.929      -1.413       0.053
   full:        2.235      -1.608      -0.124       7.004

           -------------------------------------------------
          | TOTAL ENERGY              -42.052021779083 Eh   |
          | GRADIENT NORM               0.003355727763 Eh/α |
          | HOMO-LUMO GAP               2.432727246305 eV   |
           -------------------------------------------------

 * finished run on 2024/06/05 at 19:58:05.567
