   * xtb version 6.6.1 (8d0f1dd) compiled by 'conda@1efc2f54142f' on 2023-08-01
          program call               : xtb xtbopt.xyz --opt crude --input .xc2 --gfn2

   ID    Z sym.   atoms
    1    6 C      1, 3, 5-7, 10, 11, 14
    2    7 N      2, 4, 9, 13
    3    8 O      8, 12
    4    1 H      15-25
########################################################################
[WARNING] Please study the warnings concerning your input carefully
-1- readin_getIntValue: could not parse ''
########################################################################

          :  Hamiltonian                  GFN2-xTB          :
 * total energy  :   -42.0520244 Eh     change        0.9947598E-13 Eh
 * total energy  :   -42.0521334 Eh     change       -0.1090741E-03 Eh
 * total energy  :   -42.0525064 Eh     change       -0.3729910E-03 Eh
   *** GEOMETRY OPTIMIZATION CONVERGED AFTER 3 ITERATIONS ***

 final structure:
================
25
 xtb: 6.6.1 (8d0f1dd)
C            2.98853319988714        1.01463734155322       -0.03482665013208
N            2.04589341911997       -0.02672258459086       -0.33420255759271
C            2.29313074557642       -1.21841888830829       -0.81915967452634
N            1.19763126049396       -1.94408958419176       -0.96594619799122
C            0.03296611758473       -1.15890336198854       -0.60537598621214
C            0.65188397776262        0.10406355613929       -0.11225661158904
C            0.08706742748478        1.15398753505223        0.45476446067696
O            0.40244908030005        2.32352660031965        1.01548585722281
N           -0.97776710958687        1.78853294610993        1.01974257223675
C           -1.92226945708285        2.54414854656641        0.23914003245222
C           -1.34135075083697       -1.38213722937327       -1.23880239720840
O           -2.03690639349863       -1.24010051922399       -2.18088042556709
N           -1.11484522871034       -1.80355423346330       -0.02020991354984
C           -1.58582794790494       -2.37886303734083        1.20327458648410
H            2.87937390108660        1.33118550966459        1.00308282772305
H            4.00022669781217        0.65448966752630       -0.20235376446362
H            2.80201432408765        1.88084153067171       -0.67203193014162
H            3.28085451947070       -1.56692349383526       -1.06913182252637
H           -2.24231004058269        3.39059806394419        0.84460265233504
H           -1.52190093986213        2.89964318246121       -0.71306718452074
H           -2.77374129075852        1.88858954196712        0.06403273656198
H           -1.47002492049487       -1.66133652873711        2.01536608281307
H           -1.02603542193140       -3.28573286639650        1.43446472247547
H           -2.63851065382303       -2.62515797303060        1.08086118939201
H            1.14989699850725       -2.86406517989424       -1.37540098645228

          :  Hamiltonian                  GFN2-xTB          :
         :: total energy             -42.052506430967 Eh    ::
         :: gradient norm              0.005702653674 Eh/a0 ::
         :: HOMO-LUMO gap              2.424146783926 eV    ::
         :: SCC energy               -42.577526689264 Eh    ::
         :: -> dispersion             -0.020946528853 Eh    ::
         :: repulsion energy           0.524754369573 Eh    ::

    * Orbital Energies and Occupations

         #    Occupation            Energy/Eh            Energy/eV
      -------------------------------------------------------------
         1        2.0000           -0.9093938             -24.7459
       ...           ...                  ...                  ...
        25        2.0000           -0.6788651             -18.4729
        26        2.0000           -0.6646097             -18.0850
        27        2.0000           -0.6625643             -18.0293
        28        2.0000           -0.6556773             -17.8419
        29        2.0000           -0.6429509             -17.4956
        30        2.0000           -0.6240128             -16.9803
        31        2.0000           -0.6197346             -16.8638
        32        2.0000           -0.6130323             -16.6815
        33        2.0000           -0.6006341             -16.3441
        34        2.0000           -0.5800976             -15.7853
        35        2.0000           -0.5673832             -15.4393
        36        1.9996           -0.5483204             -14.9206
        37        1.9931           -0.5265697             -14.3287 (HOMO)
        38        0.0074           -0.4374839             -11.9045 (LUMO)
        39        0.0000           -0.3688309             -10.0364
        40        0.0000           -0.3567020              -9.7064
        41                         -0.3246252              -8.8335
        42                         -0.2266917              -6.1686
        43                         -0.2163799              -5.8880
        44                         -0.1983943              -5.3986
        45                         -0.1721761              -4.6852
        46                         -0.1392971              -3.7905
        47                         -0.1027920              -2.7971
        48                         -0.0673137              -1.8317
       ...                                ...                  ...
        67                          0.7841392              21.3375
      -------------------------------------------------------------
                  HL-Gap            0.0890858 Eh            2.4241 eV

     #   Z          covCN         q      C6AA      α(0)
     1   6 C        3.692    -0.085    22.319     6.760
     2   7 N        2.797     0.053    20.312     6.694
     3   6 C        2.943     0.101    25.760     8.324
     4   7 N        2.756    -0.095    23.099     7.138
     5   6 C        3.861     0.076    19.280     6.244
     6   6 C        3.016    -0.020    28.489     8.755
     7   6 C        2.759     0.199    23.751     7.981
     8   8 O        1.746    -0.220    17.651     5.673
     9   7 N        2.709    -0.030    21.823     6.938
    10   6 C        3.690    -0.055    21.756     6.675
    11   6 C        2.741     0.291    22.062     7.691
    12   8 O        0.856    -0.288    19.571     5.931
    13   7 N        2.727    -0.080    22.787     7.090
    14   6 C        3.682    -0.061    21.894     6.700
    15   1 H        0.924     0.115     1.657     2.013
    16   1 H        0.925     0.101     1.776     2.084
    17   1 H        0.924     0.110     1.694     2.035
    18   1 H        0.926     0.125     1.575     1.962
    19   1 H        0.925     0.103     1.761     2.075
    20   1 H        0.924     0.064     2.148     2.292
    21   1 H        0.925     0.089     1.885     2.147
    22   1 H        0.925     0.089     1.893     2.151
    23   1 H        0.924     0.088     1.895     2.153
    24   1 H        0.925     0.105     1.737     2.061
    25   1 H        0.860     0.224     0.991     1.559

Wiberg/Mayer (AO) data.
largest (>0.10) Wiberg bond orders for each atom

     #   Z sym  total        # sym  WBO       # sym  WBO       # sym  WBO
 ---------------------------------------------------------------------------
     1   6 C    3.928 --     2 N    0.990    16 H    0.974    15 H    0.960
                            17 H    0.959
     2   7 N    3.678 --     3 C    1.438     6 C    1.019     1 C    0.990
                             4 N    0.152
     3   6 C    3.946 --     2 N    1.438     4 N    1.389    18 H    0.945
     4   7 N    3.556 --     3 C    1.389     5 C    0.968    25 H    0.923
                             2 N    0.152
     5   6 C    3.866 --     6 C    0.998     4 N    0.968    13 N    0.900
                            11 C    0.769
     6   6 C    3.918 --     7 C    1.636     2 N    1.019     5 C    0.998
     7   6 C    3.918 --     6 C    1.636     9 N    1.058     8 O    1.027
     8   8 O    2.098 --     7 C    1.027     9 N    0.879
     9   7 N    3.058 --     7 C    1.058    10 C    1.002     8 O    0.879
    10   6 C    3.950 --     9 N    1.002    20 H    0.976    19 H    0.969
                            21 H    0.957
    11   6 C    3.944 --    12 O    1.807    13 N    1.250     5 C    0.769
    12   8 O    2.225 --    11 C    1.807    13 N    0.253
    13   7 N    3.496 --    11 C    1.250    14 C    0.977     5 C    0.900
                            12 O    0.253
    14   6 C    3.939 --    13 N    0.977    23 H    0.967    22 H    0.967
                            24 H    0.966
    15   1 H    0.986 --     1 C    0.960
    16   1 H    0.989 --     1 C    0.974
    17   1 H    0.987 --     1 C    0.959
    18   1 H    0.983 --     3 C    0.945
    19   1 H    0.988 --    10 C    0.969
    20   1 H    0.995 --    10 C    0.976
    21   1 H    0.992 --    10 C    0.957
    22   1 H    0.992 --    14 C    0.967
    23   1 H    0.992 --    14 C    0.967
    24   1 H    0.988 --    14 C    0.966
    25   1 H    0.949 --     4 N    0.923
 ---------------------------------------------------------------------------

molecular dipole:
                 x           y           z       tot (Debye)
 q only:        1.970      -1.454       0.027
   full:        2.284      -1.657      -0.152       7.183

           -------------------------------------------------
          | TOTAL ENERGY              -42.052506430967 Eh   |
          | GRADIENT NORM               0.005702653674 Eh/α |
          | HOMO-LUMO GAP               2.424146783926 eV   |
           -------------------------------------------------

 * finished run on 2024/06/05 at 19:58:05.772
