   * xtb version 6.6.1 (8d0f1dd) compiled by 'conda@1efc2f54142f' on 2023-08-01
          program call               : xtb struc.xyz --opt loose --input .xc1 --gfn2

   ID    Z sym.   atoms
    1    6 C      1, 3, 5-7, 10, 11, 14
    2    7 N      2, 4, 9, 13
    3    8 O      8, 12
    4    1 H      15-25
constraining bond 5 18 to    3.7133300 Å, actual value:    3.2287314 Å

          :  Hamiltonian                  GFN2-xTB          :
 * total energy  :   -42.6793572 Eh     change       -0.2401990E-09 Eh
 * total energy  :   -44.5383092 Eh     change       -0.1858952E+01 Eh
 * total energy  :   -47.1877217 Eh     change       -0.2649413E+01 Eh
 * total energy  :   -50.5090428 Eh     change       -0.3321321E+01 Eh
 * total energy  :   -54.2368790 Eh     change       -0.3727836E+01 Eh
 * total energy  :   -57.1770076 Eh     change       -0.2940129E+01 Eh
 * total energy  :   -58.1565346 Eh     change       -0.9795270E+00 Eh
 * total energy  :   -58.9503481 Eh     change       -0.7938135E+00 Eh
 * total energy  :   -56.7907552 Eh     change        0.2159593E+01 Eh
 * total energy  :   -59.2003806 Eh     change       -0.2409625E+01 Eh
 * total energy  :   -59.6333666 Eh     change       -0.8287499E-04 Eh
 * total energy  :   -59.6334455 Eh     change       -0.7888979E-04 Eh
 * total energy  :   -59.6335191 Eh     change       -0.7354944E-04 Eh
 * total energy  :   -59.6335832 Eh     change       -0.6407654E-04 Eh
 * total energy  :   -59.6336293 Eh     change       -0.4610179E-04 Eh
 * total energy  :   -59.6336638 Eh     change       -0.3458559E-04 Eh
 * total energy  :   -59.6337027 Eh     change       -0.3881759E-04 Eh
 * total energy  :   -59.6337294 Eh     change       -0.2675084E-04 Eh
 * total energy  :   -59.6337522 Eh     change       -0.2282993E-04 Eh
   *** GEOMETRY OPTIMIZATION CONVERGED AFTER 82 ITERATIONS ***

 final structure:
================
25
 xtb: 6.6.1 (8d0f1dd)
C            3.24068408545125        1.17734783100765        0.56984094846176
N            2.37705044775475        0.23547613117997       -0.02995720914614
C            2.64209750778408       -1.00424860752705       -0.71448199607680
N            1.98546997657452       -2.02292919416510       -0.03608295574883
C            1.07652227841903       -1.20487605192463       -0.92829832989229
C            1.05391213353673        0.14928907816189       -0.21682648637008
C            0.10834406237831        1.22997439380205       -0.03209648920728
O            0.52004759396879        2.35743015957814        0.21432758014854
N           -1.24032931821380        0.98073970656002       -0.18815077999327
C           -2.12618760950641        2.11571726417634       -0.29980397058371
C           -1.88310347827683       -0.27771520228842       -0.09608860539950
O           -3.08120847939727       -0.34250323015961       -0.31870943262521
N           -1.10582846911287       -1.28816120904369        0.27405710344225
C           -1.58766642605316       -2.58343805932390        0.50785828957148
H            3.72736599598297        0.73805340409466        1.44833231025451
H            4.02633660355873        1.45968837029096       -0.13789208933109
H            2.66905320481004        2.06328375312684        0.85654632722781
H            0.82513328791926       -1.35542709480873       -1.23481156976724
H           -1.53515810015901        3.01956161469779       -0.44342616926565
H           -2.80895843311953        1.95801490655219       -1.13911555754173
H           -2.73623843110177        2.21828888844438        0.60326629483796
H           -1.00188044016102       -3.02940185662723        1.31833069179120
H           -1.46672430712269       -3.21090599329756       -0.38629966870236
H           -2.65387833747558       -2.58558190817593        0.77768282967017
H            2.13557616566241       -2.97943855272584       -0.33702944785343

          :  Hamiltonian                  GFN2-xTB          :
         :: total energy             -59.633752244733 Eh    ::
         :: gradient norm              0.003112542800 Eh/a0 ::
         :: HOMO-LUMO gap              0.068757860658 eV    ::
         :: SCC energy               -42.531143908171 Eh    ::
         :: -> dispersion             -0.021412153928 Eh    ::
         :: repulsion energy           2.215612340073 Eh    ::

    * Orbital Energies and Occupations

         #    Occupation            Energy/Eh            Energy/eV
      -------------------------------------------------------------
         1        2.0000           -0.9033495             -24.5814
       ...           ...                  ...                  ...
        25        1.9937           -0.6614113             -17.9979
        26        1.9904           -0.6513810             -17.7250
        27        1.9893           -0.6488620             -17.6564
        28        1.9876           -0.6454622             -17.5639
        29        1.9842           -0.6396619             -17.4061
        30        1.9679           -0.6225892             -16.9415
        31        1.9575           -0.6157853             -16.7564
        32        1.9204           -0.6004106             -16.3380
        33        1.8550           -0.5853485             -15.9281
        34        1.8346           -0.5819589             -15.8359
        35        1.7573           -0.5718183             -15.5600
        36        1.5267           -0.5526192             -15.0375
        37        1.4463           -0.5476086             -14.9012 (HOMO)
        38        1.4027           -0.5450818             -14.8324 (LUMO)
        39        0.3944           -0.4914612             -13.3733
        40        0.0057           -0.3856654             -10.4945
        41        0.0006           -0.3340400              -9.0897
        42        0.0002           -0.3046998              -8.2913
        43        0.0000           -0.2110599              -5.7432
        44        0.0000           -0.1748254              -4.7572
        45        0.0000           -0.1648332              -4.4853
        46        0.0000           -0.1271463              -3.4598
        47                         -0.0735875              -2.0024
        48                         -0.0557505              -1.5170
       ...                                ...                  ...
        67                         11.1633012             303.7689
      -------------------------------------------------------------
                  HL-Gap            0.0025268 Eh            0.0688 eV

     #   Z          covCN         q      C6AA      α(0)
     1   6 C        3.684    -0.082    22.281     6.759
     2   7 N        2.876     0.068    20.055     6.651
     3   6 C        3.223     0.018    26.876     8.427
     4   7 N        2.694    -0.148    24.195     7.306
     5   6 C        3.909     0.005    20.432     6.425
     6   6 C        3.321     0.040    24.985     7.954
     7   6 C        2.763     0.266    22.506     7.769
     8   8 O        0.860    -0.330    20.328     6.045
     9   7 N        2.741    -0.053    22.263     7.008
    10   6 C        3.707    -0.058    21.764     6.668
    11   6 C        2.708     0.331    21.368     7.566
    12   8 O        0.859    -0.332    20.364     6.050
    13   7 N        1.831    -0.211    26.433     7.619
    14   6 C        3.696    -0.032    21.326     6.606
    15   1 H        0.924     0.131     1.531     1.935
    16   1 H        0.924     0.133     1.509     1.921
    17   1 H        0.924     0.139     1.469     1.895
    18   1 H        0.932     0.153     1.368     1.829
    19   1 H        0.925     0.126     1.565     1.957
    20   1 H        0.924     0.130     1.534     1.937
    21   1 H        0.924     0.125     1.575     1.962
    22   1 H        0.924     0.118     1.627     1.995
    23   1 H        0.923     0.116     1.650     2.009
    24   1 H        0.923     0.126     1.569     1.959
    25   1 H        0.860     0.220     1.010     1.574

Wiberg/Mayer (AO) data.
largest (>0.10) Wiberg bond orders for each atom

     #   Z sym  total        # sym  WBO       # sym  WBO       # sym  WBO
 ---------------------------------------------------------------------------
     1   6 C    3.870 --     2 N    1.033    17 H    0.936    16 H    0.924
                            15 H    0.916
     2   7 N    3.451 --     6 C    1.337     1 C    1.033     3 C    0.983
     3   6 C    2.915 --     4 N    1.064     2 N    0.983     5 C    0.737
     4   7 N    2.930 --     3 C    1.064    25 H    0.919     5 C    0.882
     5   6 C    3.676 --     6 C    0.995    18 H    0.965     4 N    0.882
                             3 C    0.737
     6   6 C    3.637 --     2 N    1.337     7 C    1.072     5 C    0.995
     7   6 C    3.881 --     8 O    1.598     9 N    1.128     6 C    1.072
     8   8 O    1.839 --     7 C    1.598     9 N    0.109
     9   7 N    3.381 --     7 C    1.128    11 C    1.011    10 C    0.996
                             8 O    0.109
    10   6 C    3.833 --     9 N    0.996    19 H    0.948    20 H    0.926
                            21 H    0.922
    11   6 C    3.912 --    12 O    1.567    13 N    1.273     9 N    1.011
    12   8 O    1.779 --    11 C    1.567
    13   7 N    2.551 --    11 C    1.273    14 C    1.094
    14   6 C    3.836 --    13 N    1.094    22 H    0.918    24 H    0.898
                            23 H    0.897
    15   1 H    0.944 --     1 C    0.916
    16   1 H    0.954 --     1 C    0.924
    17   1 H    0.961 --     1 C    0.936
    18   1 H    0.973 --     5 C    0.965
    19   1 H    0.965 --    10 C    0.948
    20   1 H    0.943 --    10 C    0.926
    21   1 H    0.936 --    10 C    0.922
    22   1 H    0.931 --    14 C    0.918
    23   1 H    0.912 --    14 C    0.897
    24   1 H    0.905 --    14 C    0.898
    25   1 H    0.943 --     4 N    0.919
 ---------------------------------------------------------------------------

molecular dipole:
                 x           y           z       tot (Debye)
 q only:        1.693      -0.896      -0.030
   full:        1.463      -1.213      -0.112       4.839

           -------------------------------------------------
          | TOTAL ENERGY              -59.633752244733 Eh   |
          | GRADIENT NORM               0.003112542800 Eh/α |
          | HOMO-LUMO GAP               0.068757860658 eV   |
           -------------------------------------------------

 * finished run on 2024/06/05 at 19:58:59.320
