   * xtb version 6.6.1 (8d0f1dd) compiled by 'conda@1efc2f54142f' on 2023-08-01
          program call               : xtb xtbopt.xyz --opt crude --input .xc2 --gfn2

   ID    Z sym.   atoms
    1    6 C      1, 3, 5-7, 10, 11, 14
    2    7 N      2, 4, 9, 13
    3    8 O      8, 12
    4    1 H      15-25
########################################################################
[WARNING] Please study the warnings concerning your input carefully
-1- readin_getIntValue: could not parse ''
########################################################################

          :  Hamiltonian                  GFN2-xTB          :
 * total energy  :   -40.3153501 Eh     change       -0.3041123E-11 Eh
 * total energy  :   -41.9996159 Eh     change       -0.1684266E+01 Eh
 * total energy  :   -42.0324515 Eh     change       -0.3283567E-01 Eh
 * total energy  :   -42.0367290 Eh     change       -0.4277465E-02 Eh
 * total energy  :   -42.0374655 Eh     change       -0.7365423E-03 Eh
 * total energy  :   -42.0377821 Eh     change       -0.3165984E-03 Eh
 * total energy  :   -42.0382817 Eh     change       -0.4995615E-03 Eh
 * total energy  :   -42.0386364 Eh     change       -0.3547284E-03 Eh
 * total energy  :   -42.0388042 Eh     change       -0.1677787E-03 Eh
   *** GEOMETRY OPTIMIZATION CONVERGED AFTER 9 ITERATIONS ***

 final structure:
================
25
 xtb: 6.6.1 (8d0f1dd)
C            3.22245707876372        1.18190331533245        0.65031835782714
N            2.38984288769419        0.23623295129712        0.01152840671313
C            2.69366647017522       -0.97662140984051       -0.70658739803180
N            2.00274965388795       -2.02933957033257       -0.09491040892147
C            1.14854241783101       -1.16629798262606       -0.89590789724740
C            1.07195709336518        0.15467717921658       -0.22700827940418
C            0.12072870458719        1.23183068801767       -0.05071493941834
O            0.52491433378391        2.36222391616768        0.19532757570377
N           -1.22702373252338        0.97947867259942       -0.20791841888361
C           -2.11525125480311        2.11305638354492       -0.32123500962214
C           -1.86385360160320       -0.27891161410529       -0.09157676266500
O           -3.05949385262750       -0.35752012518757       -0.32798441416792
N           -1.08658084388708       -1.27476196120026        0.31620189166577
C           -1.57488513438493       -2.56257061015866        0.57944677447913
H            3.69625527796845        0.73730620936803        1.53197718667302
H            4.02000348170022        1.49211543501886       -0.03153081807621
H            2.63008823971136        2.05321474688746        0.93722811559280
H            0.54107493493798       -1.54060012254588       -1.69793984046499
H           -1.52680674442101        3.01436689269596       -0.48934017428964
H           -2.81311124562010        1.94203903913858       -1.14487469827782
H           -2.70678844492262        2.23064170825831        0.59214513176821
H           -0.97426726489231       -3.00381477169327        1.37954796062964
H           -1.48868499811573       -3.20590811699555       -0.30662847436290
H           -2.63282016724200       -2.54756077075060        0.87730851295301
H            2.16771822473777       -2.96694154050146       -0.44570076227107

          :  Hamiltonian                  GFN2-xTB          :
         :: total energy             -42.038804208118 Eh    ::
         :: gradient norm              0.005714668773 Eh/a0 ::
         :: HOMO-LUMO gap              0.153163518091 eV    ::
         :: SCC energy               -42.510274424351 Eh    ::
         :: -> dispersion             -0.021401006113 Eh    ::
         :: repulsion energy           0.471273229442 Eh    ::

    * Orbital Energies and Occupations

         #    Occupation            Energy/Eh            Energy/eV
      -------------------------------------------------------------
         1        2.0000           -0.8956996             -24.3732
       ...           ...                  ...                  ...
        25        1.9938           -0.6599100             -17.9571
        26        1.9910           -0.6508879             -17.7116
        27        1.9894           -0.6470790             -17.6079
        28        1.9879           -0.6438553             -17.5202
        29        1.9850           -0.6386830             -17.3794
        30        1.9690           -0.6213350             -16.9074
        31        1.9598           -0.6149865             -16.7346
        32        1.9238           -0.5993964             -16.3104
        33        1.8579           -0.5837529             -15.8847
        34        1.8363           -0.5801212             -15.7859
        35        1.7447           -0.5683510             -15.4656
        36        1.5351           -0.5510718             -14.9954
        37        1.4626           -0.5464796             -14.8705 (HOMO)
        38        1.3645           -0.5408509             -14.7173 (LUMO)
        39        0.4067           -0.4902694             -13.3409
        40        0.0059           -0.3845574             -10.4643
        41        0.0007           -0.3330696              -9.0633
        42        0.0001           -0.2906754              -7.9097
        43        0.0000           -0.2005246              -5.4566
        44        0.0000           -0.1733012              -4.7158
        45        0.0000           -0.1375798              -3.7437
        46                         -0.0935537              -2.5457
        47                         -0.0707102              -1.9241
        48                         -0.0623484              -1.6966
       ...                                ...                  ...
        67                          0.4844324              13.1821
      -------------------------------------------------------------
                  HL-Gap            0.0056287 Eh            0.1532 eV

     #   Z          covCN         q      C6AA      α(0)
     1   6 C        3.684    -0.082    22.284     6.759
     2   7 N        2.950     0.073    19.970     6.637
     3   6 C        3.207     0.012    27.145     8.485
     4   7 N        2.696    -0.120    23.620     7.218
     5   6 C        3.993     0.048    19.694     6.305
     6   6 C        3.303     0.049    25.138     8.022
     7   6 C        2.763     0.267    22.500     7.768
     8   8 O        0.860    -0.331    20.355     6.049
     9   7 N        2.741    -0.055    22.295     7.013
    10   6 C        3.707    -0.058    21.759     6.668
    11   6 C        2.709     0.331    21.380     7.569
    12   8 O        0.859    -0.334    20.407     6.057
    13   7 N        1.830    -0.214    26.500     7.628
    14   6 C        3.697    -0.032    21.307     6.603
    15   1 H        0.924     0.129     1.541     1.941
    16   1 H        0.924     0.133     1.513     1.924
    17   1 H        0.924     0.138     1.476     1.900
    18   1 H        0.926     0.094     1.845     2.124
    19   1 H        0.925     0.125     1.571     1.960
    20   1 H        0.924     0.130     1.538     1.939
    21   1 H        0.924     0.124     1.585     1.969
    22   1 H        0.924     0.116     1.643     2.005
    23   1 H        0.923     0.112     1.676     2.024
    24   1 H        0.923     0.125     1.571     1.960
    25   1 H        0.860     0.220     1.009     1.574

Wiberg/Mayer (AO) data.
largest (>0.10) Wiberg bond orders for each atom

     #   Z sym  total        # sym  WBO       # sym  WBO       # sym  WBO
 ---------------------------------------------------------------------------
     1   6 C    3.871 --     2 N    1.034    17 H    0.938    16 H    0.923
                            15 H    0.918
     2   7 N    3.441 --     6 C    1.320     1 C    1.034     3 C    0.987
     3   6 C    2.862 --     4 N    1.025     2 N    0.987     5 C    0.715
     4   7 N    2.937 --     3 C    1.025     5 C    0.925    25 H    0.920
     5   6 C    3.702 --     6 C    1.025    18 H    0.954     4 N    0.925
                             3 C    0.715
     6   6 C    3.646 --     2 N    1.320     7 C    1.072     5 C    1.025
     7   6 C    3.881 --     8 O    1.599     9 N    1.128     6 C    1.072
     8   8 O    1.838 --     7 C    1.599     9 N    0.109
     9   7 N    3.380 --     7 C    1.128    11 C    1.012    10 C    0.995
                             8 O    0.109
    10   6 C    3.835 --     9 N    0.995    19 H    0.948    20 H    0.928
                            21 H    0.923
    11   6 C    3.912 --    12 O    1.565    13 N    1.275     9 N    1.012
    12   8 O    1.778 --    11 C    1.565
    13   7 N    2.547 --    11 C    1.275    14 C    1.092
    14   6 C    3.839 --    13 N    1.092    22 H    0.921    23 H    0.899
                            24 H    0.898
    15   1 H    0.945 --     1 C    0.918
    16   1 H    0.953 --     1 C    0.923
    17   1 H    0.963 --     1 C    0.938
    18   1 H    0.982 --     5 C    0.954
    19   1 H    0.965 --    10 C    0.948
    20   1 H    0.945 --    10 C    0.928
    21   1 H    0.937 --    10 C    0.923
    22   1 H    0.934 --    14 C    0.921
    23   1 H    0.913 --    14 C    0.899
    24   1 H    0.905 --    14 C    0.898
    25   1 H    0.944 --     4 N    0.920
 ---------------------------------------------------------------------------

molecular dipole:
                 x           y           z       tot (Debye)
 q only:        1.786      -0.923       0.013
   full:        1.500      -1.271      -0.149       5.013

           -------------------------------------------------
          | TOTAL ENERGY              -42.038804208118 Eh   |
          | GRADIENT NORM               0.005714668773 Eh/α |
          | HOMO-LUMO GAP               0.153163518091 eV   |
           -------------------------------------------------

 * finished run on 2024/06/05 at 19:58:59.706
