   * xtb version 6.6.1 (8d0f1dd) compiled by 'conda@1efc2f54142f' on 2023-08-01
          program call               : xtb xtbopt.xyz --opt crude --input .xc2 --gfn2

   ID    Z sym.   atoms
    1    7 N      1, 17
    2    6 C      2-6, 8, 9, 11-16, 18-23, 25, 26, 28-33
    3    8 O      7, 10, 24, 27
    4    1 H      34-72

          :  Hamiltonian                  GFN2-xTB          :
 * total energy  :   -99.2683234 Eh     change       -0.3967671E-10 Eh
   *** GEOMETRY OPTIMIZATION CONVERGED AFTER 1 ITERATIONS ***

 final structure:
================
72
 xtb: 6.6.1 (8d0f1dd)
N           -1.84640857392344        2.79230117662050        2.25806411366925
C           -1.80250779893081        2.12814402423392        1.20142554843661
C           -2.96395851032407        1.91698722584417        0.26866511709004
C           -3.44224321182305        0.47498419632801        0.36535180835395
C           -4.39303525406018       -0.00002943581318       -0.53240787773555
C           -4.85379333084443       -1.31091240695530       -0.46891404486635
O           -5.77651986019504       -1.84548175475750       -1.31274904547607
C           -6.58644019170104       -1.14610728598003       -2.06305901103292
C           -4.34609008970998       -2.19873026114833        0.51656458747500
O           -4.84718167994832       -3.44615883701519        0.49477796388003
C           -4.44652826203819       -4.36592765749872        1.48720630981116
C           -3.40578583359954       -1.71240317583526        1.41366689650175
C           -2.96769231624373       -0.39601367286702        1.33942412773615
C           -2.42677098924727        2.19446349555786       -1.15973092116650
C           -1.48840003915829        1.10627544888445       -1.71358705477955
C           -0.15149164661698        1.09816506167514       -1.07762663509131
N            0.50609188441424        0.01570074748609       -0.67373984859472
C            1.88529649069722        0.11328361730369       -0.25796804461500
C            2.85289924262353       -0.33908644308460       -1.36808770329340
C            4.27243400695117       -0.13614010376328       -0.91806726448662
C            4.91292195713481        1.07368876950004       -1.13079024334798
C            6.21236191048834        1.27562168977329       -0.69244806909782
C            6.89719330042009        0.26969333315143       -0.02581835624878
O            8.15735127076093        0.35271816321156        0.43887947017889
C            8.88989131463231        1.53855099926416        0.23138783565858
C            6.24573865679236       -0.97403736411391        0.20267118755048
O            6.98229985415283       -1.89551827347209        0.85472880952030
C            6.43548539299664       -3.16956165196138        1.09731128176153
C            4.94561785201917       -1.15175968496834       -0.24339862332482
C           -0.09169679458376       -1.29739058178004       -0.69433622564293
C           -4.17072804282060        2.85550041734669        0.57208419696109
C           -4.80076613625262        2.53490548061864        1.92548391957997
C           -3.80830063304389        4.33670831689184        0.50863331458563
H           -4.77418082385080        0.64697734802852       -1.30579287576762
H           -6.64256141801618       -0.07182432150218       -2.02921093080012
H           -7.22353792846171       -1.72046684405225       -2.71167729503778
H           -7.26136451154839       -0.43337245149273       -4.91534703860599
H           -4.68739045266835       -4.00087360772787        2.48929696729820
H           -5.01140164092111       -5.27405550804531        1.28723907328620
H           -3.37607248749772       -4.58275978126539        1.42103795173704
H           -3.01539942291492       -2.35110515332737        2.18941695073059
H           -2.25659967838430       -0.04693896500113        2.07226962315664
H           -3.27226433177342        2.28742544913268       -1.84034872294897
H           -1.90031019101618        3.14957090726521       -1.15908844462812
H           -1.97311911922494        0.13393987305569       -1.64649727531960
H           -1.34262263220626        1.33306668647355       -2.77755613183399
H           -0.88149511753081        1.64991733314448        0.81182823688567
H            0.40363161499826        2.02482933348121       -1.07961177578879
H            2.03716059119722       -0.50474936548993        0.63106160529978
H            2.11067394795543        1.14893053761020        0.00484725409576
H            2.65826132232886        0.25202619254392       -2.26453434552262
H            2.67717846417345       -1.38975714572270       -1.60163473749927
H            4.40532481888604        1.86919619277861       -1.65491784958214
H            6.68721571357587        2.22443105669414       -0.88044934096349
H            8.41872425233601        2.39256614325257        0.72744807015525
H            9.00860336823719        1.75419718200156       -0.83463134787905
H            9.86752684085438        1.35877368510056        0.67428497556808
H            7.21747740152195       -3.73125944188729        1.60447494699013
H            5.55484101497022       -3.11167264125704        1.74526581694752
H            6.17215869333684       -3.67781364721908        0.16451915275120
H            4.44529875677579       -2.09385575740664       -0.08227191637659
H           -0.25274551685460       -1.64317184305753       -1.71772018377062
H           -1.05128611896345       -1.28766678645700       -0.17146487290706
H            0.56886247538578       -1.99909024378346       -0.19153110456221
H           -4.91993405603465        2.66037323736052       -0.20357073200555
H           -4.08995374907133        2.72976664573739        2.72175568072652
H           -5.11414983733646        1.49497454751240        1.97802183581410
H           -5.67406261691087        3.16331149820790        2.07824752776705
H           -3.04167198360694        4.57248368707922        1.24026183690667
H           -3.46408092560970        4.62871281052878       -0.47996654571986
H           -4.69008403834325        4.92825963242000        0.74039940404555
H           -0.98937901980667        2.88840947510703        2.79381388000706

          :  Hamiltonian                  GFN2-xTB          :
         :: total energy             -99.268323402273 Eh    ::
         :: gradient norm              0.003507382533 Eh/a0 ::
         :: HOMO-LUMO gap              0.461157736087 eV    ::
         :: SCC energy              -100.641699136215 Eh    ::
         :: -> dispersion             -0.075046419769 Eh    ::
         :: repulsion energy           1.372185723887 Eh    ::

    * Orbital Energies and Occupations

         #    Occupation            Energy/Eh            Energy/eV
      -------------------------------------------------------------
         1        2.0000           -0.8490413             -23.1036
       ...           ...                  ...                  ...
        78        1.9986           -0.5326445             -14.4940
        79        1.9985           -0.5314016             -14.4602
        80        1.9983           -0.5295659             -14.4102
        81        1.9971           -0.5209085             -14.1746
        82        1.9969           -0.5202329             -14.1563
        83        1.9967           -0.5192428             -14.1293
        84        1.9957           -0.5150355             -14.0148
        85        1.9955           -0.5143287             -13.9956
        86        1.9786           -0.4893661             -13.3163
        87        1.9729           -0.4855954             -13.2137
        88        1.9473           -0.4748472             -12.9213
        89        1.8435           -0.4567454             -12.4287
        90        1.1831           -0.4235556             -11.5255 (HOMO)
        91        0.6637           -0.4066084             -11.0644 (LUMO)
        92        0.4041           -0.3959404             -10.7741
        93        0.0181           -0.3433704              -9.3436
        94        0.0078           -0.3300077              -8.9800
        95        0.0055           -0.3243666              -8.8265
        96        0.0027           -0.3132823              -8.5248
        97        0.0024           -0.3109375              -8.4610
        98        0.0000           -0.2054952              -5.5918
        99        0.0000           -0.1884266              -5.1273
       100                         -0.1382112              -3.7609
       101                         -0.0770396              -2.0964
       ...                                ...                  ...
       171                          0.5756209              15.6634
      -------------------------------------------------------------
                  HL-Gap            0.0169472 Eh            0.4612 eV

     #   Z          covCN         q      C6AA      α(0)
     1   7 N        1.773    -0.269    27.791     7.806
     2   6 C        2.826     0.099    25.791     8.322
     3   6 C        3.907     0.006    20.418     6.423
     4   6 C        2.973     0.006    27.881     8.661
     5   6 C        2.919    -0.067    29.670     8.932
     6   6 C        2.869     0.103    25.724     8.314
     7   8 O        1.710    -0.105    15.906     5.385
     8   6 C        2.734     0.037    27.154     8.531
     9   6 C        2.862     0.135    25.047     8.203
    10   8 O        1.706    -0.231    17.826     5.700
    11   6 C        3.645     0.025    20.496     6.507
    12   6 C        2.913    -0.074    29.853     8.960
    13   6 C        2.922    -0.048    29.195     8.861
    14   6 C        3.812    -0.066    21.758     6.639
    15   6 C        3.802    -0.069    21.820     6.650
    16   6 C        2.843     0.006    27.888     8.655
    17   7 N        2.729     0.008    21.114     6.825
    18   6 C        3.756    -0.016    20.917     6.521
    19   6 C        3.808    -0.071    21.843     6.653
    20   6 C        2.969    -0.000    28.033     8.685
    21   6 C        2.922    -0.049    29.212     8.863
    22   6 C        2.914    -0.067    29.678     8.933
    23   6 C        2.865     0.134    25.077     8.209
    24   8 O        1.706    -0.222    17.677     5.677
    25   6 C        3.645     0.025    20.491     6.506
    26   6 C        2.863     0.133    25.087     8.210
    27   8 O        1.706    -0.225    17.725     5.684
    28   6 C        3.645     0.027    20.452     6.500
    29   6 C        2.919    -0.080    29.990     8.980
    30   6 C        3.699    -0.070    22.005     6.709
    31   6 C        3.853    -0.007    20.674     6.467
    32   6 C        3.756    -0.120    22.851     6.816
    33   6 C        3.755    -0.118    22.821     6.812
    34   1 H        0.926     0.059     2.210     2.325
    35   1 H        0.926     0.074     2.046     2.237
    36   1 H        0.926     0.108     1.714     2.048
    37   1 H        0.000    -0.147    18.799     7.928
    38   1 H        0.924     0.057     2.231     2.336
    39   1 H        0.925     0.084     1.938     2.177
    40   1 H        0.924     0.051     2.311     2.377
    41   1 H        0.926     0.058     2.227     2.334
    42   1 H        0.926     0.046     2.374     2.409
    43   1 H        0.925     0.061     2.189     2.314
    44   1 H        0.924     0.056     2.250     2.346
    45   1 H        0.925     0.063     2.166     2.302
    46   1 H        0.924     0.081     1.964     2.192
    47   1 H        0.922     0.007     2.934     2.679
    48   1 H        0.926     0.070     2.089     2.260
    49   1 H        0.924     0.067     2.124     2.279
    50   1 H        0.924     0.067     2.117     2.275
    51   1 H        0.924     0.056     2.252     2.347
    52   1 H        0.924     0.055     2.253     2.347
    53   1 H        0.926     0.045     2.379     2.412
    54   1 H        0.926     0.059     2.213     2.326
    55   1 H        0.924     0.054     2.266     2.354
    56   1 H        0.924     0.056     2.244     2.343
    57   1 H        0.925     0.083     1.952     2.185
    58   1 H        0.925     0.082     1.958     2.188
    59   1 H        0.924     0.048     2.341     2.393
    60   1 H        0.924     0.053     2.289     2.366
    61   1 H        0.926     0.047     2.360     2.402
    62   1 H        0.924     0.076     2.019     2.222
    63   1 H        0.924     0.076     2.019     2.222
    64   1 H        0.925     0.079     1.985     2.203
    65   1 H        0.924     0.036     2.499     2.472
    66   1 H        0.925     0.071     2.076     2.253
    67   1 H        0.925     0.033     2.547     2.496
    68   1 H        0.925     0.052     2.292     2.367
    69   1 H        0.925     0.059     2.212     2.326
    70   1 H        0.925     0.036     2.509     2.477
    71   1 H        0.925     0.056     2.251     2.346
    72   1 H        0.860     0.157     1.351     1.821

Wiberg/Mayer (AO) data.
largest (>0.10) Wiberg bond orders for each atom

     #   Z sym  total        # sym  WBO       # sym  WBO       # sym  WBO
 ---------------------------------------------------------------------------
     1   7 N    3.042 --     2 C    1.957    72 H    0.942
     2   6 C    3.925 --     1 N    1.957     3 C    0.994    47 H    0.896
     3   6 C    3.978 --     2 C    0.994     4 C    0.969    14 C    0.959
                            31 C    0.942
     4   6 C    3.968 --     5 C    1.397    13 C    1.396     3 C    0.969
     5   6 C    3.914 --     4 C    1.397     6 C    1.368    34 H    0.955
     6   6 C    3.892 --     5 C    1.368     9 C    1.230     7 O    1.046
     7   8 O    2.417 --     8 C    1.271     6 C    1.046
     8   6 C    3.328 --     7 O    1.271    35 H    0.965    36 H    0.961
     9   6 C    3.894 --    12 C    1.382     6 C    1.230    10 O    1.111
    10   8 O    2.269 --     9 C    1.111    11 C    0.972
    11   6 C    3.929 --    39 H    0.977    40 H    0.975    38 H    0.974
                            10 O    0.972
    12   6 C    3.961 --    13 C    1.411     9 C    1.382    41 H    0.963
    13   6 C    3.923 --    12 C    1.411     4 C    1.396    42 H    0.963
    14   6 C    3.972 --    15 C    0.981    44 H    0.972    43 H    0.969
                             3 C    0.959
    15   6 C    3.987 --    16 C    1.059    14 C    0.981    45 H    0.963
                            46 H    0.928
    16   6 C    3.588 --    17 N    1.392    15 C    1.059    48 H    0.957
    17   7 N    3.473 --    16 C    1.392    30 C    0.999    18 C    0.988
    18   6 C    3.956 --    17 N    0.988    50 H    0.968    19 C    0.967
                            49 H    0.964
    19   6 C    3.976 --    20 C    1.008    52 H    0.972    51 H    0.972
                            18 C    0.967
    20   6 C    3.944 --    21 C    1.409    29 C    1.380    19 C    1.008
    21   6 C    3.950 --    22 C    1.417    20 C    1.409    53 H    0.968
    22   6 C    3.959 --    21 C    1.417    23 C    1.383    54 H    0.963
    23   6 C    3.895 --    22 C    1.383    26 C    1.219    24 O    1.111
    24   8 O    2.255 --    23 C    1.111    25 C    0.976
    25   6 C    3.928 --    57 H    0.977    24 O    0.976    55 H    0.973
                            56 H    0.973
    26   6 C    3.898 --    29 C    1.395    23 C    1.219    27 O    1.104
    27   8 O    2.254 --    26 C    1.104    28 C    0.979
    28   6 C    3.932 --    27 O    0.979    58 H    0.977    59 H    0.973
                            60 H    0.973
    29   6 C    3.959 --    26 C    1.395    20 C    1.380    61 H    0.962
    30   6 C    3.958 --    17 N    0.999    64 H    0.978    62 H    0.967
                            63 H    0.961
    31   6 C    3.974 --    33 C    1.009    32 C    1.009    65 H    0.961
                             3 C    0.942
    32   6 C    3.980 --    31 C    1.009    67 H    0.982    68 H    0.981
                            66 H    0.974
    33   6 C    3.985 --    31 C    1.009    70 H    0.983    71 H    0.980
                            69 H    0.978
    34   1 H    0.996 --     5 C    0.955
    35   1 H    0.994 --     8 C    0.965
    36   1 H    0.988 --     8 C    0.961
    37   1 H    0.020
    38   1 H    0.994 --    11 C    0.974
    39   1 H    0.992 --    11 C    0.977
    40   1 H    0.995 --    11 C    0.975
    41   1 H    0.995 --    12 C    0.963
    42   1 H    0.998 --    13 C    0.963
    43   1 H    0.995 --    14 C    0.969
    44   1 H    0.996 --    14 C    0.972
    45   1 H    0.995 --    15 C    0.963
    46   1 H    0.970 --    15 C    0.928
    47   1 H    0.989 --     2 C    0.896
    48   1 H    0.995 --    16 C    0.957
    49   1 H    0.991 --    18 C    0.964
    50   1 H    0.994 --    18 C    0.968
    51   1 H    0.996 --    19 C    0.972
    52   1 H    0.996 --    19 C    0.972
    53   1 H    0.997 --    21 C    0.968
    54   1 H    0.995 --    22 C    0.963
    55   1 H    0.992 --    25 C    0.973
    56   1 H    0.991 --    25 C    0.973
    57   1 H    0.992 --    25 C    0.977
    58   1 H    0.993 --    28 C    0.977
    59   1 H    0.993 --    28 C    0.973
    60   1 H    0.993 --    28 C    0.973
    61   1 H    0.997 --    29 C    0.962
    62   1 H    0.985 --    30 C    0.967
    63   1 H    0.988 --    30 C    0.961
    64   1 H    0.993 --    30 C    0.978
    65   1 H    0.994 --    31 C    0.961
    66   1 H    0.991 --    32 C    0.974
    67   1 H    0.997 --    32 C    0.982
    68   1 H    0.994 --    32 C    0.981
    69   1 H    0.994 --    33 C    0.978
    70   1 H    0.997 --    33 C    0.983
    71   1 H    0.994 --    33 C    0.980
    72   1 H    0.971 --     1 N    0.942
 ---------------------------------------------------------------------------

molecular dipole:
                 x           y           z       tot (Debye)
 q only:        1.076      -0.421       0.371
   full:        1.324      -0.508       0.160       3.627

           -------------------------------------------------
          | TOTAL ENERGY              -99.268323402273 Eh   |
          | GRADIENT NORM               0.003507382533 Eh/α |
          | HOMO-LUMO GAP               0.461157736087 eV   |
           -------------------------------------------------

 * finished run on 2024/04/06 at 11:12:38.892
