   * xtb version 6.6.1 (8d0f1dd) compiled by 'conda@1efc2f54142f' on 2023-08-01
          program call               : xtb struc.xyz --opt loose --input .xc1 --gfn2

   ID    Z sym.   atoms
    1    6 C      1, 3, 5-7, 10, 11, 14
    2    7 N      2, 4, 9, 13
    3    8 O      8, 12
    4    1 H      15-25
constraining bond 4 13 to    4.8400000 Å, actual value:    2.4476530 Å

          :  Hamiltonian                  GFN2-xTB          :
 * total energy  :   -21.8095004 Eh     change       -0.6650680E-10 Eh
 * total energy  :   -30.7998976 Eh     change       -0.8990397E+01 Eh
 * total energy  :   -36.6136784 Eh     change       -0.5813781E+01 Eh
 * total energy  :   -40.0032997 Eh     change       -0.3389621E+01 Eh
 * total energy  :   -41.4348246 Eh     change       -0.1431525E+01 Eh
 * total energy  :   -41.6164693 Eh     change       -0.1816447E+00 Eh
 * total energy  :   -41.6383862 Eh     change       -0.2191687E-01 Eh
 * total energy  :   -41.6952854 Eh     change       -0.5689926E-01 Eh
 * total energy  :   -41.7299657 Eh     change       -0.3468027E-01 Eh
 * total energy  :   -41.7536479 Eh     change       -0.2368219E-01 Eh
 * total energy  :   -42.1028415 Eh     change       -0.2368355E-03 Eh
 * total energy  :   -42.1027422 Eh     change        0.9936515E-04 Eh
 * total energy  :   -42.1030788 Eh     change       -0.3366198E-03 Eh
 * total energy  :   -42.1030909 Eh     change       -0.1213341E-04 Eh
 * total energy  :   -42.1032671 Eh     change       -0.1761616E-03 Eh
 * total energy  :   -42.1033295 Eh     change       -0.6246115E-04 Eh
 * total energy  :   -42.1033777 Eh     change       -0.4812660E-04 Eh
 * total energy  :   -42.1034043 Eh     change       -0.2667848E-04 Eh
 * total energy  :   -42.1034180 Eh     change       -0.1364150E-04 Eh
   *** GEOMETRY OPTIMIZATION CONVERGED AFTER 92 ITERATIONS ***

 final structure:
================
25
 xtb: 6.6.1 (8d0f1dd)
C            2.74718418597915        0.73053278084012        1.03068049604537
N            2.24632441288269       -0.24593408296269        0.08274607653360
C            3.16753878008364       -0.82627728264725       -0.75206466771174
N            3.05651193753114       -1.55998591770895       -1.76089031100871
C            0.03660728252435       -1.33561917655640        0.30428645294478
C            0.85386664904611       -0.31895844301220       -0.00473736549907
C            0.14902320832342        0.97636723650718       -0.33222717147193
O            0.78301846291425        1.95762760786470       -0.62750314810940
N           -1.22092217101121        0.93214134450261       -0.28204123817129
C           -1.95863345853700        2.14544262171724       -0.61780298843124
C           -2.00036549674132       -0.15319295024264        0.06554945567441
O           -3.19533647100922       -0.13475987458266        0.12246186738578
N           -1.27728444295971       -1.32735174080657        0.37743253004535
C           -2.04579902820962       -2.49479555129340        0.75748624516194
H            2.05888965767377        0.82293834174737        1.86973712375016
H            3.72003921142139        0.41669372677587        1.40440356249601
H            2.85396106483550        1.71336583575653        0.55957202694211
H            4.18784555159124       -0.56781305858326       -0.47690015586900
H           -1.25102415711023        2.96365967395655       -0.73105897290438
H           -2.50953937820555        1.99741975846084       -1.54734171828619
H           -2.67472616775254        2.36339442131504        0.17460440044945
H           -1.37994299547387       -3.24191829853617        1.18295786572280
H           -2.55539723411010       -2.90773457151309       -0.11661969212728
H           -2.80627418435605       -2.20180810626226        1.48246072409912
H            2.17486629477081       -1.88519575313245       -2.13401977975743

          :  Hamiltonian                  GFN2-xTB          :
         :: total energy             -42.103417990108 Eh    ::
         :: gradient norm              0.002980285760 Eh/a0 ::
         :: HOMO-LUMO gap              0.697342698024 eV    ::
         :: SCC energy               -42.633798509579 Eh    ::
         :: -> dispersion             -0.021582623755 Eh    ::
         :: repulsion energy           0.530192357545 Eh    ::

    * Orbital Energies and Occupations

         #    Occupation            Energy/Eh            Energy/eV
      -------------------------------------------------------------
         1        2.0000           -0.9049911             -24.6261
       ...           ...                  ...                  ...
        25        1.9991           -0.6572097             -17.8836
        26        1.9989           -0.6532645             -17.7762
        27        1.9982           -0.6461193             -17.5818
        28        1.9973           -0.6392954             -17.3961
        29        1.9969           -0.6371476             -17.3377
        30        1.9962           -0.6340113             -17.2523
        31        1.9952           -0.6301241             -17.1465
        32        1.9933           -0.6249863             -17.0067
        33        1.9712           -0.6016196             -16.3709
        34        1.9489           -0.5923611             -16.1190
        35        1.9039           -0.5820051             -15.8372
        36        1.7805           -0.5678550             -15.4521
        37        1.5733           -0.5553724             -15.1125 (HOMO)
        38        0.8445           -0.5297455             -14.4151 (LUMO)
        39        0.0022           -0.4269916             -11.6190
        40        0.0008           -0.4098751             -11.1533
        41        0.0002           -0.3856585             -10.4943
        42        0.0000           -0.3170985              -8.6287
        43                         -0.2148280              -5.8458
        44                         -0.1655461              -4.5047
        45                         -0.1480385              -4.0283
        46                         -0.0946653              -2.5760
        47                         -0.0622758              -1.6946
        48                         -0.0509226              -1.3857
       ...                                ...                  ...
        67                          0.5428666              14.7722
      -------------------------------------------------------------
                  HL-Gap            0.0256269 Eh            0.6973 eV

     #   Z          covCN         q      C6AA      α(0)
     1   6 C        3.713    -0.077    22.113     6.719
     2   7 N        2.733     0.016    20.970     6.801
     3   6 C        2.766     0.128    25.178     8.218
     4   7 N        1.773    -0.198    26.097     7.565
     5   6 C        1.946    -0.004    31.181     9.018
     6   6 C        2.900     0.022    27.524     8.602
     7   6 C        2.779     0.278    22.294     7.734
     8   8 O        0.858    -0.317    20.084     6.009
     9   7 N        2.738    -0.064    22.476     7.041
    10   6 C        3.709    -0.062    21.843     6.680
    11   6 C        2.733     0.318    21.595     7.608
    12   8 O        0.859    -0.314    20.039     6.002
    13   7 N        2.740     0.013    21.026     6.810
    14   6 C        3.702    -0.068    21.963     6.701
    15   1 H        0.925     0.092     1.863     2.135
    16   1 H        0.925     0.107     1.724     2.054
    17   1 H        0.924     0.124     1.580     1.966
    18   1 H        0.925     0.125     1.576     1.963
    19   1 H        0.925     0.118     1.629     1.996
    20   1 H        0.924     0.110     1.695     2.036
    21   1 H        0.925     0.113     1.668     2.020
    22   1 H        0.925     0.109     1.702     2.040
    23   1 H        0.924     0.115     1.655     2.012
    24   1 H        0.924     0.120     1.617     1.989
    25   1 H        0.860     0.196     1.126     1.662

Wiberg/Mayer (AO) data.
largest (>0.10) Wiberg bond orders for each atom

     #   Z sym  total        # sym  WBO       # sym  WBO       # sym  WBO
 ---------------------------------------------------------------------------
     1   6 C    3.895 --     2 N    0.987    15 H    0.971    16 H    0.956
                            17 H    0.931
     2   7 N    3.387 --     3 C    1.169     6 C    1.068     1 C    0.987
     3   6 C    3.932 --     4 N    1.798     2 N    1.169    18 H    0.912
     4   7 N    2.857 --     3 C    1.798    25 H    0.919
     5   6 C    3.182 --     6 C    1.568    13 N    1.342
     6   6 C    3.771 --     5 C    1.568     2 N    1.068     7 C    0.917
     7   6 C    3.871 --     8 O    1.695     9 N    1.154     6 C    0.917
     8   8 O    2.034 --     7 C    1.695     9 N    0.130
     9   7 N    3.543 --     7 C    1.154    11 C    1.114    10 C    0.957
                             8 O    0.130    12 O    0.124
    10   6 C    3.876 --    19 H    0.965     9 N    0.957    21 H    0.957
                            20 H    0.954
    11   6 C    3.925 --    12 O    1.716     9 N    1.114    13 N    1.006
    12   8 O    2.041 --    11 C    1.716     9 N    0.124    13 N    0.101
    13   7 N    3.542 --     5 C    1.342    11 C    1.006    14 C    0.968
                            12 O    0.101
    14   6 C    3.880 --    22 H    0.972    13 N    0.968    24 H    0.954
                            23 H    0.946
    15   1 H    0.982 --     1 C    0.971
    16   1 H    0.974 --     1 C    0.956
    17   1 H    0.950 --     1 C    0.931
    18   1 H    0.956 --     3 C    0.912
    19   1 H    0.982 --    10 C    0.965
    20   1 H    0.974 --    10 C    0.954
    21   1 H    0.976 --    10 C    0.957
    22   1 H    0.984 --    14 C    0.972
    23   1 H    0.966 --    14 C    0.946
    24   1 H    0.973 --    14 C    0.954
    25   1 H    0.945 --     4 N    0.919
 ---------------------------------------------------------------------------

molecular dipole:
                 x           y           z       tot (Debye)
 q only:        0.959      -0.902       0.455
   full:        0.776      -0.864       0.524       3.238

           -------------------------------------------------
          | TOTAL ENERGY              -42.103417990108 Eh   |
          | GRADIENT NORM               0.002980285760 Eh/α |
          | HOMO-LUMO GAP               0.697342698024 eV   |
           -------------------------------------------------

 * finished run on 2024/06/05 at 19:59:11.954
