   * xtb version 6.6.1 (8d0f1dd) compiled by 'conda@1efc2f54142f' on 2023-08-01
          program call               : xtb xtbopt.xyz --opt crude --input .xc2 --gfn2

   ID    Z sym.   atoms
    1    6 C      1, 3, 5-7, 10, 11, 14
    2    7 N      2, 4, 9, 13
    3    8 O      8, 12
    4    1 H      15-25
########################################################################
[WARNING] Please study the warnings concerning your input carefully
-1- readin_getIntValue: could not parse ''
########################################################################

          :  Hamiltonian                  GFN2-xTB          :
 * total energy  :   -42.1034293 Eh     change       -0.2877698E-11 Eh
 * total energy  :   -42.1046055 Eh     change       -0.1176178E-02 Eh
 * total energy  :   -42.1061478 Eh     change       -0.1542298E-02 Eh
 * total energy  :   -42.1068854 Eh     change       -0.7375576E-03 Eh
 * total energy  :   -42.1076245 Eh     change       -0.7391427E-03 Eh
 * total energy  :   -42.1086407 Eh     change       -0.1016180E-02 Eh
 * total energy  :   -42.1098875 Eh     change       -0.1246757E-02 Eh
 * total energy  :   -42.1112194 Eh     change       -0.1331944E-02 Eh
 * total energy  :   -42.1127069 Eh     change       -0.1487526E-02 Eh
 * total energy  :   -42.1143021 Eh     change       -0.1595162E-02 Eh
 * total energy  :   -42.1170268 Eh     change       -0.1439437E-02 Eh
 * total energy  :   -42.1182381 Eh     change       -0.1211275E-02 Eh
 * total energy  :   -42.1201963 Eh     change       -0.1958142E-02 Eh
 * total energy  :   -42.1209870 Eh     change       -0.7907578E-03 Eh
 * total energy  :   -42.1220092 Eh     change       -0.1022227E-02 Eh
 * total energy  :   -42.1227034 Eh     change       -0.6941917E-03 Eh
 * total energy  :   -42.1229607 Eh     change       -0.2572265E-03 Eh
 * total energy  :   -42.1235305 Eh     change       -0.5698498E-03 Eh
 * total energy  :   -42.1237735 Eh     change       -0.2430124E-03 Eh
   *** GEOMETRY OPTIMIZATION CONVERGED AFTER 20 ITERATIONS ***

 final structure:
================
25
 xtb: 6.6.1 (8d0f1dd)
C            3.06545466707312        1.13111774368545        0.28621280979780
N            2.27703946838674       -0.05764137176380        0.09286619233424
C            2.85899131580688       -1.28921959703175       -0.07224608484322
N            2.26652346918947       -2.38695566960321       -0.19501727823594
C            0.20558824911745       -1.20052829497847        0.03592949862058
C            0.90120980003193       -0.04514657798447        0.09994070105156
C            0.10369857849508        1.21093055331666        0.12601590461184
O            0.57482759618950        2.30475471929296        0.31310959998231
N           -1.24132055187509        1.01286009882194       -0.13053185802966
C           -2.08178551021291        2.19441081210870       -0.27983798424179
C           -1.91083704158674       -0.18719712075149       -0.19733137405248
O           -3.09412686889370       -0.29910443084626       -0.34806567246598
N           -1.10023103188226       -1.34251783834557       -0.04045128976520
C           -1.78944273870365       -2.60913637208118        0.10113846612164
H            2.88655829399424        1.54793258723203        1.27758575363626
H            4.11833010317662        0.89345669191383        0.18004415960615
H            2.79373447019799        1.89742232331866       -0.43988337699114
H            3.94057401968130       -1.30321406302708       -0.12211588567145
H           -1.44249024840596        3.06275339833142       -0.41814767671695
H           -2.73585937231714        2.05513127855471       -1.13919565753876
H           -2.70140536620264        2.33205018956096        0.60669006317142
H           -1.06948696482886       -3.40003126699746        0.29520288622499
H           -2.35433214498194       -2.82852591055134       -0.80695646728681
H           -2.50183107104634       -2.53798604834109        0.92537264022149
H            1.19105039369668       -2.33737729222982       -0.11915645163979

          :  Hamiltonian                  GFN2-xTB          :
         :: total energy             -42.123773528361 Eh    ::
         :: gradient norm              0.009011533000 Eh/a0 ::
         :: HOMO-LUMO gap              0.855403674262 eV    ::
         :: SCC energy               -42.649262401404 Eh    ::
         :: -> dispersion             -0.022193643172 Eh    ::
         :: repulsion energy           0.525368347782 Eh    ::

    * Orbital Energies and Occupations

         #    Occupation            Energy/Eh            Energy/eV
      -------------------------------------------------------------
         1        2.0000           -0.9027260             -24.5644
       ...           ...                  ...                  ...
        25        1.9997           -0.6681752             -18.1820
        26        1.9992           -0.6541680             -17.8008
        27        1.9990           -0.6505218             -17.7016
        28        1.9989           -0.6481046             -17.6358
        29        1.9985           -0.6435390             -17.5116
        30        1.9982           -0.6406295             -17.4324
        31        1.9947           -0.6235630             -16.9680
        32        1.9932           -0.6195867             -16.8598
        33        1.9846           -0.6065441             -16.5049
        34        1.9702           -0.5960160             -16.2184
        35        1.9606           -0.5915321             -16.0964
        36        1.9498           -0.5876106             -15.9897
        37        1.5299           -0.5483433             -14.9212 (HOMO)
        38        0.6178           -0.5169078             -14.0658 (LUMO)
        39        0.0047           -0.4336853             -11.8012
        40        0.0013           -0.4136682             -11.2565
        41        0.0002           -0.3844354             -10.4610
        42        0.0000           -0.3107076              -8.4548
        43                         -0.2131627              -5.8005
        44                         -0.1651995              -4.4953
        45                         -0.1545825              -4.2064
        46                         -0.0834197              -2.2700
        47                         -0.0590362              -1.6065
        48                         -0.0447929              -1.2189
       ...                                ...                  ...
        67                          0.5340168              14.5313
      -------------------------------------------------------------
                  HL-Gap            0.0314355 Eh            0.8554 eV

     #   Z          covCN         q      C6AA      α(0)
     1   6 C        3.696    -0.080    22.199     6.740
     2   7 N        2.744     0.028    20.752     6.766
     3   6 C        2.795     0.117    25.401     8.256
     4   7 N        1.775    -0.219    26.583     7.635
     5   6 C        2.203    -0.001    30.483     8.935
     6   6 C        2.929     0.021    27.538     8.606
     7   6 C        2.774     0.277    22.318     7.737
     8   8 O        0.858    -0.323    20.199     6.026
     9   7 N        2.740    -0.067    22.546     7.052
    10   6 C        3.711    -0.063    21.852     6.680
    11   6 C        2.736     0.318    21.603     7.610
    12   8 O        0.859    -0.319    20.132     6.016
    13   7 N        2.740     0.005    21.170     6.834
    14   6 C        3.699    -0.070    22.010     6.709
    15   1 H        0.924     0.117     1.640     2.003
    16   1 H        0.925     0.100     1.784     2.088
    17   1 H        0.925     0.121     1.605     1.981
    18   1 H        0.925     0.136     1.493     1.911
    19   1 H        0.925     0.117     1.636     2.000
    20   1 H        0.925     0.112     1.683     2.029
    21   1 H        0.924     0.109     1.701     2.040
    22   1 H        0.925     0.103     1.758     2.073
    23   1 H        0.924     0.121     1.609     1.984
    24   1 H        0.924     0.118     1.633     1.998
    25   1 H        1.096     0.223     0.984     1.549

Wiberg/Mayer (AO) data.
largest (>0.10) Wiberg bond orders for each atom

     #   Z sym  total        # sym  WBO       # sym  WBO       # sym  WBO
 ---------------------------------------------------------------------------
     1   6 C    3.902 --     2 N    0.997    16 H    0.971    15 H    0.945
                            17 H    0.944
     2   7 N    3.475 --     3 C    1.161     6 C    1.147     1 C    0.997
     3   6 C    3.939 --     4 N    1.802     2 N    1.161    18 H    0.904
     4   7 N    2.806 --     3 C    1.802    25 H    0.671     5 C    0.138
     5   6 C    3.449 --     6 C    1.487    13 N    1.333    25 H    0.248
                             4 N    0.138
     6   6 C    3.837 --     5 C    1.487     2 N    1.147     7 C    0.975
     7   6 C    3.915 --     8 O    1.703     9 N    1.128     6 C    0.975
     8   8 O    2.037 --     7 C    1.703     9 N    0.136
     9   7 N    3.551 --    11 C    1.129     7 C    1.128    10 C    0.962
                             8 O    0.136    12 O    0.130
    10   6 C    3.884 --    19 H    0.965     9 N    0.962    20 H    0.959
                            21 H    0.953
    11   6 C    3.929 --    12 O    1.714     9 N    1.129    13 N    0.993
    12   8 O    2.031 --    11 C    1.714     9 N    0.130
    13   7 N    3.529 --     5 C    1.333    11 C    0.993    14 C    0.973
    14   6 C    3.895 --    22 H    0.974    13 N    0.973    24 H    0.952
                            23 H    0.951
    15   1 H    0.963 --     1 C    0.945
    16   1 H    0.987 --     1 C    0.971
    17   1 H    0.965 --     1 C    0.944
    18   1 H    0.950 --     3 C    0.904
    19   1 H    0.982 --    10 C    0.965
    20   1 H    0.978 --    10 C    0.959
    21   1 H    0.974 --    10 C    0.953
    22   1 H    0.987 --    14 C    0.974
    23   1 H    0.970 --    14 C    0.951
    24   1 H    0.972 --    14 C    0.952
    25   1 H    0.949 --     4 N    0.671     5 C    0.248
 ---------------------------------------------------------------------------

molecular dipole:
                 x           y           z       tot (Debye)
 q only:        1.261      -0.884       0.039
   full:        1.326      -0.720       0.084       3.841

           -------------------------------------------------
          | TOTAL ENERGY              -42.123773528361 Eh   |
          | GRADIENT NORM               0.009011533000 Eh/α |
          | HOMO-LUMO GAP               0.855403674262 eV   |
           -------------------------------------------------

 * finished run on 2024/06/05 at 19:59:12.683
