   * xtb version 6.6.1 (8d0f1dd) compiled by 'conda@1efc2f54142f' on 2023-08-01
          program call               : xtb xtbopt.xyz --opt crude --input .xc2 --gfn2

   ID    Z sym.   atoms
    1    7 N      1, 17
    2    6 C      2-6, 8, 9, 11-16, 18-23, 25, 26, 28-33
    3    8 O      7, 10, 24, 27
    4    1 H      34-72

          :  Hamiltonian                  GFN2-xTB          :
 * total energy  :   -99.3561463 Eh     change       -0.1335820E-11 Eh
   *** GEOMETRY OPTIMIZATION CONVERGED AFTER 1 ITERATIONS ***

 final structure:
================
72
 xtb: 6.6.1 (8d0f1dd)
N           -1.54146681951554        3.54794240981278        1.34484354248283
C           -1.88682458635051        2.48692819116946        0.61344681208470
C           -3.43777414167904        2.14930661416074        0.42744059088492
C           -3.72656453757670        0.68811297256480        0.36662487107477
C           -4.50886146120269        0.21582283710736       -0.68811800763730
C           -4.82974747627280       -1.12772091409037       -0.79769465255277
O           -5.58254124867967       -1.67317537022386       -1.77062479483247
C           -6.17220626471961       -0.83520581184296       -2.73819518719643
C           -4.33999600698614       -2.04329633360212        0.17716944488551
O           -4.68680531914425       -3.32909025442775       -0.01573007763389
C           -4.29352288062710       -4.29945677841825        0.92697126200846
C           -3.56269481179341       -1.56134047741576        1.22100262686127
C           -3.26218048604502       -0.20954058009045        1.31705157668533
C           -2.65398360876337        2.70749169162757       -0.69322528684556
C           -1.23535874876434        0.17019061393658       -2.42548644375164
C           -0.07546501178736        0.43035593978656       -1.80645618791492
N            0.45452885542943       -0.24752288067200       -0.75205427327116
C            1.81606327184882        0.01294678213147       -0.36648262574700
C            2.83521075474852       -0.74981517200017       -1.24220176647337
C            4.23876382951991       -0.41628547812806       -0.83300693190507
C            4.79520343641990        0.81125510970587       -1.17188595633199
C            6.07933242590214        1.14502234269443       -0.77724998724087
C            6.84475799214766        0.25390375651636       -0.03487211167591
O            8.09669826891285        0.46840094709803        0.40114768929265
C            8.73330896177578        1.69077149676007        0.10570997703025
C            6.28849166339756       -1.01182331516776        0.30939783344691
O            7.10153314052817       -1.81972155615794        1.01247924612642
C            6.66512823956272       -3.11256409241285        1.36096956178904
C            4.99424480280656       -1.31695303730778       -0.08852118931331
C           -0.15816110742315       -1.47149976088589       -0.30252261481596
C           -4.46343959903463        2.95744444969304        1.20828396228148
C           -4.34155135935726        2.67589043422141        2.70617418480501
C           -4.38718582720784        4.45702496484215        0.95151918405453
H           -4.87024603288258        0.92362375565130       -1.41677472574844
H           -6.83132122206882       -0.09409212493494       -2.27658480122378
H           -6.75958930673627       -1.49351982352192       -3.37530704967619
H           -5.41542178850976       -0.32607291695732       -3.34286088809941
H           -4.68977529958556       -4.07569640096262        1.92163773413188
H           -4.71601073030124       -5.23768030019692        0.57286459321387
H           -3.20385854222294       -4.38943433985701        0.97892901021658
H           -3.18792556313241       -2.23519573545915        1.97448012794049
H           -2.65472481254787        0.13686545496458        2.13877438643767
H           -2.38131504437915        2.03507787102182       -1.49400140479224
H           -2.78924952843531        3.73542637068530       -0.97948149944961
H           -1.87077983560864       -0.65666849724105       -2.16598521222886
H           -1.54584506630374        0.77505388701541       -3.25704889062019
H           -1.28080914108096        1.57645744284179        0.64296987529207
H            0.51574146793094        1.27998339006800       -2.12099159395537
H            1.95113388273750       -0.27713559316253        0.67883031069080
H            2.00894952778792        1.08552011536531       -0.44847625176979
H            2.67328031538551       -0.46542273019085       -2.28413102683823
H            2.65823005211596       -1.82168459095069       -1.14684618612302
H            4.22685181409135        1.51538206099137       -1.76003440382587
H            6.48298142247944        2.10398964626612       -1.05805873623252
H            8.19040656617140        2.53807891678278        0.53502942714560
H            8.84209641846463        1.83444240911552       -0.97326692803033
H            9.71885283488127        1.62438000943702        0.56246965446672
H            7.50088560253377       -3.57094417006198        1.88618618832675
H            5.79620710165291       -3.07710190180772        2.02541391165169
H            6.42485063586646       -3.70642948294997        0.47391392501381
H            4.56488491860145       -2.27228949586110        0.16952572266933
H           -0.10207989580245       -2.25603369679906       -1.06384507170447
H           -1.20951055219971       -1.29493776008462       -0.06808196454485
H            0.34530436253357       -1.81760173336273        0.59747611243411
H           -5.44507981815284        2.59228064790048        0.87506139519161
H           -3.37180356155103        3.02087953668091        3.05903833493494
H           -4.44527713790996        1.61430592339414        2.91722536932599
H           -5.11568357973710        3.20928994089492        3.25027140772466
H           -3.39130797010135        4.81976631893416        1.19620602719515
H           -4.61655064658914        4.69590954573546       -0.08391370919119
H           -5.10922074723827        4.96881964875192        1.58239751316744
H           -0.78768984324105        3.40274818335480        2.00234988885789

          :  Hamiltonian                  GFN2-xTB          :
         :: total energy             -99.356146300614 Eh    ::
         :: gradient norm              0.003023172785 Eh/a0 ::
         :: HOMO-LUMO gap              0.781715962034 eV    ::
         :: SCC energy              -100.749223007063 Eh    ::
         :: -> dispersion             -0.071980586541 Eh    ::
         :: repulsion energy           1.391760238290 Eh    ::

    * Orbital Energies and Occupations

         #    Occupation            Energy/Eh            Energy/eV
      -------------------------------------------------------------
         1        2.0000           -0.8171652             -22.2362
       ...           ...                  ...                  ...
        78        1.9974           -0.5352471             -14.5648
        79        1.9969           -0.5321629             -14.4809
        80        1.9957           -0.5269199             -14.3382
        81        1.9948           -0.5239356             -14.2570
        82        1.9935           -0.5204289             -14.1616
        83        1.9923           -0.5177161             -14.0878
        84        1.9903           -0.5141725             -13.9913
        85        1.9718           -0.4971124             -13.5271
        86        1.9659           -0.4940437             -13.4436
        87        1.8680           -0.4717965             -12.8382
        88        1.8150           -0.4660032             -12.6806
        89        1.7958           -0.4642685             -12.6334
        90        1.6909           -0.4567502             -12.4288 (HOMO)
        91        0.9425           -0.4280227             -11.6471 (LUMO)
        92        0.0024           -0.3231145              -8.7924
        93        0.0020           -0.3203749              -8.7178
        94        0.0017           -0.3174653              -8.6387
        95        0.0015           -0.3160227              -8.5994
        96        0.0004           -0.2934870              -7.9862
        97        0.0000           -0.1976311              -5.3778
        98        0.0000           -0.1924266              -5.2362
        99        0.0000           -0.1719875              -4.6800
       100                         -0.1020941              -2.7781
       101                         -0.0699366              -1.9031
       ...                                ...                  ...
       171                          0.5681823              15.4610
      -------------------------------------------------------------
                  HL-Gap            0.0287275 Eh            0.7817 eV

     #   Z          covCN         q      C6AA      α(0)
     1   7 N        1.773    -0.314    28.944     7.967
     2   6 C        3.774     0.098    18.990     6.209
     3   6 C        3.910     0.028    20.044     6.364
     4   6 C        2.971     0.001    28.009     8.681
     5   6 C        2.921    -0.075    29.865     8.962
     6   6 C        2.862     0.134    25.059     8.205
     7   8 O        1.706    -0.221    17.673     5.676
     8   6 C        3.645     0.024    20.499     6.507
     9   6 C        2.863     0.132    25.113     8.214
    10   8 O        1.706    -0.221    17.671     5.676
    11   6 C        3.645     0.025    20.495     6.507
    12   6 C        2.913    -0.072    29.792     8.950
    13   6 C        2.920    -0.047    29.155     8.855
    14   6 C        3.809    -0.072    21.874     6.657
    15   6 C        2.838    -0.122    31.102     9.139
    16   6 C        2.841     0.021    27.522     8.598
    17   7 N        2.732    -0.047    22.148     6.990
    18   6 C        3.753    -0.007    20.764     6.498
    19   6 C        3.807    -0.071    21.848     6.654
    20   6 C        2.967     0.009    27.824     8.652
    21   6 C        2.922    -0.044    29.095     8.845
    22   6 C        2.912    -0.065    29.613     8.923
    23   6 C        2.864     0.136    25.024     8.200
    24   8 O        1.706    -0.213    17.537     5.654
    25   6 C        3.645     0.023    20.530     6.512
    26   6 C        2.862     0.136    25.022     8.199
    27   8 O        1.706    -0.216    17.585     5.662
    28   6 C        3.645     0.024    20.500     6.508
    29   6 C        2.919    -0.076    29.891     8.966
    30   6 C        3.699    -0.056    21.755     6.671
    31   6 C        3.852    -0.003    20.599     6.455
    32   6 C        3.757    -0.113    22.709     6.794
    33   6 C        3.755    -0.123    22.919     6.826
    34   1 H        0.926     0.058     2.220     2.330
    35   1 H        0.924     0.057     2.234     2.337
    36   1 H        0.925     0.084     1.934     2.175
    37   1 H        0.924     0.054     2.267     2.355
    38   1 H        0.924     0.058     2.220     2.330
    39   1 H        0.925     0.084     1.936     2.176
    40   1 H        0.924     0.051     2.305     2.374
    41   1 H        0.926     0.056     2.246     2.344
    42   1 H        0.926     0.052     2.299     2.371
    43   1 H        0.926     0.062     2.180     2.309
    44   1 H        0.926     0.086     1.923     2.168
    45   1 H        0.926     0.043     2.405     2.425
    46   1 H        0.926     0.051     2.310     2.377
    47   1 H        0.924     0.014     2.832     2.632
    48   1 H        0.925     0.053     2.285     2.364
    49   1 H        0.924     0.055     2.262     2.352
    50   1 H        0.924     0.061     2.193     2.316
    51   1 H        0.924     0.058     2.220     2.330
    52   1 H        0.924     0.053     2.281     2.362
    53   1 H        0.926     0.052     2.296     2.370
    54   1 H        0.926     0.062     2.173     2.305
    55   1 H        0.924     0.059     2.215     2.327
    56   1 H        0.924     0.060     2.197     2.318
    57   1 H        0.925     0.086     1.921     2.168
    58   1 H        0.925     0.085     1.928     2.172
    59   1 H        0.924     0.054     2.266     2.354
    60   1 H        0.924     0.057     2.233     2.337
    61   1 H        0.926     0.054     2.268     2.355
    62   1 H        0.924     0.060     2.196     2.317
    63   1 H        0.924     0.063     2.160     2.298
    64   1 H        0.925     0.062     2.179     2.308
    65   1 H        0.923     0.054     2.269     2.355
    66   1 H        0.925     0.057     2.234     2.338
    67   1 H        0.925     0.041     2.438     2.442
    68   1 H        0.925     0.056     2.249     2.345
    69   1 H        0.925     0.083     1.948     2.183
    70   1 H        0.925     0.045     2.379     2.412
    71   1 H        0.925     0.057     2.236     2.338
    72   1 H        0.860     0.148     1.414     1.862

Wiberg/Mayer (AO) data.
largest (>0.10) Wiberg bond orders for each atom

     #   Z sym  total        # sym  WBO       # sym  WBO       # sym  WBO
 ---------------------------------------------------------------------------
     1   7 N    2.395 --     2 C    1.354    72 H    0.948
     2   6 C    3.855 --     1 N    1.354    47 H    0.940    14 C    0.836
                             3 C    0.694
     3   6 C    3.757 --    14 C    1.002     4 C    1.002    31 C    0.977
                             2 C    0.694
     4   6 C    3.934 --    13 C    1.398     5 C    1.366     3 C    1.002
     5   6 C    3.945 --     6 C    1.394     4 C    1.366    34 H    0.961
     6   6 C    3.893 --     5 C    1.394     9 C    1.213     7 O    1.110
     7   8 O    2.253 --     6 C    1.110     8 C    0.975
     8   6 C    3.926 --    36 H    0.976     7 O    0.975    35 H    0.972
                            37 H    0.972
     9   6 C    3.886 --    12 C    1.383     6 C    1.213    10 O    1.110
    10   8 O    2.252 --     9 C    1.110    11 C    0.976
    11   6 C    3.928 --    39 H    0.976    10 O    0.976    40 H    0.972
                            38 H    0.972
    12   6 C    3.956 --    13 C    1.410     9 C    1.383    41 H    0.963
    13   6 C    3.936 --    12 C    1.410     4 C    1.398    42 H    0.966
    14   6 C    3.843 --     3 C    1.002    44 H    0.966    43 H    0.955
                             2 C    0.836
    15   6 C    3.803 --    16 C    1.721    46 H    0.975    45 H    0.974
    16   6 C    3.942 --    15 C    1.721    17 N    1.206    48 H    0.957
    17   7 N    3.357 --    16 C    1.206    30 C    1.007    18 C    1.005
    18   6 C    3.961 --    17 N    1.005    49 H    0.968    50 H    0.966
                            19 C    0.961
    19   6 C    3.971 --    20 C    1.015    52 H    0.973    51 H    0.966
                            18 C    0.961
    20   6 C    3.924 --    29 C    1.388    21 C    1.385    19 C    1.015
    21   6 C    3.926 --    22 C    1.430    20 C    1.385    53 H    0.967
    22   6 C    3.949 --    21 C    1.430    23 C    1.369    54 H    0.962
    23   6 C    3.870 --    22 C    1.369    26 C    1.208    24 O    1.120
    24   8 O    2.249 --    23 C    1.120    25 C    0.974
    25   6 C    3.923 --    57 H    0.976    24 O    0.974    55 H    0.971
                            56 H    0.971
    26   6 C    3.877 --    29 C    1.383    23 C    1.208    27 O    1.115
    27   8 O    2.250 --    26 C    1.115    28 C    0.976
    28   6 C    3.926 --    58 H    0.976    27 O    0.976    60 H    0.972
                            59 H    0.972
    29   6 C    3.948 --    20 C    1.388    26 C    1.383    61 H    0.961
    30   6 C    3.965 --    17 N    1.007    64 H    0.980    62 H    0.967
                            63 H    0.966
    31   6 C    3.967 --    33 C    1.008    32 C    0.995     3 C    0.977
                            65 H    0.938
    32   6 C    3.971 --    31 C    0.995    68 H    0.982    67 H    0.981
                            66 H    0.976
    33   6 C    3.966 --    31 C    1.008    70 H    0.980    71 H    0.978
                            69 H    0.962
    34   1 H    0.995 --     5 C    0.961
    35   1 H    0.991 --     8 C    0.972
    36   1 H    0.992 --     8 C    0.976
    37   1 H    0.991 --     8 C    0.972
    38   1 H    0.991 --    11 C    0.972
    39   1 H    0.992 --    11 C    0.976
    40   1 H    0.991 --    11 C    0.972
    41   1 H    0.995 --    12 C    0.963
    42   1 H    0.996 --    13 C    0.966
    43   1 H    0.989 --    14 C    0.955
    44   1 H    0.988 --    14 C    0.966
    45   1 H    0.997 --    15 C    0.974
    46   1 H    0.997 --    15 C    0.975
    47   1 H    0.975 --     2 C    0.940
    48   1 H    0.997 --    16 C    0.957
    49   1 H    0.993 --    18 C    0.968
    50   1 H    0.993 --    18 C    0.966
    51   1 H    0.993 --    19 C    0.966
    52   1 H    0.996 --    19 C    0.973
    53   1 H    0.996 --    21 C    0.967
    54   1 H    0.994 --    22 C    0.962
    55   1 H    0.989 --    25 C    0.971
    56   1 H    0.988 --    25 C    0.971
    57   1 H    0.992 --    25 C    0.976
    58   1 H    0.992 --    28 C    0.976
    59   1 H    0.990 --    28 C    0.972
    60   1 H    0.990 --    28 C    0.972
    61   1 H    0.995 --    29 C    0.961
    62   1 H    0.982 --    30 C    0.967
    63   1 H    0.989 --    30 C    0.966
    64   1 H    0.996 --    30 C    0.980
    65   1 H    0.974 --    31 C    0.938
    66   1 H    0.993 --    32 C    0.976
    67   1 H    0.996 --    32 C    0.981
    68   1 H    0.994 --    32 C    0.982
    69   1 H    0.985 --    33 C    0.962
    70   1 H    0.994 --    33 C    0.980
    71   1 H    0.992 --    33 C    0.978
    72   1 H    0.969 --     1 N    0.948
 ---------------------------------------------------------------------------

molecular dipole:
                 x           y           z       tot (Debye)
 q only:        0.503      -0.267      -0.208
   full:        0.674      -0.576      -0.212       2.317

           -------------------------------------------------
          | TOTAL ENERGY              -99.356146300614 Eh   |
          | GRADIENT NORM               0.003023172785 Eh/α |
          | HOMO-LUMO GAP               0.781715962034 eV   |
           -------------------------------------------------

 * finished run on 2024/04/06 at 11:13:21.485
