   * xtb version 6.6.1 (8d0f1dd) compiled by 'conda@1efc2f54142f' on 2023-08-01
          program call               : xtb struc.xyz --opt loose --input .xc1 --gfn2

   ID    Z sym.   atoms
    1    6 C      1, 3, 5-7, 10, 11, 14
    2    7 N      2, 4, 9, 13
    3    8 O      8, 12
    4    1 H      15-25
constraining bond 2 8 to    5.6800000 Å, actual value:    3.0543308 Å

          :  Hamiltonian                  GFN2-xTB          :
 * total energy  :   -29.9381525 Eh     change       -0.6650680E-10 Eh
 * total energy  :   -34.4701839 Eh     change       -0.4532031E+01 Eh
 * total energy  :   -37.8574972 Eh     change       -0.3387313E+01 Eh
 * total energy  :   -40.1102361 Eh     change       -0.2252739E+01 Eh
 * total energy  :   -41.2967613 Eh     change       -0.1186525E+01 Eh
 * total energy  :   -41.6581100 Eh     change       -0.3613487E+00 Eh
 * total energy  :   -41.6992537 Eh     change       -0.4114365E-01 Eh
 * total energy  :   -41.7265196 Eh     change       -0.2726593E-01 Eh
 * total energy  :   -41.7742342 Eh     change       -0.4771460E-01 Eh
 * total energy  :   -41.7972015 Eh     change       -0.2296726E-01 Eh
 * total energy  :   -42.1184443 Eh     change       -0.6940455E-03 Eh
 * total energy  :   -42.1187304 Eh     change       -0.2860891E-03 Eh
 * total energy  :   -42.1190024 Eh     change       -0.2720340E-03 Eh
 * total energy  :   -42.1195671 Eh     change       -0.5646887E-03 Eh
 * total energy  :   -42.1197579 Eh     change       -0.1907775E-03 Eh
 * total energy  :   -42.1200143 Eh     change       -0.2564350E-03 Eh
 * total energy  :   -42.1201837 Eh     change       -0.1693387E-03 Eh
 * total energy  :   -42.1203148 Eh     change       -0.1311569E-03 Eh
 * total energy  :   -42.1203481 Eh     change       -0.3325318E-04 Eh
   *** GEOMETRY OPTIMIZATION CONVERGED AFTER 75 ITERATIONS ***

 final structure:
================
25
 xtb: 6.6.1 (8d0f1dd)
C            4.12478489172241        0.39702621732709        0.14413680064679
N            3.73319372393451       -0.80368069575274        0.31116102193956
C            2.77903835636005       -1.59973905419143       -0.03502521163597
N            1.42083739931955       -1.45702728450285       -0.16050857460523
C            0.44347100015868       -0.50018545635512       -0.04309771777852
C            0.57691752141816        0.88667206908707       -0.04979892345870
C           -0.54033695855129        1.71366767173500       -0.05230990512026
O           -0.42017537363813        3.04345845599876       -0.08006557745668
N           -1.80345340216894        1.16891676818415       -0.06819354607342
C           -2.93358502708866        1.88688213990744       -0.17173120950793
C           -1.97963950244086       -0.24799378749603        0.04258377408279
O           -3.08765255008601       -0.70814215030612        0.11635442426398
N           -0.84249465578159       -1.01673975549572        0.04683220670548
C           -1.08387221663856       -2.45072062577706        0.16282063295949
H            4.89593963368090        0.77371056732804        0.79643207108913
H            3.80419185446206        1.02327097864793       -0.68272031898704
H            1.54578795166753        1.35193238480730       -0.06728212220077
H            3.08251022794657       -2.63612872758867       -0.13616962821181
H           -1.23308068571771        3.50335152770942        0.17122345991968
H           -2.92324961802172        2.93784464397674       -0.38005644310283
H           -3.86092102646243        1.34974684477803       -0.13072456569684
H           -0.53774588836245       -2.87208764302366        1.00748672259641
H           -0.84855995277607       -2.97394023596397       -0.76674832783352
H           -2.15038313509688       -2.58183445202628        0.34865172999900
H            0.99890894626138       -2.37002185940695       -0.29207915463291

          :  Hamiltonian                  GFN2-xTB          :
         :: total energy             -42.120348096402 Eh    ::
         :: gradient norm              0.002509866594 Eh/a0 ::
         :: HOMO-LUMO gap              0.877208746662 eV    ::
         :: SCC energy               -42.658163258759 Eh    ::
         :: -> dispersion             -0.021651714701 Eh    ::
         :: repulsion energy           0.537713253896 Eh    ::

    * Orbital Energies and Occupations

         #    Occupation            Energy/Eh            Energy/eV
      -------------------------------------------------------------
         1        2.0000           -0.8849840             -24.0816
       ...           ...                  ...                  ...
        25        2.0000           -0.6704590             -18.2441
        26        2.0000           -0.6548643             -17.8198
        27        2.0000           -0.6471480             -17.6098
        28        2.0000           -0.6429287             -17.4950
        29        1.9999           -0.6342083             -17.2577
        30        1.9999           -0.6270717             -17.0635
        31        1.9998           -0.6170986             -16.7921
        32        1.9998           -0.6152226             -16.7411
        33        1.9995           -0.6012843             -16.3618
        34        1.9978           -0.5782404             -15.7347
        35        1.9949           -0.5646169             -15.3640
        36        1.9908           -0.5553403             -15.1116
        37        1.4518           -0.4856411             -13.2150 (HOMO)
        38        0.5139           -0.4534043             -12.3378 (LUMO)
        39        0.0426           -0.4096015             -11.1458
        40        0.0076           -0.3821287             -10.3983
        41        0.0018           -0.3587927              -9.7632
        42        0.0000           -0.2888059              -7.8588
        43                         -0.1940380              -5.2800
        44                         -0.1612969              -4.3891
        45                         -0.1317587              -3.5853
        46                         -0.1046222              -2.8469
        47                         -0.0898418              -2.4447
        48                         -0.0642718              -1.7489
       ...                                ...                  ...
        67                          0.5778486              15.7241
      -------------------------------------------------------------
                  HL-Gap            0.0322368 Eh            0.8772 eV

     #   Z          covCN         q      C6AA      α(0)
     1   6 C        2.775     0.006    27.869     8.646
     2   7 N        1.822    -0.069    23.301     7.152
     3   6 C        2.760     0.081    26.166     8.377
     4   7 N        2.691    -0.101    23.216     7.156
     5   6 C        2.827     0.108    25.597     8.290
     6   6 C        2.904    -0.096    30.414     9.043
     7   6 C        2.783     0.194    23.860     8.001
     8   8 O        1.660    -0.337    19.672     5.988
     9   7 N        2.739    -0.005    21.359     6.864
    10   6 C        2.811    -0.066    29.625     8.918
    11   6 C        2.747     0.309    21.743     7.635
    12   8 O        0.859    -0.370    21.082     6.156
    13   7 N        2.748    -0.060    22.405     7.030
    14   6 C        3.706    -0.080    22.173     6.731
    15   1 H        0.926     0.111     1.684     2.030
    16   1 H        0.925     0.082     1.960     2.189
    17   1 H        0.926     0.103     1.755     2.072
    18   1 H        0.925     0.100     1.783     2.088
    19   1 H        0.805     0.345     0.600     1.217
    20   1 H        0.926     0.088     1.901     2.156
    21   1 H        0.926     0.124     1.580     1.965
    22   1 H        0.924     0.084     1.934     2.175
    23   1 H        0.924     0.083     1.949     2.183
    24   1 H        0.924     0.133     1.513     1.924
    25   1 H        0.860     0.230     0.967     1.541

Wiberg/Mayer (AO) data.
largest (>0.10) Wiberg bond orders for each atom

     #   Z sym  total        # sym  WBO       # sym  WBO       # sym  WBO
 ---------------------------------------------------------------------------
     1   6 C    3.679 --     2 N    1.680    15 H    0.953    16 H    0.939
     2   7 N    3.295 --     1 C    1.680     3 C    1.482
     3   6 C    3.744 --     2 N    1.482     4 N    1.194    18 H    0.936
     4   7 N    3.501 --     3 C    1.194     5 C    1.169    25 H    0.895
     5   6 C    3.824 --     6 C    1.346     4 N    1.169    13 N    1.125
     6   6 C    3.921 --     7 C    1.373     5 C    1.346    17 H    0.952
     7   6 C    3.814 --     6 C    1.373     8 O    1.142     9 N    1.133
     8   8 O    2.157 --     7 C    1.142    19 H    0.841
     9   7 N    3.645 --    10 C    1.310     7 C    1.133    11 C    0.983
    10   6 C    3.436 --     9 N    1.310    20 H    0.961    21 H    0.960
    11   6 C    3.925 --    12 O    1.690    13 N    1.151     9 N    0.983
    12   8 O    2.028 --    11 C    1.690    13 N    0.153
    13   7 N    3.546 --    11 C    1.151     5 C    1.125    14 C    0.976
                            12 O    0.153
    14   6 C    3.930 --    13 N    0.976    22 H    0.968    23 H    0.962
                            24 H    0.955
    15   1 H    0.981 --     1 C    0.953
    16   1 H    0.977 --     1 C    0.939
    17   1 H    0.988 --     6 C    0.952
    18   1 H    0.983 --     3 C    0.936
    19   1 H    0.879 --     8 O    0.841
    20   1 H    0.991 --    10 C    0.961
    21   1 H    0.984 --    10 C    0.960
    22   1 H    0.990 --    14 C    0.968
    23   1 H    0.990 --    14 C    0.962
    24   1 H    0.982 --    14 C    0.955
    25   1 H    0.947 --     4 N    0.895
 ---------------------------------------------------------------------------

molecular dipole:
                 x           y           z       tot (Debye)
 q only:        1.401      -0.275      -0.003
   full:        1.247      -0.107      -0.086       3.189

           -------------------------------------------------
          | TOTAL ENERGY              -42.120348096402 Eh   |
          | GRADIENT NORM               0.002509866594 Eh/α |
          | HOMO-LUMO GAP               0.877208746662 eV   |
           -------------------------------------------------

 * finished run on 2024/06/05 at 19:57:52.756
