   * xtb version 6.6.1 (8d0f1dd) compiled by 'conda@1efc2f54142f' on 2023-08-01
          program call               : xtb xtbopt.xyz --opt crude --input .xc2 --gfn2

   ID    Z sym.   atoms
    1    6 C      1, 3, 5-7, 10, 11, 14
    2    7 N      2, 4, 9, 13
    3    8 O      8, 12
    4    1 H      15-25

          :  Hamiltonian                  GFN2-xTB          :
 * total energy  :   -42.1030256 Eh     change       -0.2295053E-11 Eh
   *** GEOMETRY OPTIMIZATION CONVERGED AFTER 1 ITERATIONS ***

 final structure:
================
25
 xtb: 6.6.1 (8d0f1dd)
C            3.25315570840306        1.24022001446061        0.01824117400285
N            2.31881562489185        0.14827973828559       -0.04636845595021
C            2.61041841954619       -1.14640623459705       -0.09872664295565
N            1.47558886889927       -1.87550311830408       -0.13640293784171
C            0.41441819904690       -1.00432977127477       -0.10280812113860
C            0.95068789126158        0.27672658275373       -0.04642184233387
C            0.12216908859227        1.46236449225387       -0.02365441909047
O            0.51856552889223        2.60539953078806       -0.01210398197833
N           -1.23692383548223        1.12697767806770       -0.02203999993727
C           -2.19292784541921        2.23010895467848        0.02298260876140
C           -1.81075581828449       -0.11367840951625       -0.05592395577277
O           -2.99161522919935       -0.30535511225700       -0.03983283845151
N           -0.91432042580580       -1.26518254433922       -0.12123856567780
C           -1.47233724397663       -2.48250557573371       -0.19835251586071
H            3.74029106171398        1.26242674748272        0.99457682962550
H            4.01564200748137        1.13271935667894       -0.75215536030527
H            2.71144243672986        2.17490735864159       -0.12509130293004
H            3.59996212591183       -1.56097752679258       -0.11140230692205
H           -1.63217058831718        3.16135591610883        0.02880797177536
H           -2.84695746843907        2.18774531293985       -0.84677957312182
H           -2.80429329423551        2.15148331571711        0.92104528756559
H           -2.69210107733703       -4.80820438941050        1.41311264155934
H           -0.86820644277593       -3.36388360947784       -0.24518047002964
H           -2.54309948526137       -2.53266284503937       -0.21235517217027
H            1.43498330726351       -2.88378732051515       -0.17075643292213

          :  Hamiltonian                  GFN2-xTB          :
         :: total energy             -42.103025645966 Eh    ::
         :: gradient norm              0.002477772351 Eh/a0 ::
         :: HOMO-LUMO gap              0.214366692744 eV    ::
         :: SCC energy               -42.626416541725 Eh    ::
         :: -> dispersion             -0.022646937587 Eh    ::
         :: repulsion energy           0.523306383531 Eh    ::

    * Orbital Energies and Occupations

         #    Occupation            Energy/Eh            Energy/eV
      -------------------------------------------------------------
         1        2.0000           -0.9188483             -25.0031
       ...           ...                  ...                  ...
        25        2.0000           -0.6703728             -18.2418
        26        2.0000           -0.6702249             -18.2377
        27        2.0000           -0.6612462             -17.9934
        28        1.9999           -0.6374186             -17.3450
        29        1.9998           -0.6334289             -17.2365
        30        1.9998           -0.6295676             -17.1314
        31        1.9996           -0.6211000             -16.9010
        32        1.9986           -0.6001814             -16.3318
        33        1.9976           -0.5913785             -16.0922
        34        1.9967           -0.5867654             -15.9667
        35        1.9879           -0.5658408             -15.3973
        36        1.9867           -0.5643786             -15.3575
        37        1.0861           -0.4878411             -13.2748 (HOMO)
        38        0.8390           -0.4799633             -13.0605 (LUMO)
        39        0.0965           -0.4378936             -11.9157
        40        0.0099           -0.4010745             -10.9138
        41        0.0019           -0.3752346             -10.2107
        42        0.0000           -0.2904832              -7.9044
        43                         -0.2154259              -5.8620
        44                         -0.2024062              -5.5078
        45                         -0.1526793              -4.1546
        46                         -0.1366209              -3.7176
        47                         -0.0700972              -1.9074
        48                         -0.0420671              -1.1447
       ...                                ...                  ...
        67                          0.5544816              15.0882
      -------------------------------------------------------------
                  HL-Gap            0.0078778 Eh            0.2144 eV

     #   Z          covCN         q      C6AA      α(0)
     1   6 C        3.691    -0.096    22.537     6.793
     2   7 N        2.831     0.086    19.752     6.601
     3   6 C        3.051     0.054    26.734     8.480
     4   7 N        2.790    -0.056    22.331     7.018
     5   6 C        3.038     0.093    25.901     8.347
     6   6 C        3.114    -0.016    28.250     8.707
     7   6 C        2.763     0.267    22.493     7.767
     8   8 O        0.858    -0.364    20.978     6.141
     9   7 N        2.744    -0.078    22.756     7.085
    10   6 C        3.713    -0.064    21.872     6.682
    11   6 C        2.734     0.311    21.721     7.630
    12   8 O        0.859    -0.336    20.436     6.061
    13   7 N        2.735     0.009    21.099     6.822
    14   6 C        2.797    -0.057    29.390     8.881
    15   1 H        0.924     0.111     1.689     2.032
    16   1 H        0.925     0.107     1.721     2.052
    17   1 H        0.925     0.139     1.465     1.893
    18   1 H        0.926     0.128     1.548     1.945
    19   1 H        0.925     0.117     1.642     2.004
    20   1 H        0.925     0.099     1.792     2.093
    21   1 H        0.925     0.099     1.794     2.095
    22   1 H        0.000    -0.008     7.963     5.160
    23   1 H        0.927     0.090     1.881     2.144
    24   1 H        0.926     0.135     1.497     1.913
    25   1 H        0.860     0.230     0.965     1.539

Wiberg/Mayer (AO) data.
largest (>0.10) Wiberg bond orders for each atom

     #   Z sym  total        # sym  WBO       # sym  WBO       # sym  WBO
 ---------------------------------------------------------------------------
     1   6 C    3.912 --     2 N    0.984    16 H    0.963    17 H    0.959
                            15 H    0.954
     2   7 N    3.674 --     3 C    1.386     6 C    1.165     1 C    0.984
     3   6 C    3.844 --     2 N    1.386     4 N    1.289    18 H    0.951
     4   7 N    3.555 --     3 C    1.289     5 C    1.166    25 H    0.918
     5   6 C    3.886 --     6 C    1.339     4 N    1.166    13 N    1.164
     6   6 C    3.858 --     5 C    1.339     2 N    1.165     7 C    1.074
     7   6 C    3.917 --     8 O    1.676     9 N    1.081     6 C    1.074
     8   8 O    1.989 --     7 C    1.676     9 N    0.138
     9   7 N    3.569 --    11 C    1.170     7 C    1.081    10 C    0.962
                            12 O    0.151     8 O    0.138
    10   6 C    3.910 --    19 H    0.968    20 H    0.966    21 H    0.965
                             9 N    0.962
    11   6 C    3.925 --    12 O    1.730     9 N    1.170    13 N    0.930
    12   8 O    2.058 --    11 C    1.730     9 N    0.151
    13   7 N    3.623 --    14 C    1.304     5 C    1.164    11 C    0.930
    14   6 C    3.350 --    13 N    1.304    23 H    0.969    24 H    0.957
    15   1 H    0.984 --     1 C    0.954
    16   1 H    0.986 --     1 C    0.963
    17   1 H    0.980 --     1 C    0.959
    18   1 H    0.982 --     3 C    0.951
    19   1 H    0.985 --    10 C    0.968
    20   1 H    0.986 --    10 C    0.966
    21   1 H    0.986 --    10 C    0.965
    22   1 H    0.015
    23   1 H    0.991 --    14 C    0.969
    24   1 H    0.981 --    14 C    0.957
    25   1 H    0.946 --     4 N    0.918
 ---------------------------------------------------------------------------

molecular dipole:
                 x           y           z       tot (Debye)
 q only:        2.702      -1.630      -0.189
   full:        2.977      -2.217      -0.197       9.448

           -------------------------------------------------
          | TOTAL ENERGY              -42.103025645966 Eh   |
          | GRADIENT NORM               0.002477772351 Eh/α |
          | HOMO-LUMO GAP               0.214366692744 eV   |
           -------------------------------------------------

 * finished run on 2024/06/05 at 19:58:59.996
