   * xtb version 6.6.1 (8d0f1dd) compiled by 'conda@1efc2f54142f' on 2023-08-01
          program call               : xtb struc.xyz --opt loose --input .xc1 --gfn2

   ID    Z sym.   atoms
    1    6 C      1, 3, 5-7, 10, 11, 14
    2    7 N      2, 4, 9, 13
    3    8 O      8, 12
    4    1 H      15-25
constraining bond 11 14 to    5.0000000 Å, actual value:    2.4709087 Å

          :  Hamiltonian                  GFN2-xTB          :
 * total energy  :   -30.8244791 Eh     change       -0.6633627E-10 Eh
 * total energy  :   -35.0298852 Eh     change       -0.4205406E+01 Eh
 * total energy  :   -38.3204133 Eh     change       -0.3290528E+01 Eh
 * total energy  :   -40.4151754 Eh     change       -0.2094762E+01 Eh
 * total energy  :   -41.4090352 Eh     change       -0.9938598E+00 Eh
 * total energy  :   -41.6285333 Eh     change       -0.2194981E+00 Eh
 * total energy  :   -41.6683000 Eh     change       -0.3976674E-01 Eh
 * total energy  :   -41.6903856 Eh     change       -0.2208557E-01 Eh
 * total energy  :   -41.7087427 Eh     change       -0.1835708E-01 Eh
 * total energy  :   -41.7379405 Eh     change       -0.2919780E-01 Eh
 * total energy  :   -42.1466127 Eh     change       -0.9659361E-04 Eh
 * total energy  :   -42.1467237 Eh     change       -0.1109966E-03 Eh
 * total energy  :   -42.1467778 Eh     change       -0.5408355E-04 Eh
 * total energy  :   -42.1468467 Eh     change       -0.6894697E-04 Eh
 * total energy  :   -42.1468813 Eh     change       -0.3458959E-04 Eh
 * total energy  :   -42.1469409 Eh     change       -0.5957825E-04 Eh
 * total energy  :   -42.1469504 Eh     change       -0.9441179E-05 Eh
 * total energy  :   -42.1470162 Eh     change       -0.6585106E-04 Eh
 * total energy  :   -42.1470453 Eh     change       -0.2905156E-04 Eh
   *** GEOMETRY OPTIMIZATION CONVERGED AFTER 96 ITERATIONS ***

 final structure:
================
25
 xtb: 6.6.1 (8d0f1dd)
C            3.00053490284562        1.21770646977838        0.51301617555756
N            2.09332883689946        0.14445425892781        0.21476404174345
C            2.43786884199285       -1.08762318321911       -0.05931745465486
N            1.36576131033816       -1.85043819791254       -0.26951006310701
C            0.18624569292682       -1.07420061998328       -0.13051454547155
C            0.68750301661306        0.24030333098011        0.21150013776081
C            0.08779722623143        1.45261156555750        0.48865607955292
O            0.50686401529141        2.55011209002450        0.71089185267899
N           -1.52599198898977        1.35314096205037        0.50063212253405
C           -2.15930486031533        1.27233185195366       -0.80597529219945
C           -2.06219706773330        1.58384725815113        1.58701196928259
O           -2.45740776016650        1.76513770251453        2.63873209854878
N           -1.00836235040844       -1.44917353686064       -0.30705747670542
C           -1.32357745317261       -2.80451201497684       -0.68877917575895
H            2.91893591626863        1.50202154984229        1.56318829361248
H            4.01926899906305        0.89937861302160        0.30345987131853
H            2.75945311999379        2.09313934221527       -0.08863160882894
H            3.45358012376182       -1.43728484622402       -0.10927259412506
H           -1.79527179167844        2.09093709727084       -1.42718263794598
H           -1.88913082318475        0.30783614711999       -1.23601263722265
H           -3.24083964182979        1.33835990977455       -0.70659634198783
H           -0.93738015538193       -3.53323215287379        0.02807414235401
H           -0.92756024526516       -3.04102838785936       -1.67974822148430
H           -2.40759312369796       -2.88474224733301       -0.71817216571377
H            1.37790677368663       -2.83084442033771       -0.50198495184561

          :  Hamiltonian                  GFN2-xTB          :
         :: total energy             -42.147045261502 Eh    ::
         :: gradient norm              0.001575496168 Eh/a0 ::
         :: HOMO-LUMO gap              1.816315949641 eV    ::
         :: SCC energy               -42.727172826367 Eh    ::
         :: -> dispersion             -0.021916738267 Eh    ::
         :: repulsion energy           0.579899357429 Eh    ::

    * Orbital Energies and Occupations

         #    Occupation            Energy/Eh            Energy/eV
      -------------------------------------------------------------
         1        2.0000           -0.9456273             -25.7318
       ...           ...                  ...                  ...
        25        2.0000           -0.6694721             -18.2173
        26        2.0000           -0.6677717             -18.1710
        27        2.0000           -0.6450473             -17.5526
        28        2.0000           -0.6384803             -17.3739
        29        2.0000           -0.6321171             -17.2008
        30        2.0000           -0.6287802             -17.1100
        31        2.0000           -0.6011248             -16.3574
        32        2.0000           -0.5996568             -16.3175
        33        2.0000           -0.5977551             -16.2657
        34        2.0000           -0.5860154             -15.9463
        35        2.0000           -0.5838471             -15.8873
        36        1.9891           -0.5167223             -14.0607
        37        1.9749           -0.5100567             -13.8794 (HOMO)
        38        0.0337           -0.4433084             -12.0630 (LUMO)
        39        0.0024           -0.4221268             -11.4867
        40        0.0000           -0.3768806             -10.2554
        41        0.0000           -0.3660626              -9.9611
        42                         -0.2899735              -7.8906
        43                         -0.2676053              -7.2819
        44                         -0.1725464              -4.6952
        45                         -0.1257274              -3.4212
        46                         -0.0964681              -2.6250
        47                         -0.0821943              -2.2366
        48                         -0.0397351              -1.0812
       ...                                ...                  ...
        67                          1.0649831              28.9797
      -------------------------------------------------------------
                  HL-Gap            0.0667484 Eh            1.8163 eV

     #   Z          covCN         q      C6AA      α(0)
     1   6 C        3.694    -0.085    22.307     6.757
     2   7 N        2.815     0.064    20.126     6.663
     3   6 C        2.970     0.084    26.125     8.384
     4   7 N        2.780    -0.102    23.242     7.160
     5   6 C        2.942     0.145    24.850     8.176
     6   6 C        3.047    -0.046    29.105     8.848
     7   6 C        2.733     0.259    22.642     7.790
     8   8 O        0.857    -0.326    20.250     6.033
     9   7 N        2.697    -0.027    21.765     6.929
    10   6 C        3.695    -0.074    22.098     6.725
    11   6 C        1.793     0.352    23.443     7.825
    12   8 O        0.856    -0.083    16.273     5.408
    13   7 N        1.823    -0.279    28.091     7.853
    14   6 C        3.707    -0.033    21.301     6.597
    15   1 H        0.924     0.107     1.723     2.052
    16   1 H        0.925     0.096     1.826     2.113
    17   1 H        0.925     0.116     1.646     2.006
    18   1 H        0.926     0.109     1.707     2.043
    19   1 H        0.925     0.111     1.688     2.032
    20   1 H        0.925     0.131     1.525     1.931
    21   1 H        0.925     0.104     1.750     2.069
    22   1 H        0.924     0.044     2.393     2.419
    23   1 H        0.924     0.048     2.349     2.397
    24   1 H        0.925     0.072     2.069     2.249
    25   1 H        0.860     0.215     1.032     1.591

Wiberg/Mayer (AO) data.
largest (>0.10) Wiberg bond orders for each atom

     #   Z sym  total        # sym  WBO       # sym  WBO       # sym  WBO
 ---------------------------------------------------------------------------
     1   6 C    3.931 --     2 N    0.992    16 H    0.974    17 H    0.960
                            15 H    0.958
     2   7 N    3.698 --     3 C    1.452     6 C    1.061     1 C    0.992
                             4 N    0.125
     3   6 C    3.951 --     2 N    1.452     4 N    1.329    18 H    0.950
     4   7 N    3.568 --     3 C    1.329     5 C    1.024    25 H    0.925
                             2 N    0.125    13 N    0.105
     5   6 C    3.955 --    13 N    1.683     6 C    1.123     4 N    1.024
     6   6 C    3.882 --     7 C    1.333     5 C    1.123     2 N    1.061
                             8 O    0.140
     7   6 C    3.920 --     8 O    1.758     6 C    1.333     9 N    0.636
     8   8 O    2.200 --     7 C    1.758     6 C    0.140
     9   7 N    3.583 --    11 C    1.651    10 C    0.929     7 C    0.636
                            12 O    0.263
    10   6 C    3.894 --    21 H    0.974    19 H    0.965    20 H    0.947
                             9 N    0.929
    11   6 C    3.907 --    12 O    2.132     9 N    1.651
    12   8 O    2.508 --    11 C    2.132     9 N    0.263
    13   7 N    3.056 --     5 C    1.683    14 C    1.021     4 N    0.105
    14   6 C    3.973 --    13 N    1.021    24 H    0.980    22 H    0.967
                            23 H    0.964
    15   1 H    0.988 --     1 C    0.958
    16   1 H    0.990 --     1 C    0.974
    17   1 H    0.986 --     1 C    0.960
    18   1 H    0.987 --     3 C    0.950
    19   1 H    0.988 --    10 C    0.965
    20   1 H    0.983 --    10 C    0.947
    21   1 H    0.989 --    10 C    0.974
    22   1 H    0.993 --    14 C    0.967
    23   1 H    0.992 --    14 C    0.964
    24   1 H    0.993 --    14 C    0.980
    25   1 H    0.953 --     4 N    0.925
 ---------------------------------------------------------------------------

molecular dipole:
                 x           y           z       tot (Debye)
 q only:        0.848      -0.405      -0.202
   full:        1.194      -0.911      -0.248       3.869

           -------------------------------------------------
          | TOTAL ENERGY              -42.147045261502 Eh   |
          | GRADIENT NORM               0.001575496168 Eh/α |
          | HOMO-LUMO GAP               1.816315949641 eV   |
           -------------------------------------------------

 * finished run on 2024/06/05 at 19:58:07.103
