   * xtb version 6.6.1 (8d0f1dd) compiled by 'conda@1efc2f54142f' on 2023-08-01
          program call               : xtb xtbopt.xyz --opt crude --input .xc2 --gfn2

   ID    Z sym.   atoms
    1    6 C      1, 3, 5-7, 10, 11, 14
    2    7 N      2, 4, 9, 13
    3    8 O      8, 12
    4    1 H      15-25
########################################################################
[WARNING] Please study the warnings concerning your input carefully
-1- readin_getIntValue: could not parse ''
########################################################################

          :  Hamiltonian                  GFN2-xTB          :
 * total energy  :   -40.4245664 Eh     change       -0.2131628E-13 Eh
 * total energy  :   -42.1176776 Eh     change       -0.1693111E+01 Eh
 * total energy  :   -42.1467552 Eh     change       -0.2907753E-01 Eh
 * total energy  :   -42.1533965 Eh     change       -0.6641330E-02 Eh
 * total energy  :   -42.1567005 Eh     change       -0.3303961E-02 Eh
 * total energy  :   -42.1573895 Eh     change       -0.6890856E-03 Eh
 * total energy  :   -42.1581265 Eh     change       -0.7369509E-03 Eh
 * total energy  :   -42.1586290 Eh     change       -0.5025075E-03 Eh
 * total energy  :   -42.1591689 Eh     change       -0.5399114E-03 Eh
 * total energy  :   -42.1593668 Eh     change       -0.1978717E-03 Eh
   *** GEOMETRY OPTIMIZATION CONVERGED AFTER 10 ITERATIONS ***

 final structure:
================
25
 xtb: 6.6.1 (8d0f1dd)
C            2.93595087595700        1.09289891789573       -0.27836295954648
N            2.12212301341684       -0.06899747513918       -0.03867371225766
C            2.57325598675473       -1.30407241688839        0.11309374282653
N            1.54237007650992       -2.13347446553587        0.31331514646736
C            0.36681818900838       -1.40619618031037        0.26098137182711
C            0.74696809784292       -0.08666567717235        0.01121557468997
C           -0.06262841073636        1.15626302622084        0.12713439812305
O            0.39431139808428        2.12494680861131        0.69341896154478
N           -1.34489634121099        1.10675341293535       -0.35681418802966
C           -2.28163296911662        2.13421194238940        0.06314551811213
C           -1.79532213089846        0.22597124700312       -1.32188218874863
O           -2.92976110425010        0.18838738040876       -1.68993890480755
N           -0.87894209368857       -1.89758783040540        0.32883597754269
C           -1.29024722521979       -2.89365029173821        0.99815700059894
H            3.96414825805959        0.88725479713101        0.01051283907228
H            2.90697723738225        1.36162767660983       -1.33634625184391
H            2.54777763355880        1.93192263730637        0.30116981604530
H            3.60524514304493       -1.59638538345877        0.07416352279804
H           -1.82454172330721        2.73385660183835        0.84621749615191
H           -2.54538771160804        2.77176894475955       -0.78116061340239
H           -3.19175661258969        1.65737740065253        0.42704960782882
H           -0.69704645701644       -3.44676881448362        1.72548887195370
H           -0.99692078765686       -0.39157881029813       -1.75449625945342
H           -2.31573657166731       -3.19615777058895        0.85195157670342
H            1.60930574344775       -3.13346713614391        0.44299527370427

          :  Hamiltonian                  GFN2-xTB          :
         :: total energy             -42.159366783741 Eh    ::
         :: gradient norm              0.004165406099 Eh/a0 ::
         :: HOMO-LUMO gap              2.496012361625 eV    ::
         :: SCC energy               -42.700958217910 Eh    ::
         :: -> dispersion             -0.022328884939 Eh    ::
         :: repulsion energy           0.541385092921 Eh    ::

    * Orbital Energies and Occupations

         #    Occupation            Energy/Eh            Energy/eV
      -------------------------------------------------------------
         1        2.0000           -0.9124750             -24.8297
       ...           ...                  ...                  ...
        25        2.0000           -0.6649726             -18.0948
        26        1.9999           -0.6599139             -17.9572
        27        1.9999           -0.6541528             -17.8004
        28        1.9999           -0.6483521             -17.6426
        29        1.9998           -0.6385508             -17.3759
        30        1.9995           -0.6269681             -17.0607
        31        1.9991           -0.6173786             -16.7997
        32        1.9971           -0.5991016             -16.3024
        33        1.9963           -0.5954340             -16.2026
        34        1.9841           -0.5720993             -15.5676
        35        1.9633           -0.5586947             -15.2029
        36        1.9431           -0.5515589             -15.0087
        37        1.9281           -0.5477332             -14.9046 (HOMO)
        38        0.1511           -0.4560064             -12.4086 (LUMO)
        39        0.0349           -0.4318440             -11.7511
        40        0.0036           -0.3957545             -10.7690
        41        0.0003           -0.3579784              -9.7411
        42        0.0000           -0.3223821              -8.7725
        43                         -0.1908542              -5.1934
        44                         -0.1734547              -4.7199
        45                         -0.1239168              -3.3719
        46                         -0.0675565              -1.8383
        47                         -0.0546595              -1.4874
        48                         -0.0363975              -0.9904
       ...                                ...                  ...
        67                          0.5267317              14.3331
      -------------------------------------------------------------
                  HL-Gap            0.0917268 Eh            2.4960 eV

     #   Z          covCN         q      C6AA      α(0)
     1   6 C        3.693    -0.095    22.500     6.787
     2   7 N        2.844     0.087    19.731     6.597
     3   6 C        3.025     0.061    26.598     8.460
     4   7 N        2.803    -0.062    22.433     7.034
     5   6 C        3.017     0.126    25.224     8.238
     6   6 C        3.088    -0.015    28.278     8.717
     7   6 C        2.766     0.273    22.380     7.747
     8   8 O        0.859    -0.355    20.799     6.115
     9   7 N        2.734    -0.054    22.287     7.011
    10   6 C        3.708    -0.064    21.881     6.686
    11   6 C        2.713     0.249    22.817     7.819
    12   8 O        0.858    -0.279    19.404     5.906
    13   7 N        1.824    -0.155    25.131     7.428
    14   6 C        2.793     0.038    27.126     8.532
    15   1 H        0.925     0.103     1.758     2.073
    16   1 H        0.924     0.109     1.709     2.044
    17   1 H        0.924     0.140     1.463     1.892
    18   1 H        0.926     0.125     1.576     1.963
    19   1 H        0.925     0.105     1.736     2.060
    20   1 H        0.924     0.100     1.789     2.092
    21   1 H        0.925     0.104     1.753     2.070
    22   1 H        0.925     0.069     2.098     2.265
    23   1 H        0.923     0.045     2.385     2.415
    24   1 H        0.926     0.117     1.635     1.999
    25   1 H        0.860     0.227     0.977     1.549

Wiberg/Mayer (AO) data.
largest (>0.10) Wiberg bond orders for each atom

     #   Z sym  total        # sym  WBO       # sym  WBO       # sym  WBO
 ---------------------------------------------------------------------------
     1   6 C    3.915 --     2 N    0.986    15 H    0.973    16 H    0.954
                            17 H    0.950
     2   7 N    3.709 --     3 C    1.393     6 C    1.183     1 C    0.986
     3   6 C    3.904 --     2 N    1.393     4 N    1.320    18 H    0.950
     4   7 N    3.595 --     3 C    1.320     5 C    1.145    25 H    0.920
     5   6 C    3.919 --     6 C    1.372    13 N    1.220     4 N    1.145
     6   6 C    3.882 --     5 C    1.372     2 N    1.183     7 C    0.997
     7   6 C    3.940 --     8 O    1.697     9 N    1.155     6 C    0.997
     8   8 O    2.030 --     7 C    1.697     9 N    0.140
     9   7 N    3.561 --     7 C    1.155    11 C    1.125    10 C    0.970
                             8 O    0.140    12 O    0.132
    10   6 C    3.911 --    19 H    0.971     9 N    0.970    20 H    0.961
                            21 H    0.960
    11   6 C    3.932 --    12 O    1.838     9 N    1.125    23 H    0.911
    12   8 O    2.083 --    11 C    1.838     9 N    0.132
    13   7 N    3.155 --    14 C    1.787     5 C    1.220
    14   6 C    3.809 --    13 N    1.787    24 H    0.956    22 H    0.948
    15   1 H    0.988 --     1 C    0.973
    16   1 H    0.986 --     1 C    0.954
    17   1 H    0.979 --     1 C    0.950
    18   1 H    0.984 --     3 C    0.950
    19   1 H    0.986 --    10 C    0.971
    20   1 H    0.980 --    10 C    0.961
    21   1 H    0.980 --    10 C    0.960
    22   1 H    0.983 --    14 C    0.948
    23   1 H    0.980 --    11 C    0.911
    24   1 H    0.981 --    14 C    0.956
    25   1 H    0.948 --     4 N    0.920
 ---------------------------------------------------------------------------

molecular dipole:
                 x           y           z       tot (Debye)
 q only:        2.413      -1.849       0.341
   full:        2.900      -2.498       0.478       9.804

           -------------------------------------------------
          | TOTAL ENERGY              -42.159366783741 Eh   |
          | GRADIENT NORM               0.004165406099 Eh/α |
          | HOMO-LUMO GAP               2.496012361625 eV   |
           -------------------------------------------------

 * finished run on 2024/06/05 at 19:58:36.309
