   * xtb version 6.6.1 (8d0f1dd) compiled by 'conda@1efc2f54142f' on 2023-08-01
          program call               : xtb struc.xyz --opt loose --input .xc1 --gfn2

   ID    Z sym.   atoms
    1    7 N      1, 17
    2    6 C      2-6, 8, 9, 11-16, 18-23, 25, 26, 28-33
    3    8 O      7, 10, 24, 27
    4    1 H      34-72
constraining bond 12 63 to    9.7133300 Å, actual value:    2.8181396 Å

          :  Hamiltonian                  GFN2-xTB          :
 * total energy  :  -107.8932022 Eh     change       -0.4035485E-08 Eh
 * total energy  :  -109.6717026 Eh     change       -0.1778500E+01 Eh
 * total energy  :  -111.5749928 Eh     change       -0.1903290E+01 Eh
 * total energy  :  -113.4062463 Eh     change       -0.1831254E+01 Eh
 * total energy  :  -112.3244224 Eh     change        0.1081824E+01 Eh
 * total energy  :  -113.4975944 Eh     change       -0.1173172E+01 Eh
 * total energy  :  -113.5614063 Eh     change       -0.6381194E-01 Eh
 * total energy  :  -113.6157690 Eh     change       -0.5436271E-01 Eh
 * total energy  :  -113.6308847 Eh     change       -0.1511566E-01 Eh
 * total energy  :  -113.6418571 Eh     change       -0.1097244E-01 Eh
 * total energy  :  -113.6712582 Eh     change       -0.8201702E-04 Eh
 * total energy  :  -113.6713212 Eh     change       -0.6306195E-04 Eh
 * total energy  :  -113.6713806 Eh     change       -0.5939305E-04 Eh
 * total energy  :  -113.6714222 Eh     change       -0.4155261E-04 Eh
 * total energy  :  -113.6714776 Eh     change       -0.5542853E-04 Eh
 * total energy  :  -113.6714963 Eh     change       -0.1871905E-04 Eh
 * total energy  :  -113.6714912 Eh     change        0.5112842E-05 Eh
 * total energy  :  -113.6715261 Eh     change       -0.3486444E-04 Eh
 * total energy  :  -113.6715363 Eh     change       -0.1017297E-04 Eh
   *** GEOMETRY OPTIMIZATION CONVERGED AFTER 47 ITERATIONS ***

 final structure:
================
72
 xtb: 6.6.1 (8d0f1dd)
N           -1.77424857973979        2.81043850931851        2.18976594927649
C           -1.68931767325357        2.19706178712504        1.10332289515934
C           -2.85530128195621        1.93521306541309        0.18686227510331
C           -3.26839411387223        0.47327596898105        0.28947434401615
C           -4.26935615220943       -0.00167899811788       -0.59477241014432
C           -4.72105200088422       -1.31763247335467       -0.54832212629914
O           -5.67399337658419       -1.83580588892514       -1.35950287395298
C           -6.35528927645090       -0.98226706142647       -2.24996792921905
C           -4.18219963344475       -2.21636632289034        0.37715122042502
O           -4.65125371621891       -3.46927358832424        0.35064001870526
C           -4.18207275849383       -4.41188384565708        1.28751976322832
C           -3.12621763452457       -1.81279454272061        1.38251365832158
C           -2.72332511815948       -0.36608159809575        1.20059582217008
C           -2.37128666710956        2.25118553431345       -1.25279519423505
C           -1.48840290582359        1.17257836899361       -1.91005184956438
C           -0.13113864575625        1.06490316306356       -1.31377115539941
N            0.42018193296169       -0.03705104041403       -0.81839862602562
C            1.80077994684011        0.07865010969028       -0.35472997465199
C            2.79310682209640       -0.26487530301551       -1.47571083406836
C            4.20220427803043       -0.08321881466667       -0.98222925521516
C            4.86888463974604        1.11650718703603       -1.16803522333225
C            6.15647645079044        1.29602333696856       -0.68572771255868
C            6.80177976231986        0.27754474192260        0.00053354829222
O            8.04531386256736        0.33914640542660        0.51185581192915
C            8.80349467598321        1.51390542653138        0.33740674841039
C            6.12365441368711       -0.95710236719295        0.20030854987305
O            6.82259888345912       -1.89129587184042        0.87550798797487
C            6.24694693140700       -3.15615530731778        1.09784841561883
C            4.83781397689243       -1.11305853828729       -0.29234864129220
C           -0.13681235210508       -1.23629402451855       -0.71833187821742
C           -4.09678591857243        2.81399024920904        0.52803391354107
C           -4.71351524091386        2.43045851759311        1.87134367461625
C           -3.78797058572004        4.30859116204759        0.51113435786251
H           -4.69575583676375        0.67322182989680       -1.31440972314258
H           -6.85583690992738       -0.16679523188582       -1.71932332966010
H           -7.10216700543808       -1.60779462799197       -2.73470230226825
H           -5.68322283121525       -0.57072724998292       -3.00965776744780
H           -4.41049629036835       -4.10657451151941        2.31301606022938
H           -4.71006124168733       -5.33648998417339        1.06336359107160
H           -3.10498541089012       -4.57718403092392        1.18964280645892
H           -3.67642680090814       -1.81221086763698        2.36667881242857
H           -1.97057965501847       -0.02541962133284        1.89376741902717
H           -3.24302411239203        2.39825398843561       -1.89027256400665
H           -1.81865649685389        3.19151188620958       -1.23448740006979
H           -2.00752452036660        0.21666244913346       -1.89036208571009
H           -1.37380259800449        1.46526442170104       -2.96059182824522
H           -0.74344242331367        1.80660439426782        0.69384683307006
H            0.49967217034790        1.93721484616546       -1.36740465337762
H            1.95228271987515       -0.59898741840156        0.48732390348001
H            1.98595119096401        1.09869032294145       -0.01184158042283
H            2.61011397772811        0.39089541253163       -2.32845676409674
H            2.63183236508046       -1.29592120249471       -1.79466035030863
H            4.39164551699984        1.92295478605332       -1.70369305647969
H            6.65241516675879        2.23780193436594       -0.85389088873476
H            8.32731403461585        2.37351465574082        0.81892422815526
H            8.96598908277945        1.73187674016595       -0.72233384297636
H            9.76071371471487        1.31707821362042        0.81629542436614
H            7.00086578577756       -3.73013151604670        1.63307744735605
H            5.34434979565482       -3.08359173260395        1.71333237150486
H            6.00928043233306       -3.66051793828660        0.15617043019800
H            4.31824124577876       -2.04853847311713       -0.15555603947808
H           -1.12086096182910       -1.42317601822420       -1.09327472539566
H           -2.63695484471809       -2.19620482025462        1.39801165662799
H            0.42457944371938       -2.03546913820653       -0.28096521607134
H           -4.84326254994550        2.61987193389866       -0.25023002475666
H           -3.99682338629043        2.59412661711631        2.66921060142946
H           -5.02313413178012        1.38816808967174        1.88036214156594
H           -5.58833269643816        3.04777543618832        2.05797183981001
H           -3.05930135271187        4.55276602567760        1.27782439120164
H           -3.41237258659674        4.63307965245307       -0.45548197676838
H           -4.69864389923328        4.86411417834735        0.71922552794463
H           -0.91836544843987        2.95178814406993        2.71769220574550

          :  Hamiltonian                  GFN2-xTB          :
         :: total energy            -113.671536266585 Eh    ::
         :: gradient norm              0.003343193516 Eh/a0 ::
         :: HOMO-LUMO gap              0.897884180504 eV    ::
         :: SCC energy              -100.739370822080 Eh    ::
         :: -> dispersion             -0.075854191704 Eh    ::
         :: repulsion energy           1.825017999060 Eh    ::

    * Orbital Energies and Occupations

         #    Occupation            Energy/Eh            Energy/eV
      -------------------------------------------------------------
         1        2.0000           -0.8333587             -22.6768
       ...           ...                  ...                  ...
        78        1.9986           -0.5304585             -14.4345
        79        1.9985           -0.5296584             -14.4127
        80        1.9982           -0.5271228             -14.3437
        81        1.9982           -0.5264702             -14.3260
        82        1.9968           -0.5178188             -14.0906
        83        1.9957           -0.5128734             -13.9560
        84        1.9953           -0.5116231             -13.9220
        85        1.9945           -0.5090280             -13.8514
        86        1.9770           -0.4863116             -13.2332
        87        1.9578           -0.4765537             -12.9677
        88        1.9400           -0.4708461             -12.8124
        89        1.8368           -0.4541267             -12.3574
        90        1.6078           -0.4381360             -11.9223 (HOMO)
        91        0.6756           -0.4051394             -11.0244 (LUMO)
        92        0.0154           -0.3388143              -9.2196
        93        0.0128           -0.3359373              -9.1413
        94        0.0044           -0.3188532              -8.6764
        95        0.0025           -0.3099463              -8.4341
        96        0.0021           -0.3072732              -8.3613
        97        0.0000           -0.2343512              -6.3770
        98        0.0000           -0.1851109              -5.0371
        99                         -0.1143665              -3.1121
       100                         -0.0936428              -2.5482
       101                         -0.0736248              -2.0034
       ...                                ...                  ...
       171                          2.8388735              77.2497
      -------------------------------------------------------------
                  HL-Gap            0.0329966 Eh            0.8979 eV

     #   Z          covCN         q      C6AA      α(0)
     1   7 N        1.774    -0.272    27.877     7.818
     2   6 C        2.825     0.099    25.804     8.324
     3   6 C        3.908     0.006    20.428     6.424
     4   6 C        2.959     0.017    27.637     8.623
     5   6 C        2.919    -0.079    29.987     8.980
     6   6 C        2.846     0.127    25.218     8.230
     7   8 O        1.706    -0.241    17.992     5.727
     8   6 C        3.643     0.027    20.453     6.501
     9   6 C        2.853     0.119    25.384     8.258
    10   8 O        1.706    -0.197    17.294     5.615
    11   6 C        3.645     0.019    20.597     6.523
    12   6 C        3.804    -0.119    22.782     6.795
    13   6 C        2.908    -0.066    29.636     8.927
    14   6 C        3.810    -0.064    21.728     6.635
    15   6 C        3.801    -0.063    21.714     6.634
    16   6 C        2.862    -0.041    29.016     8.829
    17   7 N        2.730     0.088    19.714     6.594
    18   6 C        3.783    -0.018    20.922     6.516
    19   6 C        3.808    -0.068    21.802     6.647
    20   6 C        2.969     0.001    28.005     8.680
    21   6 C        2.922    -0.048    29.192     8.860
    22   6 C        2.914    -0.067    29.675     8.933
    23   6 C        2.865     0.133    25.081     8.209
    24   8 O        1.706    -0.222    17.682     5.677
    25   6 C        3.645     0.025    20.489     6.505
    26   6 C        2.863     0.133    25.090     8.210
    27   8 O        1.706    -0.225    17.729     5.685
    28   6 C        3.645     0.027    20.450     6.500
    29   6 C        2.920    -0.079    29.982     8.979
    30   6 C        2.810    -0.109    30.752     9.085
    31   6 C        3.853    -0.008    20.686     6.469
    32   6 C        3.755    -0.120    22.856     6.817
    33   6 C        3.755    -0.118    22.809     6.810
    34   1 H        0.926     0.061     2.184     2.311
    35   1 H        0.924     0.054     2.274     2.358
    36   1 H        0.925     0.082     1.960     2.189
    37   1 H        0.924     0.050     2.325     2.385
    38   1 H        0.924     0.063     2.159     2.298
    39   1 H        0.925     0.091     1.867     2.137
    40   1 H        0.924     0.059     2.206     2.323
    41   1 H        0.918     0.090     1.877     2.143
    42   1 H        0.926     0.043     2.414     2.430
    43   1 H        0.925     0.055     2.262     2.352
    44   1 H        0.924     0.051     2.309     2.376
    45   1 H        0.925     0.053     2.283     2.363
    46   1 H        0.924     0.064     2.150     2.293
    47   1 H        0.923     0.011     2.880     2.654
    48   1 H        0.926     0.051     2.310     2.377
    49   1 H        0.924     0.070     2.084     2.257
    50   1 H        0.924     0.066     2.133     2.284
    51   1 H        0.924     0.057     2.233     2.337
    52   1 H        0.924     0.058     2.222     2.331
    53   1 H        0.926     0.047     2.355     2.400
    54   1 H        0.926     0.059     2.213     2.326
    55   1 H        0.924     0.054     2.267     2.354
    56   1 H        0.924     0.056     2.245     2.343
    57   1 H        0.925     0.082     1.957     2.188
    58   1 H        0.925     0.081     1.964     2.192
    59   1 H        0.924     0.048     2.344     2.394
    60   1 H        0.924     0.053     2.286     2.364
    61   1 H        0.926     0.048     2.348     2.396
    62   1 H        0.927     0.053     2.277     2.360
    63   1 H        0.932     0.149     1.398     1.849
    64   1 H        0.927     0.053     2.283     2.363
    65   1 H        0.924     0.037     2.493     2.469
    66   1 H        0.925     0.070     2.082     2.256
    67   1 H        0.925     0.031     2.578     2.511
    68   1 H        0.925     0.052     2.300     2.372
    69   1 H        0.925     0.060     2.200     2.320
    70   1 H        0.925     0.036     2.501     2.473
    71   1 H        0.925     0.053     2.285     2.364
    72   1 H        0.860     0.156     1.362     1.828

Wiberg/Mayer (AO) data.
largest (>0.10) Wiberg bond orders for each atom

     #   Z sym  total        # sym  WBO       # sym  WBO       # sym  WBO
 ---------------------------------------------------------------------------
     1   7 N    3.019 --     2 C    1.955    72 H    0.942
     2   6 C    3.931 --     1 N    1.955     3 C    0.993    47 H    0.913
     3   6 C    3.976 --     2 C    0.993     4 C    0.964    14 C    0.960
                            31 C    0.944
     4   6 C    3.977 --    13 C    1.630     5 C    1.244     3 C    0.964
     5   6 C    3.730 --     6 C    1.352     4 C    1.244    34 H    0.959
     6   6 C    3.910 --     5 C    1.352     9 C    1.315     7 O    1.083
     7   8 O    2.242 --     6 C    1.083     8 C    0.977
     8   6 C    3.931 --     7 O    0.977    36 H    0.976    35 H    0.974
                            37 H    0.974
     9   6 C    3.660 --     6 C    1.315    10 O    1.154    12 C    1.021
    10   8 O    2.272 --     9 C    1.154    11 C    0.972
    11   6 C    3.922 --    39 H    0.976    10 O    0.972    40 H    0.971
                            38 H    0.969
    12   6 C    3.956 --    13 C    1.028     9 C    1.021    63 H    0.937
                            41 H    0.888
    13   6 C    3.792 --     4 C    1.630    12 C    1.028    42 H    0.963
    14   6 C    3.974 --    15 C    0.980    44 H    0.973    43 H    0.969
                             3 C    0.960
    15   6 C    3.986 --    16 C    1.046    14 C    0.980    45 H    0.962
                            46 H    0.945
    16   6 C    3.688 --    17 N    1.349    15 C    1.046    48 H    0.962
                            30 C    0.234
    17   7 N    3.738 --    30 C    1.360    16 C    1.349    18 C    0.966
    18   6 C    3.955 --    19 C    0.977    50 H    0.969    49 H    0.968
                            17 N    0.966
    19   6 C    3.987 --    20 C    1.007    18 C    0.977    51 H    0.972
                            52 H    0.970
    20   6 C    3.943 --    21 C    1.411    29 C    1.380    19 C    1.007
    21   6 C    3.949 --    22 C    1.415    20 C    1.411    53 H    0.968
    22   6 C    3.958 --    21 C    1.415    23 C    1.384    54 H    0.963
    23   6 C    3.894 --    22 C    1.384    26 C    1.219    24 O    1.110
    24   8 O    2.253 --    23 C    1.110    25 C    0.976
    25   6 C    3.928 --    57 H    0.977    24 O    0.976    56 H    0.972
                            55 H    0.972
    26   6 C    3.897 --    29 C    1.396    23 C    1.219    27 O    1.103
    27   8 O    2.253 --    26 C    1.103    28 C    0.979
    28   6 C    3.932 --    27 O    0.979    58 H    0.977    59 H    0.973
                            60 H    0.973
    29   6 C    3.959 --    26 C    1.396    20 C    1.380    61 H    0.962
    30   6 C    3.614 --    17 N    1.360    64 H    0.976    62 H    0.969
                            16 C    0.234
    31   6 C    3.976 --    33 C    1.009    32 C    1.008    65 H    0.959
                             3 C    0.944
    32   6 C    3.980 --    31 C    1.008    67 H    0.983    68 H    0.981
                            66 H    0.973
    33   6 C    3.983 --    31 C    1.009    70 H    0.983    71 H    0.981
                            69 H    0.977
    34   1 H    0.995 --     5 C    0.959
    35   1 H    0.994 --     8 C    0.974
    36   1 H    0.993 --     8 C    0.976
    37   1 H    0.995 --     8 C    0.974
    38   1 H    0.990 --    11 C    0.969
    39   1 H    0.991 --    11 C    0.976
    40   1 H    0.990 --    11 C    0.971
    41   1 H    0.940 --    12 C    0.888
    42   1 H    0.998 --    13 C    0.963
    43   1 H    0.995 --    14 C    0.969
    44   1 H    0.996 --    14 C    0.973
    45   1 H    0.997 --    15 C    0.962
    46   1 H    0.979 --    15 C    0.945
    47   1 H    0.983 --     2 C    0.913
    48   1 H    0.997 --    16 C    0.962
    49   1 H    0.994 --    18 C    0.968
    50   1 H    0.995 --    18 C    0.969
    51   1 H    0.996 --    19 C    0.972
    52   1 H    0.995 --    19 C    0.970
    53   1 H    0.997 --    21 C    0.968
    54   1 H    0.995 --    22 C    0.963
    55   1 H    0.991 --    25 C    0.972
    56   1 H    0.991 --    25 C    0.972
    57   1 H    0.992 --    25 C    0.977
    58   1 H    0.993 --    28 C    0.977
    59   1 H    0.993 --    28 C    0.973
    60   1 H    0.993 --    28 C    0.973
    61   1 H    0.996 --    29 C    0.962
    62   1 H    0.997 --    30 C    0.969
    63   1 H    0.968 --    12 C    0.937
    64   1 H    0.997 --    30 C    0.976
    65   1 H    0.993 --    31 C    0.959
    66   1 H    0.991 --    32 C    0.973
    67   1 H    0.997 --    32 C    0.983
    68   1 H    0.994 --    32 C    0.981
    69   1 H    0.993 --    33 C    0.977
    70   1 H    0.997 --    33 C    0.983
    71   1 H    0.994 --    33 C    0.981
    72   1 H    0.970 --     1 N    0.942
 ---------------------------------------------------------------------------

molecular dipole:
                 x           y           z       tot (Debye)
 q only:       -0.118      -0.676      -0.051
   full:        0.152      -0.727      -0.227       1.973

           -------------------------------------------------
          | TOTAL ENERGY             -113.671536266585 Eh   |
          | GRADIENT NORM               0.003343193516 Eh/α |
          | HOMO-LUMO GAP               0.897884180504 eV   |
           -------------------------------------------------

 * finished run on 2024/04/06 at 11:16:26.527
