   * xtb version 6.6.1 (8d0f1dd) compiled by 'conda@1efc2f54142f' on 2023-08-01
          program call               : xtb xtbopt.xyz --opt crude --input .xc2 --gfn2

   ID    Z sym.   atoms
    1    7 N      1, 17
    2    6 C      2-6, 8, 9, 11-16, 18-23, 25, 26, 28-33
    3    8 O      7, 10, 24, 27
    4    1 H      34-72
########################################################################
[WARNING] Please study the warnings concerning your input carefully
-1- readin_getIntValue: could not parse ''
########################################################################

          :  Hamiltonian                  GFN2-xTB          :
 * total energy  :   -98.9130218 Eh     change       -0.2501110E-11 Eh
 * total energy  :   -99.3417501 Eh     change       -0.4287283E+00 Eh
 * total energy  :   -99.3458734 Eh     change       -0.4123262E-02 Eh
 * total energy  :   -99.3471888 Eh     change       -0.1315403E-02 Eh
 * total energy  :   -99.3475070 Eh     change       -0.3182377E-03 Eh
 * total energy  :   -99.3477826 Eh     change       -0.2756177E-03 Eh
 * total energy  :   -99.3478970 Eh     change       -0.1144124E-03 Eh
   *** GEOMETRY OPTIMIZATION CONVERGED AFTER 7 ITERATIONS ***

 final structure:
================
72
 xtb: 6.6.1 (8d0f1dd)
N           -1.77712581769889        2.83663508944661        2.18511156531360
C           -1.70049058262454        2.20272915269950        1.10992945483328
C           -2.86687114554534        1.94417702258714        0.19344426493035
C           -3.28273017130175        0.48286711697366        0.29983348427136
C           -4.26435249902464        0.00040161427883       -0.60153735078620
C           -4.71561010721743       -1.31551069072680       -0.55494205111834
O           -5.65431516521967       -1.83812025800356       -1.38044241586523
C           -6.33012146169066       -0.98580508692439       -2.27728335728205
C           -4.19237225313128       -2.20836514987206        0.38642490692683
O           -4.65729693535220       -3.46284770046510        0.35317246585196
C           -4.20792440734113       -4.41089074079787        1.29232077344438
C           -3.18905283110491       -1.76326318262028        1.39070977910300
C           -2.76198049716304       -0.34630989133175        1.23471260445821
C           -2.37667528385813        2.25458649351250       -1.24576982573424
C           -1.49533812887628        1.17163976373568       -1.89843321102984
C           -0.13802148853976        1.06496198405465       -1.30216263793463
N            0.41747255375807       -0.03714894822811       -0.81218946817939
C            1.79963599650345        0.07868021575705       -0.35340731589192
C            2.78937257365371       -0.26664805604762       -1.47615491574755
C            4.19931747109303       -0.08572614104759       -0.98472815912508
C            4.86531516455910        1.11452972079742       -1.17023676455822
C            6.15311569705171        1.29427007005519       -0.68895310167508
C            6.80006711030673        0.27521664203881       -0.00493311385438
O            8.04434091382101        0.33697385641065        0.50454438528441
C            8.80017071878937        1.51379073693630        0.33305975520836
C            6.12300098515646       -0.96003601708111        0.19372124142821
O            6.82382678831533       -1.89527554088598        0.86589344132402
C            6.24847867033370       -3.16017572798306        1.08849858169889
C            4.83625438025328       -1.11596169524023       -0.29682991084455
C           -0.13742362881687       -1.23740052463010       -0.71316105743797
C           -4.10552580038986        2.82954832727265        0.52783749096678
C           -4.72408711841044        2.45461160254560        1.87258223589002
C           -3.79145825176486        4.32310253655638        0.50503606596624
H           -4.67797708759090        0.67094343407556       -1.33296472185922
H           -6.83417161878951       -0.16928765424198       -1.75189782452500
H           -7.07360466658219       -1.61212704089194       -2.76599783640862
H           -5.65318155856227       -0.57569624356821       -3.03351049503265
H           -4.43759656198723       -4.10417747024911        2.31685183484702
H           -4.74436263593538       -5.32945419152379        1.06228199550772
H           -3.13194454779889       -4.58936804977964        1.20203907984575
H           -3.62686983364772       -1.87818316646618        2.39756460759803
H           -2.03742174058812        0.00426535611562        1.95267614231093
H           -3.24531520160773        2.40473457071834       -1.88683036717239
H           -1.82036342997633        3.19289108003906       -1.22720193651845
H           -2.01543621781657        0.21637187112373       -1.87545621048298
H           -1.38012051010115        1.46065677564279       -2.94996603390443
H           -0.76041043203838        1.78904956010917        0.70914885019075
H            0.48984779387686        1.93984686131922       -1.35229851370763
H            1.95329048316176       -0.59794870760688        0.48908665418634
H            1.98590811318877        1.09902026048467       -0.01211676641192
H            2.60550017434265        0.38856089413721       -2.32910945543427
H            2.62666055258265       -1.29782318934914       -1.79399635194480
H            4.38704735118286        1.92101351815544       -1.70486780817813
H            6.64814100566761        2.23671452655305       -0.85597236095104
H            8.32181436472228        2.37131251546247        0.81603833826366
H            8.96288135563324        1.73418829659073       -0.72614264557316
H            9.75750359106948        1.31798847072013        0.81215906302175
H            7.00222378599355       -3.73370119954043        1.62447180343001
H            5.34545703146089       -3.08770723612766        1.70335443483273
H            6.01164657653328       -3.66506098717245        0.14684277017699
H            4.31739347147502       -2.05180323371705       -0.15982576693278
H           -1.12706526445518       -1.42236964022385       -1.07433102904080
H           -2.31599242983027       -2.42829966809491        1.38797462371291
H            0.42972200451565       -2.03824977995212       -0.28612671179860
H           -4.85128785002886        2.63396820562687       -0.25096258064501
H           -4.00568169541930        2.61801507642863        2.66908711392593
H           -5.03823941776838        1.41375429117915        1.88570914380015
H           -5.59565595338724        3.07674810882549        2.05789243957795
H           -3.06368295096957        4.56791234822738        1.27240486393802
H           -3.41287181891571        4.64323226332857       -0.46191478154629
H           -4.70089465417617        4.88238283899020        0.70904154526244
H           -0.91996942896932        2.97258926331527        2.71246189640607

          :  Hamiltonian                  GFN2-xTB          :
         :: total energy             -99.347897023856 Eh    ::
         :: gradient norm              0.004893172124 Eh/a0 ::
         :: HOMO-LUMO gap              0.895169545811 eV    ::
         :: SCC energy              -100.717377565833 Eh    ::
         :: -> dispersion             -0.075785278373 Eh    ::
         :: repulsion energy           1.368148070289 Eh    ::

    * Orbital Energies and Occupations

         #    Occupation            Energy/Eh            Energy/eV
      -------------------------------------------------------------
         1        2.0000           -0.8324366             -22.6518
       ...           ...                  ...                  ...
        78        1.9985           -0.5301491             -14.4261
        79        1.9985           -0.5294505             -14.4071
        80        1.9982           -0.5269077             -14.3379
        81        1.9981           -0.5262454             -14.3199
        82        1.9968           -0.5177813             -14.0895
        83        1.9956           -0.5126417             -13.9497
        84        1.9952           -0.5113385             -13.9142
        85        1.9945           -0.5088971             -13.8478
        86        1.9771           -0.4862941             -13.2327
        87        1.9563           -0.4759028             -12.9500
        88        1.9398           -0.4706914             -12.8082
        89        1.8372           -0.4540874             -12.3563
        90        1.6074           -0.4380357             -11.9196 (HOMO)
        91        0.6779           -0.4051388             -11.0244 (LUMO)
        92        0.0153           -0.3386994              -9.2165
        93        0.0126           -0.3355831              -9.1317
        94        0.0042           -0.3180708              -8.6551
        95        0.0025           -0.3099208              -8.4334
        96        0.0021           -0.3072450              -8.3606
        97        0.0000           -0.2350397              -6.3958
        98        0.0000           -0.1850798              -5.0363
        99                         -0.1144196              -3.1135
       100                         -0.0875328              -2.3819
       101                         -0.0705099              -1.9187
       ...                                ...                  ...
       171                          0.5788251              15.7506
      -------------------------------------------------------------
                  HL-Gap            0.0328969 Eh            0.8952 eV

     #   Z          covCN         q      C6AA      α(0)
     1   7 N        1.774    -0.272    27.875     7.818
     2   6 C        2.826     0.099    25.796     8.322
     3   6 C        3.908     0.005    20.429     6.424
     4   6 C        2.961     0.017    27.624     8.621
     5   6 C        2.919    -0.079    29.972     8.978
     6   6 C        2.847     0.128    25.199     8.227
     7   8 O        1.706    -0.241    17.990     5.727
     8   6 C        3.643     0.027    20.455     6.502
     9   6 C        2.852     0.125    25.256     8.237
    10   8 O        1.706    -0.196    17.263     5.610
    11   6 C        3.644     0.020    20.587     6.522
    12   6 C        3.809    -0.071    21.848     6.654
    13   6 C        2.908    -0.059    29.473     8.902
    14   6 C        3.810    -0.064    21.727     6.635
    15   6 C        3.801    -0.063    21.716     6.635
    16   6 C        2.862    -0.041    29.015     8.829
    17   7 N        2.730     0.088    19.715     6.595
    18   6 C        3.783    -0.018    20.921     6.515
    19   6 C        3.808    -0.068    21.802     6.647
    20   6 C        2.969     0.001    28.005     8.680
    21   6 C        2.922    -0.048    29.192     8.860
    22   6 C        2.914    -0.067    29.675     8.933
    23   6 C        2.865     0.133    25.081     8.209
    24   8 O        1.706    -0.222    17.683     5.677
    25   6 C        3.645     0.025    20.489     6.505
    26   6 C        2.863     0.133    25.091     8.211
    27   8 O        1.706    -0.225    17.730     5.685
    28   6 C        3.645     0.027    20.449     6.499
    29   6 C        2.920    -0.079    29.981     8.979
    30   6 C        2.810    -0.109    30.753     9.086
    31   6 C        3.853    -0.008    20.682     6.468
    32   6 C        3.756    -0.120    22.845     6.815
    33   6 C        3.755    -0.118    22.812     6.810
    34   1 H        0.926     0.061     2.182     2.310
    35   1 H        0.924     0.054     2.274     2.358
    36   1 H        0.925     0.082     1.958     2.188
    37   1 H        0.924     0.050     2.325     2.385
    38   1 H        0.924     0.063     2.162     2.299
    39   1 H        0.925     0.092     1.855     2.130
    40   1 H        0.924     0.059     2.210     2.325
    41   1 H        0.923     0.090     1.877     2.142
    42   1 H        0.926     0.045     2.386     2.416
    43   1 H        0.925     0.055     2.261     2.351
    44   1 H        0.924     0.051     2.306     2.375
    45   1 H        0.925     0.053     2.282     2.362
    46   1 H        0.924     0.065     2.147     2.291
    47   1 H        0.923     0.010     2.884     2.656
    48   1 H        0.926     0.051     2.308     2.376
    49   1 H        0.924     0.070     2.086     2.259
    50   1 H        0.924     0.066     2.131     2.283
    51   1 H        0.924     0.057     2.232     2.336
    52   1 H        0.924     0.058     2.222     2.331
    53   1 H        0.926     0.047     2.355     2.400
    54   1 H        0.926     0.059     2.213     2.326
    55   1 H        0.924     0.054     2.267     2.355
    56   1 H        0.924     0.056     2.245     2.343
    57   1 H        0.925     0.082     1.957     2.188
    58   1 H        0.925     0.081     1.965     2.192
    59   1 H        0.924     0.048     2.345     2.395
    60   1 H        0.924     0.053     2.286     2.364
    61   1 H        0.926     0.048     2.349     2.397
    62   1 H        0.927     0.053     2.284     2.363
    63   1 H        0.924     0.080     1.979     2.200
    64   1 H        0.927     0.052     2.292     2.368
    65   1 H        0.924     0.036     2.498     2.472
    66   1 H        0.925     0.070     2.089     2.260
    67   1 H        0.925     0.031     2.577     2.511
    68   1 H        0.925     0.052     2.300     2.372
    69   1 H        0.925     0.061     2.192     2.315
    70   1 H        0.925     0.036     2.501     2.473
    71   1 H        0.925     0.053     2.284     2.364
    72   1 H        0.860     0.156     1.363     1.829

Wiberg/Mayer (AO) data.
largest (>0.10) Wiberg bond orders for each atom

     #   Z sym  total        # sym  WBO       # sym  WBO       # sym  WBO
 ---------------------------------------------------------------------------
     1   7 N    3.019 --     2 C    1.955    72 H    0.942
     2   6 C    3.931 --     1 N    1.955     3 C    0.993    47 H    0.913
     3   6 C    3.975 --     2 C    0.993     4 C    0.966    14 C    0.960
                            31 C    0.944
     4   6 C    3.977 --    13 C    1.625     5 C    1.245     3 C    0.966
     5   6 C    3.733 --     6 C    1.354     4 C    1.245    34 H    0.959
     6   6 C    3.910 --     5 C    1.354     9 C    1.311     7 O    1.084
     7   8 O    2.241 --     6 C    1.084     8 C    0.977
     8   6 C    3.931 --     7 O    0.977    36 H    0.976    35 H    0.974
                            37 H    0.974
     9   6 C    3.666 --     6 C    1.311    10 O    1.153    12 C    1.037
    10   8 O    2.272 --     9 C    1.153    11 C    0.974
    11   6 C    3.922 --    39 H    0.975    10 O    0.974    38 H    0.968
                            40 H    0.968
    12   6 C    3.982 --    13 C    1.042     9 C    1.037    63 H    0.921
                            41 H    0.906
    13   6 C    3.794 --     4 C    1.625    12 C    1.042    42 H    0.962
    14   6 C    3.974 --    15 C    0.981    44 H    0.973    43 H    0.969
                             3 C    0.960
    15   6 C    3.986 --    16 C    1.046    14 C    0.981    45 H    0.962
                            46 H    0.945
    16   6 C    3.688 --    17 N    1.349    15 C    1.046    48 H    0.962
                            30 C    0.235
    17   7 N    3.738 --    30 C    1.360    16 C    1.349    18 C    0.966
    18   6 C    3.954 --    19 C    0.977    50 H    0.969    49 H    0.968
                            17 N    0.966
    19   6 C    3.987 --    20 C    1.007    18 C    0.977    51 H    0.972
                            52 H    0.970
    20   6 C    3.943 --    21 C    1.411    29 C    1.380    19 C    1.007
    21   6 C    3.949 --    22 C    1.416    20 C    1.411    53 H    0.968
    22   6 C    3.958 --    21 C    1.416    23 C    1.384    54 H    0.963
    23   6 C    3.894 --    22 C    1.384    26 C    1.219    24 O    1.110
    24   8 O    2.253 --    23 C    1.110    25 C    0.976
    25   6 C    3.928 --    57 H    0.977    24 O    0.976    55 H    0.972
                            56 H    0.972
    26   6 C    3.897 --    29 C    1.396    23 C    1.219    27 O    1.103
    27   8 O    2.253 --    26 C    1.103    28 C    0.979
    28   6 C    3.932 --    27 O    0.979    58 H    0.977    59 H    0.973
                            60 H    0.973
    29   6 C    3.960 --    26 C    1.396    20 C    1.380    61 H    0.962
    30   6 C    3.614 --    17 N    1.360    64 H    0.976    62 H    0.970
                            16 C    0.235
    31   6 C    3.976 --    33 C    1.009    32 C    1.008    65 H    0.959
                             3 C    0.944
    32   6 C    3.980 --    31 C    1.008    67 H    0.983    68 H    0.981
                            66 H    0.974
    33   6 C    3.983 --    31 C    1.009    70 H    0.983    71 H    0.981
                            69 H    0.976
    34   1 H    0.995 --     5 C    0.959
    35   1 H    0.994 --     8 C    0.974
    36   1 H    0.993 --     8 C    0.976
    37   1 H    0.994 --     8 C    0.974
    38   1 H    0.990 --    11 C    0.968
    39   1 H    0.991 --    11 C    0.975
    40   1 H    0.990 --    11 C    0.968
    41   1 H    0.948 --    12 C    0.906
    42   1 H    0.998 --    13 C    0.962
    43   1 H    0.995 --    14 C    0.969
    44   1 H    0.996 --    14 C    0.973
    45   1 H    0.997 --    15 C    0.962
    46   1 H    0.979 --    15 C    0.945
    47   1 H    0.983 --     2 C    0.913
    48   1 H    0.997 --    16 C    0.962
    49   1 H    0.994 --    18 C    0.968
    50   1 H    0.995 --    18 C    0.969
    51   1 H    0.995 --    19 C    0.972
    52   1 H    0.995 --    19 C    0.970
    53   1 H    0.997 --    21 C    0.968
    54   1 H    0.995 --    22 C    0.963
    55   1 H    0.991 --    25 C    0.972
    56   1 H    0.991 --    25 C    0.972
    57   1 H    0.992 --    25 C    0.977
    58   1 H    0.993 --    28 C    0.977
    59   1 H    0.993 --    28 C    0.973
    60   1 H    0.993 --    28 C    0.973
    61   1 H    0.996 --    29 C    0.962
    62   1 H    0.997 --    30 C    0.970
    63   1 H    0.959 --    12 C    0.921
    64   1 H    0.997 --    30 C    0.976
    65   1 H    0.993 --    31 C    0.959
    66   1 H    0.991 --    32 C    0.974
    67   1 H    0.997 --    32 C    0.983
    68   1 H    0.994 --    32 C    0.981
    69   1 H    0.993 --    33 C    0.976
    70   1 H    0.997 --    33 C    0.983
    71   1 H    0.994 --    33 C    0.981
    72   1 H    0.970 --     1 N    0.942
 ---------------------------------------------------------------------------

molecular dipole:
                 x           y           z       tot (Debye)
 q only:       -0.162      -0.657      -0.072
   full:        0.145      -0.762      -0.219       2.050

           -------------------------------------------------
          | TOTAL ENERGY              -99.347897023856 Eh   |
          | GRADIENT NORM               0.004893172124 Eh/α |
          | HOMO-LUMO GAP               0.895169545811 eV   |
           -------------------------------------------------

 * finished run on 2024/04/06 at 11:16:27.959
