   * xtb version 6.6.1 (8d0f1dd) compiled by 'conda@1efc2f54142f' on 2023-08-01
          program call               : xtb struc.xyz --opt loose --input .xc1 --gfn2

   ID    Z sym.   atoms
    1    6 C      1, 3, 5-7, 10, 11, 14
    2    7 N      2, 4, 9, 13
    3    8 O      8, 12
    4    1 H      15-25
constraining bond 9 13 to    4.8400000 Å, actual value:    2.3869999 Å

          :  Hamiltonian                  GFN2-xTB          :
 * total energy  :   -20.7600171 Eh     change       -0.6650680E-10 Eh
 * total energy  :   -30.0346799 Eh     change       -0.9274663E+01 Eh
 * total energy  :   -35.9155046 Eh     change       -0.5880825E+01 Eh
 * total energy  :   -39.3253685 Eh     change       -0.3409864E+01 Eh
 * total energy  :   -41.1185024 Eh     change       -0.1793134E+01 Eh
 * total energy  :   -41.5032000 Eh     change       -0.3846976E+00 Eh
 * total energy  :   -41.5507814 Eh     change       -0.4758141E-01 Eh
 * total energy  :   -41.6280930 Eh     change       -0.7731159E-01 Eh
 * total energy  :   -41.6808055 Eh     change       -0.5271247E-01 Eh
 * total energy  :   -41.7089359 Eh     change       -0.2813046E-01 Eh
 * total energy  :   -42.0987213 Eh     change       -0.8251639E-04 Eh
 * total energy  :   -42.0988062 Eh     change       -0.8490685E-04 Eh
 * total energy  :   -42.0989278 Eh     change       -0.1215295E-03 Eh
 * total energy  :   -42.0990671 Eh     change       -0.1393118E-03 Eh
 * total energy  :   -42.0991571 Eh     change       -0.9000006E-04 Eh
 * total energy  :   -42.0992389 Eh     change       -0.8182239E-04 Eh
 * total energy  :   -42.0991824 Eh     change        0.5654256E-04 Eh
 * total energy  :   -42.0993237 Eh     change       -0.1413144E-03 Eh
 * total energy  :   -42.0993412 Eh     change       -0.1755061E-04 Eh
   *** GEOMETRY OPTIMIZATION CONVERGED AFTER 102 ITERATIONS ***

 final structure:
================
25
 xtb: 6.6.1 (8d0f1dd)
C            2.06375171590591        1.52935834983223       -0.32285280587354
N            1.66588490763979        0.14328971077653       -0.29980632723490
C            2.48299630697998       -0.82606567357033       -0.67625481620907
N            1.91736963589287       -2.00735917147829       -0.46181681813486
C            0.65446031751513       -1.86169074737756        0.12519215367547
C            0.48518311839163       -0.40231579311954        0.19973764183635
C           -0.58680025941257        0.36745129979577        0.78149803818394
O           -1.43360416829167       -0.12061156464341        1.50712995897522
N           -0.64759909314799        1.81165364276601        0.54085554822611
C           -1.12750134167845        2.24990176658046       -0.76038128023539
C           -2.52853034077148        1.92263102915810       -0.93014809162931
O           -3.55399237560836        1.47953992733663       -0.63387597427169
N            0.05772446786396       -2.96975853696924        0.39445413344233
C           -1.20898904015360       -3.15845221786057        0.98528838798335
H            1.55950004846286        2.07404874533954        0.47221483636201
H            3.14099377352291        1.59195185206340       -0.17624065892179
H            1.82204284677498        1.99038627495222       -1.28244463533229
H            3.46497883119535       -0.67206567788898       -1.08191908294232
H           -1.20155532445957        2.21168190455311        1.29542497837380
H           -0.55067723553830        1.76773020726018       -1.56004520868171
H           -0.99335911442495        3.33736951711039       -0.84948593237385
H           -1.11883768415098       -3.97082732982039        1.70986085649766
H           -1.91337939039924       -3.48897810786640        0.21575665326029
H           -1.60559529848799       -2.26221259113576        1.47331658742731
H            2.31596621047663       -2.91841827420116       -0.63428652450153

          :  Hamiltonian                  GFN2-xTB          :
         :: total energy             -42.099341236008 Eh    ::
         :: gradient norm              0.002685394814 Eh/a0 ::
         :: HOMO-LUMO gap              1.200949291111 eV    ::
         :: SCC energy               -42.620014744527 Eh    ::
         :: -> dispersion             -0.021616403927 Eh    ::
         :: repulsion energy           0.520363816850 Eh    ::

    * Orbital Energies and Occupations

         #    Occupation            Energy/Eh            Energy/eV
      -------------------------------------------------------------
         1        2.0000           -0.9276110             -25.2416
       ...           ...                  ...                  ...
        25        2.0000           -0.6654038             -18.1066
        26        2.0000           -0.6531967             -17.7744
        27        2.0000           -0.6422290             -17.4759
        28        1.9999           -0.6407332             -17.4352
        29        1.9999           -0.6326612             -17.2156
        30        1.9999           -0.6296990             -17.1350
        31        1.9995           -0.6034672             -16.4212
        32        1.9993           -0.5981413             -16.2763
        33        1.9964           -0.5733074             -15.6005
        34        1.9960           -0.5714511             -15.5500
        35        1.9782           -0.5445364             -14.8176
        36        1.8040           -0.5083286             -13.8323
        37        1.6236           -0.4963218             -13.5056 (HOMO)
        38        0.4198           -0.4521877             -12.3047 (LUMO)
        39        0.1396           -0.4321663             -11.7598
        40        0.0419           -0.4123073             -11.2195
        41        0.0022           -0.3654060              -9.9432
        42        0.0000           -0.2990593              -8.1378
        43                         -0.1761705              -4.7938
        44                         -0.1674598              -4.5568
        45                         -0.1215507              -3.3076
        46                         -0.0740599              -2.0153
        47                         -0.0649660              -1.7678
        48                         -0.0618346              -1.6826
       ...                                ...                  ...
        67                          0.7222574              19.6536
      -------------------------------------------------------------
                  HL-Gap            0.0441341 Eh            1.2009 eV

     #   Z          covCN         q      C6AA      α(0)
     1   6 C        3.696    -0.092    22.432     6.775
     2   7 N        2.816     0.051    20.348     6.700
     3   6 C        2.968     0.068    26.477     8.440
     4   7 N        2.802    -0.070    22.602     7.061
     5   6 C        2.931     0.140    24.943     8.191
     6   6 C        3.033    -0.038    28.919     8.821
     7   6 C        2.747     0.260    22.617     7.787
     8   8 O        0.858    -0.385    21.374     6.199
     9   7 N        2.683    -0.236    26.172     7.598
    10   6 C        3.738     0.000    20.654     6.485
    11   6 C        1.842     0.224    25.915     8.224
    12   8 O        0.856    -0.071    16.094     5.379
    13   7 N        1.838    -0.194    26.025     7.560
    14   6 C        3.692    -0.045    21.568     6.645
    15   1 H        0.925     0.113     1.668     2.020
    16   1 H        0.925     0.098     1.803     2.100
    17   1 H        0.924     0.088     1.897     2.154
    18   1 H        0.926     0.109     1.707     2.043
    19   1 H        0.860     0.202     1.097     1.641
    20   1 H        0.924     0.124     1.581     1.967
    21   1 H        0.923     0.139     1.470     1.896
    22   1 H        0.924     0.097     1.810     2.104
    23   1 H        0.924     0.092     1.863     2.135
    24   1 H        0.924     0.095     1.828     2.114
    25   1 H        0.860     0.230     0.964     1.538

Wiberg/Mayer (AO) data.
largest (>0.10) Wiberg bond orders for each atom

     #   Z sym  total        # sym  WBO       # sym  WBO       # sym  WBO
 ---------------------------------------------------------------------------
     1   6 C    3.934 --     2 N    0.989    16 H    0.971    17 H    0.963
                            15 H    0.961
     2   7 N    3.658 --     3 C    1.382     6 C    1.127     1 C    0.989
                             4 N    0.103
     3   6 C    3.882 --     2 N    1.382     4 N    1.342    18 H    0.952
     4   7 N    3.555 --     3 C    1.342     5 C    1.083    25 H    0.918
                             2 N    0.103
     5   6 C    3.936 --    13 N    1.567     6 C    1.138     4 N    1.083
     6   6 C    3.736 --     7 C    1.162     5 C    1.138     2 N    1.127
     7   6 C    3.915 --     8 O    1.681     6 C    1.162     9 N    0.983
     8   8 O    1.972 --     7 C    1.681
     9   7 N    3.157 --     7 C    0.983    10 C    0.980    19 H    0.932
    10   6 C    3.949 --    11 C    1.065     9 N    0.980    20 H    0.918
                            21 H    0.914
    11   6 C    3.340 --    12 O    2.164    10 C    1.065
    12   8 O    2.299 --    11 C    2.164
    13   7 N    2.834 --     5 C    1.567    14 C    1.067
    14   6 C    3.902 --    13 N    1.067    22 H    0.940    23 H    0.927
                            24 H    0.927
    15   1 H    0.986 --     1 C    0.961
    16   1 H    0.989 --     1 C    0.971
    17   1 H    0.989 --     1 C    0.963
    18   1 H    0.986 --     3 C    0.952
    19   1 H    0.958 --     9 N    0.932
    20   1 H    0.974 --    10 C    0.918
    21   1 H    0.970 --    10 C    0.914
    22   1 H    0.961 --    14 C    0.940
    23   1 H    0.957 --    14 C    0.927
    24   1 H    0.948 --    14 C    0.927
    25   1 H    0.946 --     4 N    0.918
 ---------------------------------------------------------------------------

molecular dipole:
                 x           y           z       tot (Debye)
 q only:        1.802       0.932      -1.590
   full:        1.841       1.159      -1.707       7.030

           -------------------------------------------------
          | TOTAL ENERGY              -42.099341236008 Eh   |
          | GRADIENT NORM               0.002685394814 Eh/α |
          | HOMO-LUMO GAP               1.200949291111 eV   |
           -------------------------------------------------

 * finished run on 2024/06/05 at 19:59:19.207
