   * xtb version 6.6.1 (8d0f1dd) compiled by 'conda@1efc2f54142f' on 2023-08-01
          program call               : xtb xtbopt.xyz --opt crude --input .xc2 --gfn2

   ID    Z sym.   atoms
    1    6 C      1, 3, 5-7, 10, 11, 14
    2    7 N      2, 4, 9, 13
    3    8 O      8, 12
    4    1 H      15-25
########################################################################
[WARNING] Please study the warnings concerning your input carefully
-1- readin_getIntValue: could not parse ''
########################################################################

          :  Hamiltonian                  GFN2-xTB          :
 * total energy  :   -42.0994177 Eh     change       -0.1017497E-10 Eh
 * total energy  :   -42.1015346 Eh     change       -0.2116921E-02 Eh
 * total energy  :   -42.1023412 Eh     change       -0.8065048E-03 Eh
 * total energy  :   -42.1025036 Eh     change       -0.1624506E-03 Eh
   *** GEOMETRY OPTIMIZATION CONVERGED AFTER 4 ITERATIONS ***

 final structure:
================
25
 xtb: 6.6.1 (8d0f1dd)
C            2.08088722874619        1.55006478743431       -0.32445511676759
N            1.69010423643278        0.16265329333090       -0.30320500693805
C            2.50167119799561       -0.81243401436323       -0.68196353779935
N            1.92927605056997       -1.99340497079610       -0.46983201884285
C            0.66817108509549       -1.82282644538538        0.11724956762930
C            0.51563891402873       -0.38783012906353        0.20029680197563
C           -0.57638181345906        0.31278420782864        0.80292387643166
O           -1.39471663143275       -0.19534589666113        1.54856753767464
N           -0.66411802445042        1.71771856504566        0.54413587238327
C           -1.12750402145283        2.17099784764179       -0.76021121166789
C           -2.53013670812846        1.87310639399274       -0.94044451128233
O           -3.58246612988294        1.50528098579510       -0.62551799001958
N            0.01365101107190       -2.88344193058970        0.38867922442001
C           -1.24700742657706       -3.08783382541895        0.97839066169050
H            1.57795067516138        2.08714766442925        0.47606844613542
H            3.15822843773473        1.61939504952018       -0.18362714799274
H            1.82958386418437        2.01314745348629       -1.27997875479489
H            3.48294567275548       -0.66333148133074       -1.09042890858534
H           -1.21225798579662        2.13911249071831        1.29254428482899
H           -0.54965836546431        1.69257440824912       -1.55872810542578
H           -0.98132190605754        3.25704797157626       -0.83615839969014
H           -1.14358067913577       -3.90607324093180        1.69563056577616
H           -1.94741127935021       -3.41930530658848        0.20650523448437
H           -1.65062105869627       -2.20362646997868        1.47982698060572
H            2.31950517020473       -2.90733886634804       -0.64509672632738

          :  Hamiltonian                  GFN2-xTB          :
         :: total energy             -42.102503602902 Eh    ::
         :: gradient norm              0.006250006189 Eh/a0 ::
         :: HOMO-LUMO gap              1.203483065619 eV    ::
         :: SCC energy               -42.634177806597 Eh    ::
         :: -> dispersion             -0.021766361081 Eh    ::
         :: repulsion energy           0.531437776581 Eh    ::

    * Orbital Energies and Occupations

         #    Occupation            Energy/Eh            Energy/eV
      -------------------------------------------------------------
         1        2.0000           -0.9248076             -25.1653
       ...           ...                  ...                  ...
        25        2.0000           -0.6660204             -18.1233
        26        2.0000           -0.6548325             -17.8189
        27        2.0000           -0.6427454             -17.4900
        28        1.9999           -0.6388784             -17.3848
        29        1.9999           -0.6325883             -17.2136
        30        1.9999           -0.6306629             -17.1612
        31        1.9995           -0.6037216             -16.4281
        32        1.9994           -0.6006149             -16.3436
        33        1.9970           -0.5749922             -15.6463
        34        1.9958           -0.5697937             -15.5049
        35        1.9784           -0.5435808             -14.7916
        36        1.7617           -0.5036998             -13.7064
        37        1.6443           -0.4962660             -13.5041 (HOMO)
        38        0.4412           -0.4520388             -12.3006 (LUMO)
        39        0.1385           -0.4308872             -11.7250
        40        0.0421           -0.4112421             -11.1905
        41        0.0021           -0.3633325              -9.8868
        42        0.0000           -0.2923862              -7.9562
        43                         -0.1744762              -4.7477
        44                         -0.1484740              -4.0402
        45                         -0.1221752              -3.3246
        46                         -0.0651745              -1.7735
        47                         -0.0633121              -1.7228
        48                         -0.0498718              -1.3571
       ...                                ...                  ...
        67                          0.7150270              19.4569
      -------------------------------------------------------------
                  HL-Gap            0.0442272 Eh            1.2035 eV

     #   Z          covCN         q      C6AA      α(0)
     1   6 C        3.695    -0.091    22.412     6.772
     2   7 N        2.818     0.052    20.332     6.697
     3   6 C        2.983     0.068    26.473     8.440
     4   7 N        2.799    -0.074    22.665     7.071
     5   6 C        2.942     0.142    24.899     8.184
     6   6 C        3.050    -0.041    28.973     8.828
     7   6 C        2.750     0.264    22.542     7.774
     8   8 O        0.859    -0.391    21.509     6.218
     9   7 N        2.687    -0.231    26.062     7.582
    10   6 C        3.738    -0.001    20.682     6.489
    11   6 C        1.842     0.221    25.971     8.233
    12   8 O        0.856    -0.076    16.171     5.392
    13   7 N        1.835    -0.190    25.942     7.548
    14   6 C        3.689    -0.047    21.619     6.654
    15   1 H        0.925     0.111     1.685     2.030
    16   1 H        0.925     0.098     1.801     2.099
    17   1 H        0.924     0.088     1.894     2.152
    18   1 H        0.926     0.109     1.709     2.044
    19   1 H        0.860     0.202     1.098     1.642
    20   1 H        0.924     0.123     1.590     1.972
    21   1 H        0.923     0.140     1.464     1.892
    22   1 H        0.924     0.099     1.795     2.095
    23   1 H        0.924     0.092     1.863     2.134
    24   1 H        0.924     0.106     1.730     2.057
    25   1 H        0.860     0.228     0.972     1.545

Wiberg/Mayer (AO) data.
largest (>0.10) Wiberg bond orders for each atom

     #   Z sym  total        # sym  WBO       # sym  WBO       # sym  WBO
 ---------------------------------------------------------------------------
     1   6 C    3.935 --     2 N    0.990    16 H    0.971    15 H    0.963
                            17 H    0.963
     2   7 N    3.658 --     3 C    1.382     6 C    1.124     1 C    0.990
                             4 N    0.105
     3   6 C    3.879 --     2 N    1.382     4 N    1.339    18 H    0.952
     4   7 N    3.550 --     3 C    1.339     5 C    1.074    25 H    0.919
                             2 N    0.105
     5   6 C    3.940 --    13 N    1.569     6 C    1.151     4 N    1.074
     6   6 C    3.743 --     7 C    1.159     5 C    1.151     2 N    1.124
     7   6 C    3.919 --     8 O    1.658     6 C    1.159     9 N    1.011
     8   8 O    1.963 --     7 C    1.658
     9   7 N    3.174 --     7 C    1.011    10 C    0.974    19 H    0.931
    10   6 C    3.948 --    11 C    1.068     9 N    0.974    20 H    0.921
                            21 H    0.911
    11   6 C    3.331 --    12 O    2.155    10 C    1.068
    12   8 O    2.288 --    11 C    2.155
    13   7 N    2.836 --     5 C    1.569    14 C    1.069
    14   6 C    3.892 --    13 N    1.069    22 H    0.937    23 H    0.929
                            24 H    0.913
    15   1 H    0.987 --     1 C    0.963
    16   1 H    0.989 --     1 C    0.971
    17   1 H    0.989 --     1 C    0.963
    18   1 H    0.986 --     3 C    0.952
    19   1 H    0.959 --     9 N    0.931
    20   1 H    0.974 --    10 C    0.921
    21   1 H    0.969 --    10 C    0.911
    22   1 H    0.957 --    14 C    0.937
    23   1 H    0.959 --    14 C    0.929
    24   1 H    0.939 --    14 C    0.913
    25   1 H    0.947 --     4 N    0.919
 ---------------------------------------------------------------------------

molecular dipole:
                 x           y           z       tot (Debye)
 q only:        1.816       0.874      -1.582
   full:        1.895       1.086      -1.706       7.045

           -------------------------------------------------
          | TOTAL ENERGY              -42.102503602902 Eh   |
          | GRADIENT NORM               0.006250006189 Eh/α |
          | HOMO-LUMO GAP               1.203483065619 eV   |
           -------------------------------------------------

 * finished run on 2024/06/05 at 19:59:19.443
