   * xtb version 6.6.1 (8d0f1dd) compiled by 'conda@1efc2f54142f' on 2023-08-01
          program call               : xtb struc.xyz --opt loose --input .xc1 --gfn2

   ID    Z sym.   atoms
    1    6 C      1, 3, 5-7, 10, 11, 14
    2    7 N      2, 4, 9, 13
    3    8 O      8, 12
    4    1 H      15-25
constraining bond 4 7 to    5.9200000 Å, actual value:    3.5994291 Å

          :  Hamiltonian                  GFN2-xTB          :
 * total energy  :   -32.6448718 Eh     change       -0.2401919E-09 Eh
 * total energy  :   -36.3798094 Eh     change       -0.3734938E+01 Eh
 * total energy  :   -39.0810215 Eh     change       -0.2701212E+01 Eh
 * total energy  :   -40.9372789 Eh     change       -0.1856257E+01 Eh
 * total energy  :   -41.7210474 Eh     change       -0.7837685E+00 Eh
 * total energy  :   -41.8233938 Eh     change       -0.1023464E+00 Eh
 * total energy  :   -41.8430579 Eh     change       -0.1966412E-01 Eh
 * total energy  :   -41.8990580 Eh     change       -0.5600005E-01 Eh
 * total energy  :   -41.9207975 Eh     change       -0.2173953E-01 Eh
 * total energy  :   -41.9374826 Eh     change       -0.1668507E-01 Eh
 * total energy  :   -42.1422888 Eh     change       -0.5366251E-04 Eh
 * total energy  :   -42.1432917 Eh     change       -0.1002979E-02 Eh
 * total energy  :   -42.1435530 Eh     change       -0.2612955E-03 Eh
 * total energy  :   -42.1438326 Eh     change       -0.2795951E-03 Eh
 * total energy  :   -42.1440265 Eh     change       -0.1939045E-03 Eh
 * total energy  :   -42.1441131 Eh     change       -0.8659262E-04 Eh
 * total energy  :   -42.1442556 Eh     change       -0.1425109E-03 Eh
 * total energy  :   -42.1443426 Eh     change       -0.8697076E-04 Eh
 * total energy  :   -42.1443748 Eh     change       -0.3219654E-04 Eh
   *** GEOMETRY OPTIMIZATION CONVERGED AFTER 46 ITERATIONS ***

 final structure:
================
25
 xtb: 6.6.1 (8d0f1dd)
C            3.01163278323440        0.63353857789010        0.03497696342208
N            2.41506205714542       -0.70883129169469       -0.00244781882101
C            3.39368897872622       -1.74591039323145       -0.01065552971474
N            3.41926136490148       -3.00211142558952       -0.03239275762099
C           -0.06498585396524       -0.08696151625987       -0.00716872840586
C            1.09504628006320       -0.78540065111747       -0.01161771862606
C           -0.50187216782813        1.41463265481252       -0.01303372241517
O            0.23616136912471        2.36452900381459       -0.02023918734705
N           -1.85926798632398        1.38204228758749       -0.00811228217545
C           -2.70473802308859        2.54848613248728       -0.01579131706905
C           -2.36274041274920        0.08293590400053        0.00286969322949
O           -3.51980994608129       -0.23462940595046        0.01146155560322
N           -1.27303659094548       -0.76646682286780        0.00349932857197
C           -1.41937145086489       -2.19429277464679        0.01414263968494
H            3.59219805070943        0.75819175551903        0.95078515303314
H            3.66383776585109        0.77562536365542       -0.82825870837326
H            2.23145976049921        1.39530192024753        0.01061046717415
H            4.37906309568675       -1.28441203058850        0.00866736321435
H           -2.07639888380254        3.43901735214945       -0.01034229158247
H           -3.33687732051733        2.54254493677597       -0.90675024337646
H           -3.35273657169815        2.54142411045340        0.86367845805093
H           -0.94785542295498       -2.61869496878969        0.90325899977498
H           -0.95864228270418       -2.63055720995708       -0.87483927066188
H           -2.48603100369736       -2.42319108110933        0.02213981171722
H            2.58738392537853       -3.57857188599067       -0.05326923938731

          :  Hamiltonian                  GFN2-xTB          :
         :: total energy             -42.144374797805 Eh    ::
         :: gradient norm              0.002443775927 Eh/a0 ::
         :: HOMO-LUMO gap              0.484224103617 eV    ::
         :: SCC energy               -42.662032369816 Eh    ::
         :: -> dispersion             -0.020429443671 Eh    ::
         :: repulsion energy           0.517269756536 Eh    ::

    * Orbital Energies and Occupations

         #    Occupation            Energy/Eh            Energy/eV
      -------------------------------------------------------------
         1        2.0000           -0.8952121             -24.3600
       ...           ...                  ...                  ...
        25        1.9943           -0.6550350             -17.8244
        26        1.9942           -0.6545056             -17.8100
        27        1.9919           -0.6466788             -17.5970
        28        1.9890           -0.6391702             -17.3927
        29        1.9863           -0.6339261             -17.2500
        30        1.9859           -0.6333240             -17.2336
        31        1.9833           -0.6291991             -17.1214
        32        1.9581           -0.6071086             -16.5203
        33        1.9490           -0.6023593             -16.3910
        34        1.9103           -0.5884388             -16.0122
        35        1.8851           -0.5822562             -15.8440
        36        1.7943           -0.5672476             -15.4356
        37        1.4162           -0.5368553             -14.6086 (HOMO)
        38        1.0684           -0.5190604             -14.1244 (LUMO)
        39        0.0899           -0.4432110             -12.0604
        40        0.0103           -0.3907963             -10.6341
        41        0.0018           -0.3487705              -9.4905
        42        0.0005           -0.3186185              -8.6700
        43        0.0000           -0.2065016              -5.6192
        44        0.0000           -0.1805367              -4.9127
        45        0.0000           -0.1671360              -4.5480
        46                         -0.0871849              -2.3724
        47                         -0.0832626              -2.2657
        48                         -0.0557311              -1.5165
       ...                                ...                  ...
        67                          0.5817319              15.8297
      -------------------------------------------------------------
                  HL-Gap            0.0177949 Eh            0.4842 eV

     #   Z          covCN         q      C6AA      α(0)
     1   6 C        3.714    -0.086    22.283     6.745
     2   7 N        2.726     0.049    20.391     6.707
     3   6 C        2.763     0.119    25.360     8.247
     4   7 N        1.771    -0.192    25.941     7.542
     5   6 C        2.937     0.019    27.595     8.615
     6   6 C        1.925    -0.003    31.174     9.017
     7   6 C        2.824     0.271    22.423     7.759
     8   8 O        0.856    -0.313    20.024     6.000
     9   7 N        2.778    -0.052    22.242     7.005
    10   6 C        3.691    -0.058    21.808     6.683
    11   6 C        2.800     0.318    21.602     7.614
    12   8 O        0.857    -0.319    20.130     6.015
    13   7 N        2.789    -0.024    21.708     6.920
    14   6 C        3.691    -0.069    22.008     6.713
    15   1 H        0.924     0.108     1.713     2.047
    16   1 H        0.924     0.109     1.708     2.044
    17   1 H        0.924     0.121     1.607     1.982
    18   1 H        0.925     0.121     1.602     1.979
    19   1 H        0.925     0.118     1.627     1.995
    20   1 H        0.924     0.116     1.643     2.004
    21   1 H        0.924     0.117     1.641     2.003
    22   1 H        0.924     0.102     1.768     2.079
    23   1 H        0.924     0.102     1.767     2.079
    24   1 H        0.924     0.125     1.577     1.964
    25   1 H        0.860     0.201     1.101     1.644

Wiberg/Mayer (AO) data.
largest (>0.10) Wiberg bond orders for each atom

     #   Z sym  total        # sym  WBO       # sym  WBO       # sym  WBO
 ---------------------------------------------------------------------------
     1   6 C    3.833 --    17 H    0.952    16 H    0.950    15 H    0.950
                             2 N    0.943
     2   7 N    3.484 --     6 C    1.342     3 C    1.057     1 C    0.943
     3   6 C    3.884 --     4 N    1.860     2 N    1.057    18 H    0.917
     4   7 N    2.905 --     3 C    1.860    25 H    0.918
     5   6 C    3.709 --     6 C    1.514    13 N    1.127     7 C    0.879
     6   6 C    3.044 --     5 C    1.514     2 N    1.342
     7   6 C    3.834 --     8 O    1.703     9 N    1.169     5 C    0.879
     8   8 O    1.980 --     7 C    1.703     9 N    0.121
     9   7 N    3.489 --     7 C    1.169    11 C    1.059    10 C    0.982
                             8 O    0.121
    10   6 C    3.862 --     9 N    0.982    19 H    0.959    21 H    0.942
                            20 H    0.942
    11   6 C    3.923 --    12 O    1.683    13 N    1.098     9 N    1.059
    12   8 O    1.949 --    11 C    1.683    13 N    0.104
    13   7 N    3.407 --     5 C    1.127    11 C    1.098    14 C    0.995
                            12 O    0.104
    14   6 C    3.890 --    13 N    0.995    24 H    0.958    22 H    0.949
                            23 H    0.949
    15   1 H    0.965 --     1 C    0.950
    16   1 H    0.965 --     1 C    0.950
    17   1 H    0.976 --     1 C    0.952
    18   1 H    0.958 --     3 C    0.917
    19   1 H    0.973 --    10 C    0.959
    20   1 H    0.958 --    10 C    0.942
    21   1 H    0.959 --    10 C    0.942
    22   1 H    0.964 --    14 C    0.949
    23   1 H    0.964 --    14 C    0.949
    24   1 H    0.975 --    14 C    0.958
    25   1 H    0.943 --     4 N    0.918
 ---------------------------------------------------------------------------

molecular dipole:
                 x           y           z       tot (Debye)
 q only:        1.370      -0.767       0.011
   full:        1.158      -0.601       0.011       3.317

           -------------------------------------------------
          | TOTAL ENERGY              -42.144374797805 Eh   |
          | GRADIENT NORM               0.002443775927 Eh/α |
          | HOMO-LUMO GAP               0.484224103617 eV   |
           -------------------------------------------------

 * finished run on 2024/06/05 at 19:58:45.127
