   * xtb version 6.6.1 (8d0f1dd) compiled by 'conda@1efc2f54142f' on 2023-08-01
          program call               : xtb xtbopt.xyz --opt crude --input .xc2 --gfn2

   ID    Z sym.   atoms
    1    6 C      1, 3, 5-7, 10, 11, 14
    2    7 N      2, 4, 9, 13
    3    8 O      8, 12
    4    1 H      15-25
########################################################################
[WARNING] Please study the warnings concerning your input carefully
-1- readin_getIntValue: could not parse ''
########################################################################

          :  Hamiltonian                  GFN2-xTB          :
 * total energy  :   -42.1447144 Eh     change       -0.9379164E-12 Eh
 * total energy  :   -42.1504703 Eh     change       -0.5755843E-02 Eh
 * total energy  :   -42.1551004 Eh     change       -0.4630133E-02 Eh
 * total energy  :   -42.1563581 Eh     change       -0.1257670E-02 Eh
 * total energy  :   -42.1568218 Eh     change       -0.4637304E-03 Eh
   *** GEOMETRY OPTIMIZATION CONVERGED AFTER 5 ITERATIONS ***

 final structure:
================
25
 xtb: 6.6.1 (8d0f1dd)
C            3.00216091420021        0.76649691985398        0.03906820096112
N            2.42609199277623       -0.57480218559888        0.00331015574920
C            3.33266057084151       -1.62612038144072       -0.01196958594244
N            3.11011200375994       -2.85754279960199       -0.03899880553692
C           -0.06098440818882       -0.19550550439959       -0.00425604139578
C            1.13085404070186       -0.81771801233050       -0.00406382768878
C           -0.39932344946555        1.26243962269694       -0.01615979901534
O            0.35254389254018        2.20905633914664       -0.02601957883779
N           -1.76923994372230        1.30768870275805       -0.01093210815825
C           -2.57457545020183        2.50049199970154       -0.01700344546510
C           -2.32838065963879        0.03292775391165        0.00133510862033
O           -3.49758785245572       -0.23652840816870        0.00880662453417
N           -1.27212644439595       -0.85893776266758        0.00390971284733
C           -1.45115268889772       -2.28092974511268        0.01513988394897
H            3.58983582806513        0.88808947298279        0.95070390113531
H            3.65058472861532        0.90751919130926       -0.82716281982923
H            2.21765240251762        1.52311932147699        0.02009856977517
H            4.37246442416701       -1.30586672271815        0.00199408358789
H           -1.91883560679227        3.37035397533979       -0.01074458667299
H           -3.20803061087465        2.51385729431989       -0.90737663174447
H           -3.22284886002883        2.51098629918929        0.86255748246533
H           -0.99191449864842       -2.71633689142808        0.90535947951230
H           -1.00122580838187       -2.72867392252025       -0.87376256791289
H           -2.52221264741793       -2.48483428068219        0.02198908489816
H            2.19390964502470       -3.29099173441755       -0.05465087193560

          :  Hamiltonian                  GFN2-xTB          :
         :: total energy             -42.156821798377 Eh    ::
         :: gradient norm              0.008915769038 Eh/a0 ::
         :: HOMO-LUMO gap              0.408783539747 eV    ::
         :: SCC energy               -42.687826043076 Eh    ::
         :: -> dispersion             -0.020849845235 Eh    ::
         :: repulsion energy           0.530937658863 Eh    ::

    * Orbital Energies and Occupations

         #    Occupation            Energy/Eh            Energy/eV
      -------------------------------------------------------------
         1        2.0000           -0.8966951             -24.4003
       ...           ...                  ...                  ...
        25        1.9939           -0.6554026             -17.8344
        26        1.9939           -0.6551955             -17.8288
        27        1.9915           -0.6474141             -17.6170
        28        1.9895           -0.6423858             -17.4802
        29        1.9858           -0.6350808             -17.2814
        30        1.9855           -0.6345174             -17.2661
        31        1.9821           -0.6294898             -17.1293
        32        1.9511           -0.6053065             -16.4712
        33        1.9435           -0.6017702             -16.3750
        34        1.9016           -0.5880921             -16.0028
        35        1.8728           -0.5816387             -15.8272
        36        1.7552           -0.5645375             -15.3618
        37        1.4250           -0.5393088             -14.6753 (HOMO)
        38        1.1367           -0.5242863             -14.2666 (LUMO)
        39        0.0908           -0.4454079             -12.1202
        40        0.0079           -0.3862608             -10.5107
        41        0.0018           -0.3511450              -9.5551
        42        0.0003           -0.3105081              -8.4494
        43        0.0000           -0.1922535              -5.2315
        44        0.0000           -0.1652932              -4.4979
        45        0.0000           -0.1415186              -3.8509
        46                         -0.0771672              -2.0998
        47                         -0.0586517              -1.5960
        48                         -0.0421964              -1.1482
       ...                                ...                  ...
        67                          0.5923546              16.1188
      -------------------------------------------------------------
                  HL-Gap            0.0150225 Eh            0.4088 eV

     #   Z          covCN         q      C6AA      α(0)
     1   6 C        3.702    -0.093    22.436     6.773
     2   7 N        2.730     0.060    20.200     6.675
     3   6 C        2.791     0.125    25.253     8.232
     4   7 N        1.773    -0.197    26.062     7.560
     5   6 C        2.974     0.025    27.435     8.592
     6   6 C        1.939    -0.016    31.507     9.065
     7   6 C        2.836     0.269    22.475     7.769
     8   8 O        0.857    -0.327    20.284     6.038
     9   7 N        2.794    -0.058    22.353     7.022
    10   6 C        3.690    -0.057    21.799     6.682
    11   6 C        2.816     0.318    21.610     7.617
    12   8 O        0.857    -0.318    20.108     6.012
    13   7 N        2.792    -0.024    21.700     6.919
    14   6 C        3.690    -0.068    22.002     6.713
    15   1 H        0.924     0.109     1.705     2.042
    16   1 H        0.924     0.109     1.701     2.040
    17   1 H        0.925     0.133     1.511     1.922
    18   1 H        0.925     0.122     1.598     1.977
    19   1 H        0.925     0.119     1.621     1.991
    20   1 H        0.924     0.117     1.634     1.999
    21   1 H        0.924     0.118     1.633     1.999
    22   1 H        0.924     0.103     1.754     2.071
    23   1 H        0.924     0.103     1.754     2.071
    24   1 H        0.924     0.125     1.575     1.963
    25   1 H        0.860     0.202     1.095     1.639

Wiberg/Mayer (AO) data.
largest (>0.10) Wiberg bond orders for each atom

     #   Z sym  total        # sym  WBO       # sym  WBO       # sym  WBO
 ---------------------------------------------------------------------------
     1   6 C    3.820 --    16 H    0.947    15 H    0.947     2 N    0.947
                            17 H    0.935
     2   7 N    3.505 --     6 C    1.331     3 C    1.091     1 C    0.947
     3   6 C    3.888 --     4 N    1.828     2 N    1.091    18 H    0.920
     4   7 N    2.863 --     3 C    1.828    25 H    0.916
     5   6 C    3.729 --     6 C    1.486    13 N    1.127     7 C    0.943
     6   6 C    3.012 --     5 C    1.486     2 N    1.331
     7   6 C    3.836 --     8 O    1.665     9 N    1.142     5 C    0.943
     8   8 O    1.948 --     7 C    1.665     9 N    0.115
     9   7 N    3.471 --     7 C    1.142    11 C    1.066    10 C    0.986
                             8 O    0.115
    10   6 C    3.859 --     9 N    0.986    19 H    0.958    21 H    0.939
                            20 H    0.939
    11   6 C    3.924 --    12 O    1.681    13 N    1.095     9 N    1.066
    12   8 O    1.944 --    11 C    1.681    13 N    0.103
    13   7 N    3.408 --     5 C    1.127    11 C    1.095    14 C    0.997
                            12 O    0.103
    14   6 C    3.888 --    13 N    0.997    24 H    0.958    22 H    0.948
                            23 H    0.948
    15   1 H    0.963 --     1 C    0.947
    16   1 H    0.963 --     1 C    0.947
    17   1 H    0.969 --     1 C    0.935
    18   1 H    0.961 --     3 C    0.920
    19   1 H    0.971 --    10 C    0.958
    20   1 H    0.955 --    10 C    0.939
    21   1 H    0.956 --    10 C    0.939
    22   1 H    0.963 --    14 C    0.948
    23   1 H    0.963 --    14 C    0.948
    24   1 H    0.975 --    14 C    0.958
    25   1 H    0.943 --     4 N    0.916
 ---------------------------------------------------------------------------

molecular dipole:
                 x           y           z       tot (Debye)
 q only:        1.391      -0.730       0.018
   full:        1.231      -0.508       0.022       3.385

           -------------------------------------------------
          | TOTAL ENERGY              -42.156821798377 Eh   |
          | GRADIENT NORM               0.008915769038 Eh/α |
          | HOMO-LUMO GAP               0.408783539747 eV   |
           -------------------------------------------------

 * finished run on 2024/06/05 at 19:58:45.383
