   * xtb version 6.6.1 (8d0f1dd) compiled by 'conda@1efc2f54142f' on 2023-08-01
          program call               : xtb struc.xyz --opt loose --input .xc1 --gfn2

   ID    Z sym.   atoms
    1    7 N      1, 17
    2    6 C      2-6, 8, 9, 11-16, 18-23, 25, 26, 28-33
    3    8 O      7, 10, 24, 27
    4    1 H      34-72
constraining bond 17 63 to    2.6866700 Å, actual value:    2.0952955 Å

          :  Hamiltonian                  GFN2-xTB          :
 * total energy  :   -99.4665752 Eh     change       -0.4035485E-08 Eh
 * total energy  :   -99.5786644 Eh     change       -0.1120892E+00 Eh
 * total energy  :   -99.7288358 Eh     change       -0.1501714E+00 Eh
 * total energy  :   -98.0901249 Eh     change        0.1638711E+01 Eh
 * total energy  :   -99.7738126 Eh     change       -0.1683688E+01 Eh
 * total energy  :   -99.8041706 Eh     change       -0.3035802E-01 Eh
 * total energy  :   -99.8101523 Eh     change       -0.5981669E-02 Eh
 * total energy  :   -99.8173369 Eh     change       -0.7184632E-02 Eh
 * total energy  :   -99.8244672 Eh     change       -0.7130277E-02 Eh
 * total energy  :   -99.8299045 Eh     change       -0.5437370E-02 Eh
 * total energy  :   -99.8769514 Eh     change       -0.1868458E-03 Eh
 * total energy  :   -99.8771163 Eh     change       -0.1648947E-03 Eh
 * total energy  :   -99.8772258 Eh     change       -0.1094459E-03 Eh
 * total energy  :   -99.8773849 Eh     change       -0.1591664E-03 Eh
 * total energy  :   -99.8775300 Eh     change       -0.1450654E-03 Eh
 * total energy  :   -99.8776667 Eh     change       -0.1367402E-03 Eh
 * total energy  :   -99.8777741 Eh     change       -0.1073408E-03 Eh
 * total energy  :   -99.8778305 Eh     change       -0.5644671E-04 Eh
 * total energy  :   -99.8778588 Eh     change       -0.2832425E-04 Eh
   *** GEOMETRY OPTIMIZATION CONVERGED AFTER 79 ITERATIONS ***

 final structure:
================
72
 xtb: 6.6.1 (8d0f1dd)
N           -0.97664690852195        3.32959725312908        1.20582222610574
C           -1.45283224322549        2.32806496261560        0.68888063919163
C           -2.72921394863203        1.99068938167951        0.05668515051266
C           -3.04219069176441        0.51699037908012        0.25979549552764
C           -4.03666057075198       -0.11025403701752       -0.48831093752547
C           -4.34239931605969       -1.44684719588686       -0.29380450074050
O           -5.27921290434688       -2.13773813966162       -0.97208713492145
C           -6.05457211106118       -1.47576562307404       -1.94342421453959
C           -3.63839772411906       -2.19223645881420        0.69077825354485
O           -3.99891127349148       -3.48503417964018        0.80045090776066
C           -3.36946421269266       -4.29440772737300        1.76558570294784
C           -2.66711875265686       -1.55446976956550        1.44493619664642
C           -2.37488781420182       -0.21427824353532        1.23023110076416
C           -2.58811249237928        2.35343436229596       -1.44756608845741
C           -1.81236184185950        1.37083353442521       -2.32710994161836
C           -0.33439688352379        1.21389845947979       -1.97659364226704
N           -0.15761201026071        0.13421641805808       -0.96563814188897
C            1.23996174529288        0.14401964430445       -0.38559748045197
C            2.33748300417580       -0.21005862555332       -1.38497773327380
C            3.68245907134193       -0.10227145750016       -0.71402113296485
C            4.27512830198095        1.13630910627186       -0.53483847080823
C            5.50788108425603        1.24913651086922        0.08963312131900
C            6.17458248314426        0.12105620307448        0.54430363217274
O            7.37426575743314        0.11174246198212        1.15551552496675
C            8.04762633283225        1.33122849504336        1.36499719205800
C            5.57540406561287       -1.15525838306039        0.36095713536324
O            6.29503169121514       -2.19840770586634        0.82052332640823
C            5.81434780947773       -3.50690190005960        0.62173879604049
C            4.33762487890745       -1.24226968739509       -0.25695571384112
C           -0.57604793752416       -1.14020344363923       -1.53104313013023
C           -3.90681912075446        2.82002547113093        0.69313365816293
C           -4.05543080400464        2.51303956011593        2.18064156156876
C           -3.76846631561317        4.32277670464160        0.48569903914904
H           -4.58189770322256        0.45611674266934       -1.22487526921217
H           -6.63382837970109       -0.65732036091209       -1.50496998957110
H           -6.73650401364393       -2.22785084598330       -2.33462315397694
H           -5.43432529607220       -1.09218837615974       -2.75992180836348
H           -3.54479178836954       -3.92150777154272        2.77930760258207
H           -3.82169691899242       -5.27860191779846        1.66066661955186
H           -2.29218404712152       -4.37106077346174        1.58500628654978
H           -2.13416284603546       -2.08909961137540        2.21440255077712
H           -1.62835379116576        0.26765325213663        1.84894384722840
H           -3.59261197319122        2.44504282650707       -1.86108484329437
H           -2.11750037635174        3.33557371699643       -1.51957666568357
H           -2.26392350512421        0.37506928987983       -2.29883330367409
H           -1.88367726658150        1.73600809923446       -3.35252971597744
H            0.07085684430942        2.14753254201116       -1.57497955896026
H            0.22618957199014        0.93473557972263       -2.86965429584672
H            1.24755844482484       -0.58165536099482        0.43104804394423
H            1.42442157357650        1.13735395540717        0.03122773752073
H            2.30998135528653        0.47640019350067       -2.23209502931451
H            2.18656701013902       -1.22532919496093       -1.75162671759338
H            3.78651575186289        2.02857732989874       -0.89721564664613
H            5.94777475723302        2.22565419744442        0.20805915555996
H            7.46788790978603        2.00492092549895        2.00371201454432
H            8.27617648849991        1.83086795939079        0.41878474302941
H            8.97649496191232        1.06889721013358        1.86759632408198
H            6.57963658582834       -4.16392840998369        1.03067333307283
H            4.87270259939009       -3.67450573616893        1.15460689481124
H            5.67850170132489       -3.72694324967518       -0.44146163888458
H            3.87514222596755       -2.20547796005423       -0.40382407016465
H           -0.04920874949910       -1.43930333595220       -2.41861678919705
H           -0.66663634381195        0.28704745994355       -0.34763977320177
H           -0.74456563491836       -1.90067540189356       -0.78918459470039
H           -4.81113548770433        2.47526168624354        0.18048910965227
H           -3.18408460802639        2.85628219596621        2.73329546241550
H           -4.18488162676776        1.44773288609746        2.35405187446553
H           -4.92790083968632        3.02870367866391        2.57293574072725
H           -2.84181848933311        4.68745552814737        0.92293630045618
H           -3.79587009126066        4.59509574858613       -0.56549674559199
H           -4.59435660235538        4.82659119649377        0.98174954139704
H           -0.05401615414392        3.42435729826570        1.60164087330093

          :  Hamiltonian                  GFN2-xTB          :
         :: total energy             -99.877858851076 Eh    ::
         :: gradient norm              0.002535915791 Eh/a0 ::
         :: HOMO-LUMO gap              0.651518993665 eV    ::
         :: SCC energy              -100.700248963702 Eh    ::
         :: -> dispersion             -0.078039720951 Eh    ::
         :: repulsion energy           1.446075155159 Eh    ::

    * Orbital Energies and Occupations

         #    Occupation            Energy/Eh            Energy/eV
      -------------------------------------------------------------
         1        2.0000           -0.8173702             -22.2418
       ...           ...                  ...                  ...
        78        1.9992           -0.5371653             -14.6170
        79        1.9991           -0.5343046             -14.5392
        80        1.9987           -0.5291769             -14.3996
        81        1.9986           -0.5285186             -14.3817
        82        1.9985           -0.5269546             -14.3392
        83        1.9984           -0.5259738             -14.3125
        84        1.9980           -0.5220075             -14.2045
        85        1.9977           -0.5200716             -14.1519
        86        1.9876           -0.4933322             -13.4243
        87        1.9828           -0.4881397             -13.2830
        88        1.9078           -0.4609129             -12.5421
        89        1.8713           -0.4553234             -12.3900
        90        1.4623           -0.4287752             -11.6676 (HOMO)
        91        0.7496           -0.4048323             -11.0160 (LUMO)
        92        0.0386           -0.3507465              -9.5443
        93        0.0053           -0.3190166              -8.6809
        94        0.0048           -0.3173774              -8.6363
        95        0.0034           -0.3121168              -8.4931
        96        0.0031           -0.3103148              -8.4441
        97        0.0000           -0.1935835              -5.2677
        98        0.0000           -0.1896284              -5.1601
        99        0.0000           -0.1757451              -4.7823
       100                         -0.1043184              -2.8386
       101                         -0.0838358              -2.2813
       ...                                ...                  ...
       171                          0.6097038              16.5909
      -------------------------------------------------------------
                  HL-Gap            0.0239429 Eh            0.6515 eV

     #   Z          covCN         q      C6AA      α(0)
     1   7 N        1.772    -0.194    25.998     7.550
     2   6 C        1.914     0.023    30.523     8.922
     3   6 C        3.905     0.023    20.130     6.377
     4   6 C        2.977    -0.009    28.242     8.717
     5   6 C        2.919    -0.079    29.986     8.980
     6   6 C        2.864     0.133    25.095     8.211
     7   8 O        1.706    -0.228    17.782     5.693
     8   6 C        3.645     0.027    20.456     6.500
     9   6 C        2.865     0.132    25.112     8.214
    10   8 O        1.706    -0.228    17.779     5.693
    11   6 C        3.645     0.028    20.438     6.497
    12   6 C        2.913    -0.073    29.815     8.954
    13   6 C        2.922    -0.061    29.510     8.908
    14   6 C        3.813    -0.067    21.776     6.642
    15   6 C        3.800    -0.081    22.054     6.686
    16   6 C        3.749    -0.027    21.118     6.554
    17   7 N        3.579     0.031    20.691     6.756
    18   6 C        3.740    -0.026    21.116     6.556
    19   6 C        3.807    -0.070    21.832     6.651
    20   6 C        2.970    -0.004    28.120     8.698
    21   6 C        2.922    -0.053    29.305     8.877
    22   6 C        2.914    -0.069    29.724     8.940
    23   6 C        2.865     0.132    25.104     8.213
    24   8 O        1.706    -0.224    17.723     5.684
    25   6 C        3.645     0.026    20.474     6.503
    26   6 C        2.863     0.133    25.098     8.212
    27   8 O        1.706    -0.226    17.754     5.689
    28   6 C        3.645     0.027    20.455     6.500
    29   6 C        2.919    -0.080    30.001     8.982
    30   6 C        2.779    -0.184    32.811     9.382
    31   6 C        3.852    -0.006    20.650     6.463
    32   6 C        3.755    -0.112    22.705     6.794
    33   6 C        3.755    -0.119    22.834     6.814
    34   1 H        0.926     0.051     2.305     2.374
    35   1 H        0.924     0.052     2.301     2.372
    36   1 H        0.925     0.082     1.963     2.191
    37   1 H        0.924     0.049     2.335     2.390
    38   1 H        0.924     0.053     2.284     2.363
    39   1 H        0.925     0.081     1.970     2.195
    40   1 H        0.924     0.047     2.356     2.400
    41   1 H        0.926     0.049     2.329     2.386
    42   1 H        0.925     0.029     2.600     2.522
    43   1 H        0.925     0.065     2.137     2.286
    44   1 H        0.924     0.057     2.235     2.338
    45   1 H        0.924     0.078     2.001     2.212
    46   1 H        0.924     0.071     2.075     2.253
    47   1 H        0.924     0.066     2.129     2.282
    48   1 H        0.924     0.086     1.919     2.166
    49   1 H        0.924     0.071     2.071     2.250
    50   1 H        0.924     0.061     2.189     2.314
    51   1 H        0.924     0.057     2.236     2.338
    52   1 H        0.925     0.065     2.145     2.290
    53   1 H        0.926     0.039     2.464     2.455
    54   1 H        0.926     0.056     2.243     2.342
    55   1 H        0.924     0.052     2.296     2.370
    56   1 H        0.924     0.055     2.262     2.352
    57   1 H        0.925     0.082     1.962     2.191
    58   1 H        0.925     0.081     1.965     2.192
    59   1 H        0.924     0.049     2.337     2.390
    60   1 H        0.924     0.053     2.286     2.365
    61   1 H        0.926     0.050     2.324     2.384
    62   1 H        0.926     0.035     2.523     2.484
    63   1 H        0.863     0.233     0.950     1.527
    64   1 H        0.926     0.022     2.706     2.572
    65   1 H        0.924     0.048     2.340     2.392
    66   1 H        0.925     0.045     2.386     2.415
    67   1 H        0.925     0.040     2.443     2.444
    68   1 H        0.925     0.054     2.269     2.356
    69   1 H        0.925     0.058     2.226     2.333
    70   1 H        0.925     0.042     2.426     2.436
    71   1 H        0.925     0.058     2.227     2.334
    72   1 H        0.860     0.188     1.169     1.694

Wiberg/Mayer (AO) data.
largest (>0.10) Wiberg bond orders for each atom

     #   Z sym  total        # sym  WBO       # sym  WBO       # sym  WBO
 ---------------------------------------------------------------------------
     1   7 N    3.115 --     2 C    2.085    72 H    0.916
     2   6 C    3.223 --     1 N    2.085     3 C    1.031
     3   6 C    3.949 --     2 C    1.031     4 C    0.972    14 C    0.939
                            31 C    0.893
     4   6 C    3.949 --    13 C    1.413     5 C    1.372     3 C    0.972
     5   6 C    3.966 --     6 C    1.399     4 C    1.372    34 H    0.959
     6   6 C    3.914 --     5 C    1.399     9 C    1.223     7 O    1.103
     7   8 O    2.265 --     6 C    1.103     8 C    0.978
     8   6 C    3.933 --     7 O    0.978    36 H    0.977    37 H    0.974
                            35 H    0.974
     9   6 C    3.911 --    12 C    1.394     6 C    1.223    10 O    1.104
    10   8 O    2.263 --     9 C    1.104    11 C    0.978
    11   6 C    3.933 --    10 O    0.978    39 H    0.977    40 H    0.974
                            38 H    0.974
    12   6 C    3.967 --    13 C    1.401     9 C    1.394    41 H    0.964
    13   6 C    3.957 --     4 C    1.413    12 C    1.401    42 H    0.958
    14   6 C    3.983 --    15 C    1.010    44 H    0.971    43 H    0.964
                             3 C    0.939
    15   6 C    3.977 --    14 C    1.010    16 C    1.006    46 H    0.968
                            45 H    0.955
    16   6 C    3.938 --    15 C    1.006    48 H    0.970    47 H    0.968
                            17 N    0.939
    17   7 N    3.743 --    30 C    0.944    16 C    0.939    18 C    0.905
                            63 H    0.904
    18   6 C    3.914 --    19 C    1.001    49 H    0.972    50 H    0.969
                            17 N    0.905
    19   6 C    3.986 --    18 C    1.001    20 C    0.999    52 H    0.969
                            51 H    0.966
    20   6 C    3.951 --    21 C    1.414    29 C    1.383    19 C    0.999
    21   6 C    3.956 --    22 C    1.414    20 C    1.414    53 H    0.969
    22   6 C    3.964 --    21 C    1.414    23 C    1.386    54 H    0.964
    23   6 C    3.903 --    22 C    1.386    26 C    1.224    24 O    1.107
    24   8 O    2.258 --    23 C    1.107    25 C    0.977
    25   6 C    3.930 --    57 H    0.977    24 O    0.977    55 H    0.973
                            56 H    0.973
    26   6 C    3.905 --    29 C    1.394    23 C    1.224    27 O    1.103
    27   8 O    2.257 --    26 C    1.103    28 C    0.978
    28   6 C    3.932 --    27 O    0.978    58 H    0.977    60 H    0.974
                            59 H    0.974
    29   6 C    3.963 --    26 C    1.394    20 C    1.383    61 H    0.962
    30   6 C    2.968 --    62 H    0.979    64 H    0.979    17 N    0.944
    31   6 C    3.941 --    33 C    1.014    32 C    1.012    65 H    0.954
                             3 C    0.893
    32   6 C    3.991 --    31 C    1.012    66 H    0.984    67 H    0.982
                            68 H    0.981
    33   6 C    3.986 --    31 C    1.014    70 H    0.983    71 H    0.977
                            69 H    0.974
    34   1 H    0.996 --     5 C    0.959
    35   1 H    0.994 --     8 C    0.974
    36   1 H    0.993 --     8 C    0.977
    37   1 H    0.995 --     8 C    0.974
    38   1 H    0.994 --    11 C    0.974
    39   1 H    0.993 --    11 C    0.977
    40   1 H    0.995 --    11 C    0.974
    41   1 H    0.996 --    12 C    0.964
    42   1 H    0.999 --    13 C    0.958
    43   1 H    0.994 --    14 C    0.964
    44   1 H    0.995 --    14 C    0.971
    45   1 H    0.994 --    15 C    0.955
    46   1 H    0.994 --    15 C    0.968
    47   1 H    0.995 --    16 C    0.968
    48   1 H    0.992 --    16 C    0.970
    49   1 H    0.995 --    18 C    0.972
    50   1 H    0.994 --    18 C    0.969
    51   1 H    0.995 --    19 C    0.966
    52   1 H    0.995 --    19 C    0.969
    53   1 H    0.998 --    21 C    0.969
    54   1 H    0.995 --    22 C    0.964
    55   1 H    0.993 --    25 C    0.973
    56   1 H    0.992 --    25 C    0.973
    57   1 H    0.993 --    25 C    0.977
    58   1 H    0.993 --    28 C    0.977
    59   1 H    0.994 --    28 C    0.974
    60   1 H    0.993 --    28 C    0.974
    61   1 H    0.996 --    29 C    0.962
    62   1 H    0.991 --    30 C    0.979
    63   1 H    0.944 --    17 N    0.904
    64   1 H    0.994 --    30 C    0.979
    65   1 H    0.988 --    31 C    0.954
    66   1 H    0.997 --    32 C    0.984
    67   1 H    0.998 --    32 C    0.982
    68   1 H    0.995 --    32 C    0.981
    69   1 H    0.995 --    33 C    0.974
    70   1 H    0.998 --    33 C    0.983
    71   1 H    0.993 --    33 C    0.977
    72   1 H    0.939 --     1 N    0.916
 ---------------------------------------------------------------------------

molecular dipole:
                 x           y           z       tot (Debye)
 q only:        0.029       1.100      -0.593
   full:        0.197       1.242      -0.304       3.289

           -------------------------------------------------
          | TOTAL ENERGY              -99.877858851076 Eh   |
          | GRADIENT NORM               0.002535915791 Eh/α |
          | HOMO-LUMO GAP               0.651518993665 eV   |
           -------------------------------------------------

 * finished run on 2024/04/06 at 11:16:55.839
