   * xtb version 6.6.1 (8d0f1dd) compiled by 'conda@1efc2f54142f' on 2023-08-01
          program call               : xtb xtbopt.xyz --opt crude --input .xc2 --gfn2

   ID    Z sym.   atoms
    1    7 N      1, 17
    2    6 C      2-6, 8, 9, 11-16, 18-23, 25, 26, 28-33
    3    8 O      7, 10, 24, 27
    4    1 H      34-72
########################################################################
[WARNING] Please study the warnings concerning your input carefully
-1- readin_getIntValue: could not parse ''
########################################################################

          :  Hamiltonian                  GFN2-xTB          :
 * total energy  :   -99.2524261 Eh     change       -0.6352252E-11 Eh
 * total energy  :   -99.3057970 Eh     change       -0.5337092E-01 Eh
 * total energy  :   -99.3067012 Eh     change       -0.9041501E-03 Eh
 * total energy  :   -99.3070915 Eh     change       -0.3902805E-03 Eh
   *** GEOMETRY OPTIMIZATION CONVERGED AFTER 4 ITERATIONS ***

 final structure:
================
72
 xtb: 6.6.1 (8d0f1dd)
N           -0.96832982855930        3.30938526806632        1.20138956481563
C           -1.44366328794506        2.31123944468689        0.67621392244067
C           -2.73134028179113        1.98911134157376        0.05297152026229
C           -3.04441674303314        0.51581812669161        0.25606281751783
C           -4.03962598228417       -0.11210610361695       -0.49016266420379
C           -4.34332915745781       -1.44914071464975       -0.29612386035083
O           -5.28140927941678       -2.13918910209767       -0.97197688445483
C           -6.05634251478762       -1.47832776713511       -1.94445865519842
C           -3.63638266746792       -2.19487261777030        0.68658271948861
O           -3.99930655709856       -3.48662255450097        0.80012469167352
C           -3.37077851543173       -4.29367251350083        1.76804786892917
C           -2.66214702724014       -1.55839735959604        1.43745068437212
C           -2.36994571093346       -0.21707163587071        1.22301227594540
C           -2.59164149012275        2.35303223185375       -1.45072935616471
C           -1.81616860994583        1.37069716763381       -2.33028187915326
C           -0.33690082108441        1.21659755287503       -1.98251088844958
N           -0.14351754111166        0.13326823836562       -0.98635040771865
C            1.23969340329758        0.14626453554700       -0.39402507755587
C            2.34481141293566       -0.20335151381661       -1.39105416671425
C            3.68795414324005       -0.09930172471427       -0.71577353960376
C            4.28197371100907        1.13867123259191       -0.53424117009372
C            5.51343473395157        1.25005472639356        0.09274830986253
C            6.17778351192196        0.12082458340172        0.54813986130076
O            7.37621088665410        0.11026310055611        1.16239198462079
C            8.05190106528156        1.32944219841482        1.36763663550281
C            5.57776520508118       -1.15465677168201        0.36272312642925
O            6.29563869849417       -2.19851990841427        0.82327015454304
C            5.81389628255716       -3.50658270569052        0.62532736435858
C            4.34114682435938       -1.24028599376625       -0.25846975957578
C           -0.56952291511093       -1.13827009541882       -1.53306138279917
C           -3.90523647783903        2.81942337188405        0.69298103251687
C           -4.05036187721945        2.51351351498905        2.18057255626053
C           -3.76508747080492        4.32172765118986        0.48452510049881
H           -4.58795555151555        0.45471611806212       -1.22392864787108
H           -6.63452856739577       -0.65802139135965       -1.50797256156514
H           -6.73944607216411       -2.23064381505171       -2.33346152346208
H           -5.43575398718550       -1.09747773527071       -2.76193755435327
H           -3.54412859537542       -3.91594596789352        2.78030661213763
H           -3.82571384871220       -5.27705268697894        1.66821786166543
H           -2.29425767949360       -4.37371281293288        1.58637474705606
H           -2.12919309785400       -2.09260144308161        2.20719188208321
H           -1.63469174899390        0.26696971656422        1.85444014129374
H           -3.59622246346576        2.44651486954543       -1.86349340459960
H           -2.11942089280235        3.33414636991378       -1.52180603128290
H           -2.26493064492740        0.37409732393077       -2.29862944326485
H           -1.89161627922112        1.73422044643069       -3.35582404850464
H            0.06656122483220        2.14850304836411       -1.58079344687698
H            0.22057555138273        0.94692335762303       -2.88082441560506
H            1.24944207310735       -0.58278817768467        0.41950403048672
H            1.42195651051324        1.13839706120058        0.02637718224745
H            2.32090909697782        0.48625020467014       -2.23602900403014
H            2.19500555458061       -1.21729745048315       -1.76284647213027
H            3.79497697312672        2.03140318179603       -0.89728295994972
H            5.95371714727369        2.22615973767702        0.21308405652439
H            7.47445584370171        2.00511505344570        2.00614869685745
H            8.27842476467272        1.82644767178489        0.41950400081255
H            8.98176640414003        1.06732972957239        1.86839348610343
H            6.57742055567750       -4.16415815435000        1.03622197685925
H            4.87100536702525       -3.67242698544676        1.15622267041212
H            5.67983586593583       -3.72782013129365       -0.43798883277055
H            3.87825347516043       -2.20296846859736       -0.40763982932342
H           -0.06121932309065       -1.44048208103351       -2.43215123597474
H           -0.78897349434943        0.32932827864407       -0.20471998689543
H           -0.73380721538958       -1.89932787900916       -0.79203163654711
H           -4.81129142679929        2.47561360137655        0.18267169937879
H           -3.17782525108170        2.85696783066615        2.73091508937796
H           -4.18055932495158        1.44847389977281        2.35596582810201
H           -4.92169083517068        3.02980855931650        2.57436676443873
H           -2.83497126442668        4.68384143951041        0.91591347638618
H           -3.79822506758834        4.59398356140376       -0.56640907499864
H           -4.58670555305578        4.82763190445262        0.98510993406486
H           -0.04141774811870        3.40505653274731        1.58715231701150

          :  Hamiltonian                  GFN2-xTB          :
         :: total energy             -99.307091470824 Eh    ::
         :: gradient norm              0.007320728264 Eh/a0 ::
         :: HOMO-LUMO gap              0.608609340696 eV    ::
         :: SCC energy              -100.676726136691 Eh    ::
         :: -> dispersion             -0.078053253990 Eh    ::
         :: repulsion energy           1.367886009658 Eh    ::

    * Orbital Energies and Occupations

         #    Occupation            Energy/Eh            Energy/eV
      -------------------------------------------------------------
         1        2.0000           -0.8096482             -22.0316
       ...           ...                  ...                  ...
        78        1.9992           -0.5374786             -14.6255
        79        1.9990           -0.5338216             -14.5260
        80        1.9987           -0.5299699             -14.4212
        81        1.9986           -0.5283942             -14.3783
        82        1.9985           -0.5270340             -14.3413
        83        1.9984           -0.5256397             -14.3034
        84        1.9980           -0.5223959             -14.2151
        85        1.9976           -0.5198748             -14.1465
        86        1.9882           -0.4944686             -13.4552
        87        1.9823           -0.4879818             -13.2787
        88        1.9132           -0.4622091             -12.5773
        89        1.8679           -0.4551761             -12.3860
        90        1.4408           -0.4282165             -11.6524 (HOMO)
        91        0.7711           -0.4058505             -11.0438 (LUMO)
        92        0.0358           -0.3498057              -9.5187
        93        0.0058           -0.3206677              -8.7258
        94        0.0054           -0.3194799              -8.6935
        95        0.0033           -0.3119039              -8.4873
        96        0.0030           -0.3101340              -8.4392
        97        0.0000           -0.1952180              -5.3122
        98        0.0000           -0.1889409              -5.1413
        99        0.0000           -0.1723444              -4.6897
       100                         -0.0922070              -2.5091
       101                         -0.0826180              -2.2482
       ...                                ...                  ...
       171                          0.5917790              16.1031
      -------------------------------------------------------------
                  HL-Gap            0.0223660 Eh            0.6086 eV

     #   Z          covCN         q      C6AA      α(0)
     1   7 N        1.772    -0.195    26.024     7.554
     2   6 C        1.915     0.018    30.629     8.938
     3   6 C        3.905     0.022    20.145     6.380
     4   6 C        2.977    -0.009    28.227     8.715
     5   6 C        2.919    -0.080    29.990     8.980
     6   6 C        2.864     0.133    25.083     8.209
     7   8 O        1.706    -0.227    17.769     5.691
     8   6 C        3.645     0.027    20.460     6.501
     9   6 C        2.865     0.132    25.108     8.214
    10   8 O        1.706    -0.228    17.777     5.693
    11   6 C        3.645     0.028    20.441     6.498
    12   6 C        2.913    -0.073    29.818     8.954
    13   6 C        2.921    -0.062    29.536     8.912
    14   6 C        3.813    -0.067    21.781     6.643
    15   6 C        3.800    -0.081    22.051     6.686
    16   6 C        3.750    -0.024    21.072     6.547
    17   7 N        3.577     0.036    20.606     6.742
    18   6 C        3.741    -0.023    21.061     6.548
    19   6 C        3.807    -0.069    21.817     6.649
    20   6 C        2.970    -0.004    28.113     8.697
    21   6 C        2.922    -0.052    29.297     8.876
    22   6 C        2.914    -0.069    29.721     8.940
    23   6 C        2.865     0.132    25.104     8.213
    24   8 O        1.706    -0.224    17.723     5.684
    25   6 C        3.645     0.026    20.474     6.503
    26   6 C        2.863     0.133    25.097     8.212
    27   8 O        1.706    -0.226    17.751     5.688
    28   6 C        3.645     0.027    20.454     6.500
    29   6 C        2.919    -0.080    29.994     8.981
    30   6 C        2.779    -0.175    32.557     9.346
    31   6 C        3.852    -0.006    20.654     6.464
    32   6 C        3.755    -0.112    22.705     6.794
    33   6 C        3.755    -0.119    22.830     6.813
    34   1 H        0.926     0.052     2.295     2.369
    35   1 H        0.924     0.052     2.297     2.370
    36   1 H        0.925     0.082     1.960     2.189
    37   1 H        0.924     0.049     2.331     2.388
    38   1 H        0.924     0.053     2.282     2.363
    39   1 H        0.925     0.081     1.967     2.193
    40   1 H        0.924     0.047     2.353     2.399
    41   1 H        0.926     0.050     2.321     2.383
    42   1 H        0.925     0.032     2.561     2.502
    43   1 H        0.925     0.065     2.142     2.289
    44   1 H        0.924     0.057     2.231     2.336
    45   1 H        0.924     0.076     2.020     2.222
    46   1 H        0.924     0.070     2.083     2.257
    47   1 H        0.924     0.065     2.138     2.287
    48   1 H        0.924     0.084     1.940     2.178
    49   1 H        0.924     0.070     2.086     2.259
    50   1 H        0.924     0.060     2.201     2.320
    51   1 H        0.924     0.056     2.245     2.343
    52   1 H        0.924     0.063     2.162     2.299
    53   1 H        0.926     0.039     2.460     2.453
    54   1 H        0.926     0.056     2.242     2.342
    55   1 H        0.924     0.052     2.294     2.369
    56   1 H        0.924     0.055     2.261     2.352
    57   1 H        0.925     0.082     1.962     2.191
    58   1 H        0.925     0.081     1.965     2.192
    59   1 H        0.924     0.049     2.336     2.390
    60   1 H        0.924     0.053     2.287     2.365
    61   1 H        0.926     0.050     2.326     2.385
    62   1 H        0.926     0.036     2.506     2.476
    63   1 H        0.859     0.223     0.998     1.565
    64   1 H        0.926     0.022     2.697     2.568
    65   1 H        0.924     0.048     2.347     2.396
    66   1 H        0.925     0.045     2.381     2.413
    67   1 H        0.925     0.040     2.451     2.448
    68   1 H        0.925     0.054     2.270     2.356
    69   1 H        0.925     0.058     2.226     2.333
    70   1 H        0.925     0.042     2.427     2.436
    71   1 H        0.925     0.057     2.230     2.335
    72   1 H        0.860     0.186     1.178     1.700

Wiberg/Mayer (AO) data.
largest (>0.10) Wiberg bond orders for each atom

     #   Z sym  total        # sym  WBO       # sym  WBO       # sym  WBO
 ---------------------------------------------------------------------------
     1   7 N    3.110 --     2 C    2.080    72 H    0.917
     2   6 C    3.226 --     1 N    2.080     3 C    1.026
     3   6 C    3.948 --     2 C    1.026     4 C    0.972    14 C    0.939
                            31 C    0.896
     4   6 C    3.951 --    13 C    1.405     5 C    1.372     3 C    0.972
     5   6 C    3.967 --     6 C    1.399     4 C    1.372    34 H    0.959
     6   6 C    3.915 --     5 C    1.399     9 C    1.222     7 O    1.105
     7   8 O    2.268 --     6 C    1.105     8 C    0.978
     8   6 C    3.932 --     7 O    0.978    36 H    0.977    37 H    0.974
                            35 H    0.974
     9   6 C    3.913 --    12 C    1.396     6 C    1.222    10 O    1.104
    10   8 O    2.264 --     9 C    1.104    11 C    0.978
    11   6 C    3.932 --    10 O    0.978    39 H    0.977    40 H    0.974
                            38 H    0.974
    12   6 C    3.966 --     9 C    1.396    13 C    1.395    41 H    0.964
    13   6 C    3.958 --     4 C    1.405    12 C    1.395    42 H    0.955
    14   6 C    3.984 --    15 C    1.010    44 H    0.971    43 H    0.964
                             3 C    0.939
    15   6 C    3.978 --    14 C    1.010    16 C    1.006    46 H    0.969
                            45 H    0.955
    16   6 C    3.940 --    15 C    1.006    47 H    0.968    48 H    0.968
                            17 N    0.946
    17   7 N    3.746 --    30 C    0.956    16 C    0.946    18 C    0.915
                            63 H    0.864
    18   6 C    3.916 --    19 C    0.997    49 H    0.973    50 H    0.969
                            17 N    0.915
    19   6 C    3.986 --    20 C    1.000    18 C    0.997    52 H    0.970
                            51 H    0.966
    20   6 C    3.950 --    21 C    1.413    29 C    1.383    19 C    1.000
    21   6 C    3.956 --    22 C    1.415    20 C    1.413    53 H    0.969
    22   6 C    3.963 --    21 C    1.415    23 C    1.386    54 H    0.963
    23   6 C    3.902 --    22 C    1.386    26 C    1.224    24 O    1.107
    24   8 O    2.257 --    23 C    1.107    25 C    0.977
    25   6 C    3.930 --    57 H    0.977    24 O    0.977    55 H    0.973
                            56 H    0.973
    26   6 C    3.904 --    29 C    1.394    23 C    1.224    27 O    1.103
    27   8 O    2.257 --    26 C    1.103    28 C    0.978
    28   6 C    3.932 --    27 O    0.978    58 H    0.977    60 H    0.974
                            59 H    0.974
    29   6 C    3.963 --    26 C    1.394    20 C    1.383    61 H    0.962
    30   6 C    2.975 --    64 H    0.979    62 H    0.976    17 N    0.956
    31   6 C    3.942 --    33 C    1.014    32 C    1.012    65 H    0.954
                             3 C    0.896
    32   6 C    3.991 --    31 C    1.012    66 H    0.984    67 H    0.982
                            68 H    0.981
    33   6 C    3.985 --    31 C    1.014    70 H    0.983    71 H    0.977
                            69 H    0.975
    34   1 H    0.996 --     5 C    0.959
    35   1 H    0.994 --     8 C    0.974
    36   1 H    0.993 --     8 C    0.977
    37   1 H    0.995 --     8 C    0.974
    38   1 H    0.994 --    11 C    0.974
    39   1 H    0.993 --    11 C    0.977
    40   1 H    0.995 --    11 C    0.974
    41   1 H    0.996 --    12 C    0.964
    42   1 H    0.998 --    13 C    0.955
    43   1 H    0.994 --    14 C    0.964
    44   1 H    0.995 --    14 C    0.971
    45   1 H    0.994 --    15 C    0.955
    46   1 H    0.994 --    15 C    0.969
    47   1 H    0.996 --    16 C    0.968
    48   1 H    0.992 --    16 C    0.968
    49   1 H    0.995 --    18 C    0.973
    50   1 H    0.994 --    18 C    0.969
    51   1 H    0.995 --    19 C    0.966
    52   1 H    0.995 --    19 C    0.970
    53   1 H    0.998 --    21 C    0.969
    54   1 H    0.995 --    22 C    0.963
    55   1 H    0.993 --    25 C    0.973
    56   1 H    0.992 --    25 C    0.973
    57   1 H    0.993 --    25 C    0.977
    58   1 H    0.993 --    28 C    0.977
    59   1 H    0.993 --    28 C    0.974
    60   1 H    0.993 --    28 C    0.974
    61   1 H    0.996 --    29 C    0.962
    62   1 H    0.991 --    30 C    0.976
    63   1 H    0.945 --    17 N    0.864
    64   1 H    0.994 --    30 C    0.979
    65   1 H    0.988 --    31 C    0.954
    66   1 H    0.997 --    32 C    0.984
    67   1 H    0.998 --    32 C    0.982
    68   1 H    0.995 --    32 C    0.981
    69   1 H    0.995 --    33 C    0.975
    70   1 H    0.998 --    33 C    0.983
    71   1 H    0.993 --    33 C    0.977
    72   1 H    0.940 --     1 N    0.917
 ---------------------------------------------------------------------------

molecular dipole:
                 x           y           z       tot (Debye)
 q only:       -0.010       1.036      -0.567
   full:        0.165       1.171      -0.312       3.109

           -------------------------------------------------
          | TOTAL ENERGY              -99.307091470824 Eh   |
          | GRADIENT NORM               0.007320728264 Eh/α |
          | HOMO-LUMO GAP               0.608609340696 eV   |
           -------------------------------------------------

 * finished run on 2024/04/06 at 11:16:56.819
