   * xtb version 6.6.1 (8d0f1dd) compiled by 'conda@1efc2f54142f' on 2023-08-01
          program call               : xtb struc.xyz --opt loose --input .xc1 --gfn2

   ID    Z sym.   atoms
    1    6 C      1, 3, 5-7, 10, 11, 14
    2    7 N      2, 4, 9, 13
    3    8 O      8, 12
    4    1 H      15-25
constraining bond 19 21 to    3.2800000 Å, actual value:    1.7861504 Å

          :  Hamiltonian                  GFN2-xTB          :
 * total energy  :   -34.2787200 Eh     change       -0.6650680E-10 Eh
 * total energy  :   -39.0207422 Eh     change       -0.4742022E+01 Eh
 * total energy  :   -41.4189920 Eh     change       -0.2398250E+01 Eh
 * total energy  :   -42.0366355 Eh     change       -0.6176435E+00 Eh
 * total energy  :   -42.0659503 Eh     change       -0.2931479E-01 Eh
 * total energy  :   -42.0663669 Eh     change       -0.4165919E-03 Eh
 * total energy  :   -42.0671668 Eh     change       -0.7999521E-03 Eh
 * total energy  :   -42.0679910 Eh     change       -0.8241128E-03 Eh
 * total energy  :   -42.0699968 Eh     change       -0.2005814E-02 Eh
 * total energy  :   -42.0707313 Eh     change       -0.7344938E-03 Eh
 * total energy  :   -42.1869355 Eh     change       -0.4002138E-03 Eh
 * total energy  :   -42.1871586 Eh     change       -0.2230980E-03 Eh
 * total energy  :   -42.1875200 Eh     change       -0.3614235E-03 Eh
 * total energy  :   -42.1877744 Eh     change       -0.2543746E-03 Eh
 * total energy  :   -42.1879452 Eh     change       -0.1708793E-03 Eh
 * total energy  :   -42.1880893 Eh     change       -0.1440121E-03 Eh
 * total energy  :   -42.1881725 Eh     change       -0.8323719E-04 Eh
 * total energy  :   -42.1882508 Eh     change       -0.7832699E-04 Eh
 * total energy  :   -42.1882864 Eh     change       -0.3555745E-04 Eh
   *** GEOMETRY OPTIMIZATION CONVERGED AFTER 40 ITERATIONS ***

 final structure:
================
25
 xtb: 6.6.1 (8d0f1dd)
C            3.10258522551216        1.21806918805998       -0.04161129433439
N            2.17559184834315        0.12041593419890       -0.06642139821509
C            2.50062510068928       -1.18661758964135       -0.06167662274877
N            1.37389038204423       -1.93513226017187       -0.03305585246114
C            0.30566304017557       -1.09612305247488       -0.01599207973299
C            0.79934561181389        0.21423790547785       -0.03817119937622
C           -0.08355223117985        1.28745707110913       -0.03474778430643
O            0.32684221474856        2.56840794390537       -0.03252388025751
N           -1.43266458843918        1.00667675941798       -0.01970399194866
C           -2.35680571102107        1.97990669106545       -0.05252924535330
C           -1.94574442293160       -0.33743990908875        0.06768390854827
O           -3.12817615701315       -0.53045698802258        0.14525892564579
N           -1.02366632226854       -1.36565281267884        0.04181338152055
C           -1.50061071661197       -2.73478874631580        0.08409070393990
H            3.47854333389766        1.37918921719020        0.97137968644795
H            3.94469138468020        1.00900493999854       -0.69948057163475
H            2.59457448177968        2.12074285437587       -0.37243199806751
H            3.49784209179759       -1.57228052502509       -0.07420750825563
H           -0.42578301409751        3.14024686504316        0.19445002870007
H           -2.11330364677577        2.99517369712792       -0.28562119570622
H           -3.37371681619267        1.70192808387927        0.09654170801632
H           -1.15357061855194       -3.22958892232783        0.99122537964185
H           -1.15811260381371       -3.27996623167146       -0.79532546713460
H           -2.58895269896674       -2.71160463719257        0.08791724344351
H            1.34489634648152       -2.94356693463871       -0.02568925847092

          :  Hamiltonian                  GFN2-xTB          :
         :: total energy             -42.188286376758 Eh    ::
         :: gradient norm              0.003567488448 Eh/a0 ::
         :: HOMO-LUMO gap              1.470356824389 eV    ::
         :: SCC energy               -42.711243750315 Eh    ::
         :: -> dispersion             -0.022968140691 Eh    ::
         :: repulsion energy           0.522832575713 Eh    ::

    * Orbital Energies and Occupations

         #    Occupation            Energy/Eh            Energy/eV
      -------------------------------------------------------------
         1        2.0000           -0.8906288             -24.2352
       ...           ...                  ...                  ...
        25        2.0000           -0.6676871             -18.1687
        26        2.0000           -0.6611313             -17.9903
        27        2.0000           -0.6583535             -17.9147
        28        2.0000           -0.6448770             -17.5480
        29        2.0000           -0.6259424             -17.0328
        30        2.0000           -0.6221727             -16.9302
        31        2.0000           -0.6173030             -16.7977
        32        1.9999           -0.6109836             -16.6257
        33        1.9999           -0.6050571             -16.4644
        34        1.9999           -0.6029965             -16.4084
        35        1.9992           -0.5712775             -15.5453
        36        1.9972           -0.5519291             -15.0188
        37        1.6657           -0.4733979             -12.8818 (HOMO)
        38        0.2821           -0.4193633             -11.4115 (LUMO)
        39        0.0447           -0.3881524             -10.5622
        40        0.0115           -0.3663494              -9.9689
        41        0.0001           -0.2814439              -7.6585
        42        0.0000           -0.1973873              -5.3712
        43        0.0000           -0.1823180              -4.9611
        44                         -0.1447698              -3.9394
        45                         -0.1232669              -3.3543
        46                         -0.1038599              -2.8262
        47                         -0.0639361              -1.7398
        48                         -0.0435823              -1.1859
       ...                                ...                  ...
        67                          0.5340987              14.5336
      -------------------------------------------------------------
                  HL-Gap            0.0540346 Eh            1.4704 eV

     #   Z          covCN         q      C6AA      α(0)
     1   6 C        3.690    -0.087    22.356     6.766
     2   7 N        2.822     0.050    20.369     6.703
     3   6 C        3.034     0.031    27.285     8.568
     4   7 N        2.779    -0.057    22.338     7.020
     5   6 C        3.045     0.083    26.109     8.381
     6   6 C        3.085     0.001    27.906     8.660
     7   6 C        2.786     0.150    24.725     8.145
     8   8 O        1.659    -0.365    20.174     6.063
     9   7 N        2.741    -0.011    21.468     6.881
    10   6 C        2.815    -0.086    30.132     8.994
    11   6 C        2.740     0.303    21.855     7.654
    12   8 O        0.859    -0.360    20.899     6.129
    13   7 N        2.736    -0.050    22.202     6.998
    14   6 C        3.700    -0.072    22.042     6.714
    15   1 H        0.924     0.098     1.802     2.099
    16   1 H        0.925     0.097     1.813     2.105
    17   1 H        0.925     0.118     1.631     1.997
    18   1 H        0.927     0.113     1.673     2.023
    19   1 H        0.804     0.342     0.608     1.225
    20   1 H        0.927     0.078     2.003     2.213
    21   1 H        0.927     0.112     1.677     2.025
    22   1 H        0.925     0.083     1.950     2.184
    23   1 H        0.925     0.082     1.962     2.190
    24   1 H        0.925     0.124     1.580     1.965
    25   1 H        0.860     0.223     0.998     1.565

Wiberg/Mayer (AO) data.
largest (>0.10) Wiberg bond orders for each atom

     #   Z sym  total        # sym  WBO       # sym  WBO       # sym  WBO
 ---------------------------------------------------------------------------
     1   6 C    3.930 --     2 N    0.991    16 H    0.970    17 H    0.967
                            15 H    0.960
     2   7 N    3.591 --     3 C    1.299     6 C    1.132     1 C    0.991
     3   6 C    3.721 --     2 N    1.299     4 N    1.260    18 H    0.957
     4   7 N    3.565 --     3 C    1.260     5 C    1.199    25 H    0.922
     5   6 C    3.866 --     6 C    1.266     4 N    1.199    13 N    1.159
     6   6 C    3.939 --     7 C    1.280     5 C    1.266     2 N    1.132
     7   6 C    3.753 --     6 C    1.280     9 N    1.133     8 O    1.099
                            10 C    0.131
     8   8 O    2.103 --     7 C    1.099    19 H    0.835
     9   7 N    3.637 --    10 C    1.305     7 C    1.133    11 C    0.981
    10   6 C    3.539 --     9 N    1.305    21 H    0.963    20 H    0.957
                             7 C    0.131
    11   6 C    3.908 --    12 O    1.699    13 N    1.118     9 N    0.981
    12   8 O    2.032 --    11 C    1.699    13 N    0.147
    13   7 N    3.543 --     5 C    1.159    11 C    1.118    14 C    0.972
                            12 O    0.147
    14   6 C    3.927 --    13 N    0.972    23 H    0.972    22 H    0.971
                            24 H    0.966
    15   1 H    0.983 --     1 C    0.960
    16   1 H    0.987 --     1 C    0.970
    17   1 H    0.985 --     1 C    0.967
    18   1 H    0.986 --     3 C    0.957
    19   1 H    0.882 --     8 O    0.835
    20   1 H    0.993 --    10 C    0.957
    21   1 H    0.987 --    10 C    0.963
    22   1 H    0.990 --    14 C    0.971
    23   1 H    0.991 --    14 C    0.972
    24   1 H    0.984 --    14 C    0.966
    25   1 H    0.950 --     4 N    0.922
 ---------------------------------------------------------------------------

molecular dipole:
                 x           y           z       tot (Debye)
 q only:        2.207      -0.779       0.044
   full:        2.325      -0.918       0.064       6.356

           -------------------------------------------------
          | TOTAL ENERGY              -42.188286376758 Eh   |
          | GRADIENT NORM               0.003567488448 Eh/α |
          | HOMO-LUMO GAP               1.470356824389 eV   |
           -------------------------------------------------

 * finished run on 2024/06/05 at 19:59:21.816
