   * xtb version 6.6.1 (8d0f1dd) compiled by 'conda@1efc2f54142f' on 2023-08-01
          program call               : xtb struc.xyz --opt loose --input .xc1 --gfn2

   ID    Z sym.   atoms
    1    7 N      1, 17
    2    6 C      2-6, 8, 9, 11-16, 18-23, 25, 26, 28-33
    3    8 O      7, 10, 24, 27
    4    1 H      34-72
constraining bond 5 37 to    4.7133300 Å, actual value:    2.8606021 Å

          :  Hamiltonian                  GFN2-xTB          :
 * total energy  :  -100.0170328 Eh     change       -0.4035485E-08 Eh
 * total energy  :  -100.4827342 Eh     change       -0.4657014E+00 Eh
 * total energy  :  -101.0378191 Eh     change       -0.5550849E+00 Eh
 * total energy  :  -101.6811245 Eh     change       -0.6433054E+00 Eh
 * total energy  :   -96.8043172 Eh     change        0.4876807E+01 Eh
 * total energy  :  -101.7722577 Eh     change       -0.4967941E+01 Eh
 * total energy  :  -101.8303865 Eh     change       -0.5812878E-01 Eh
 * total energy  :  -101.8873922 Eh     change       -0.5700575E-01 Eh
 * total energy  :  -101.9095250 Eh     change       -0.2213271E-01 Eh
 * total energy  :  -101.9178218 Eh     change       -0.8296830E-02 Eh
 * total energy  :  -101.9851588 Eh     change       -0.1203585E-02 Eh
 * total energy  :  -101.9864745 Eh     change       -0.1315740E-02 Eh
 * total energy  :  -101.9867539 Eh     change       -0.2793903E-03 Eh
 * total energy  :  -101.9869154 Eh     change       -0.1614283E-03 Eh
 * total energy  :  -101.9870240 Eh     change       -0.1086903E-03 Eh
 * total energy  :  -101.9871009 Eh     change       -0.7689531E-04 Eh
 * total energy  :  -101.9871915 Eh     change       -0.9054953E-04 Eh
 * total energy  :  -101.9872601 Eh     change       -0.6861494E-04 Eh
 * total energy  :  -101.9873007 Eh     change       -0.4057820E-04 Eh
   *** GEOMETRY OPTIMIZATION CONVERGED AFTER 33 ITERATIONS ***

 final structure:
================
72
 xtb: 6.6.1 (8d0f1dd)
N           -1.90385725485989        2.76768606065794        2.19362325771454
C           -1.85639789329331        2.10639046509350        1.13412049446559
C           -3.01997135761450        1.91159976787951        0.19908685230503
C           -3.53038116366352        0.48689855735434        0.31832560173110
C           -4.66135389210271        0.11315699240851       -0.62386898969509
C           -4.99771179202979       -1.36285817124796       -0.54787939580193
O           -5.93296410644750       -1.86044790871776       -1.33414123773500
C           -6.63441318969018       -1.20484884974098       -2.21001220141494
C           -4.41957642824802       -2.23725246651732        0.40048113224698
O           -4.88048726783080       -3.50663494984542        0.35669850863918
C           -4.43430664568011       -4.42843151963051        1.32534383223684
C           -3.45754890565551       -1.75780786024146        1.26663717434411
C           -3.02840260115524       -0.40904224125497        1.19668856351338
C           -2.47376655883383        2.13365182391658       -1.23843249055524
C           -1.55381916242589        1.00955753164362       -1.74826232040792
C           -0.20120576491731        1.04798727714160       -1.14565822107199
N            0.49789217366380       -0.01652132681056       -0.75489181805409
C            1.87280329037113        0.12293019140483       -0.33842006384732
C            2.85991299290112       -0.33070900303534       -1.43048246056384
C            4.26964187887189       -0.12680741423678       -0.95055107000074
C            4.91020324323960        1.08649261736441       -1.13631711744734
C            6.19825802835125        1.28830325747558       -0.66432475933628
C            6.86969797980893        0.27869425026742        0.00907727544753
O            8.11935957382082        0.36203619282753        0.50605568791003
C            8.85182524366095        1.55123752483757        0.32159650377417
C            6.21807366975054       -0.96848345499958        0.20981507591241
O            6.94196695964207       -1.89483207376505        0.87243930327542
C            6.39048238289451       -3.17110985523948        1.08905243753470
C            4.93051396095860       -1.14665235905937       -0.26952746155942
C           -0.05135201499764       -1.34975016764473       -0.79086723132660
C           -4.18738046495951        2.90869509015567        0.47216210973821
C           -4.84652702135473        2.63932296643618        1.82327750707728
C           -3.75670392949605        4.37116133879424        0.39679705164134
H           -5.56768227079024        0.62537315250739       -0.21467106766632
H           -6.53879588903880       -0.14697696635010       -2.38111352473232
H           -7.35746060201576       -1.79018078947605       -2.74439206927221
H           -4.53406295478077        0.33458436457619       -1.32245326783375
H           -4.64557190839341       -4.07657514807076        2.33896209129492
H           -4.99404914585800       -5.34224265216300        1.13545034560953
H           -3.36373205361775       -4.63085568544636        1.22280328057651
H           -3.01503849311043       -2.39740022954098        2.00971181684267
H           -2.26061464493286       -0.10725359876870        1.89302908708522
H           -3.31642072206367        2.22825764706440       -1.92350842021447
H           -1.92592417138154        3.07591136542437       -1.26344227025322
H           -2.02538750665754        0.04076902278520       -1.59298100136804
H           -1.44271487595307        1.15439769118423       -2.83089130684757
H           -0.93977532687832        1.61740694349803        0.75140737708188
H            0.32398562987696        1.99097744441144       -1.15674399363492
H            2.03504623973306       -0.47182250834160        0.56507351714349
H            2.07192929189537        1.16871201806190       -0.09702358989660
H            2.68229643912937        0.25761663030771       -2.33220722538243
H            2.69051724251345       -1.38225620586307       -1.66479710443295
H            4.41224483578292        1.88549220478756       -1.66444083202768
H            6.67361536656840        2.24088158553167       -0.83086945744345
H            8.36891310092610        2.40043332768773        0.81493954475359
H            8.99033978647947        1.77554016783507       -0.74035666768685
H            9.82145977176373        1.37113085852847        0.78173718517812
H            7.15844618934642       -3.73631864114768        1.61351467817430
H            5.49161790276505       -3.12005606552634        1.71229510704417
H            6.15419181578508       -3.67220275019640        0.14505692464993
H            4.42948755761205       -2.09180236522080       -0.12952262992264
H           -0.22234984781704       -1.67891464413322       -1.81864310809984
H           -0.99839871359147       -1.39005840609213       -0.24705861824837
H            0.64643582834326       -2.03637989027748       -0.31861311079631
H           -4.93068483714733        2.74824634016929       -0.31743997629898
H           -4.15160296681930        2.87304197973340        2.62252182648243
H           -5.14854462637461        1.59977552329540        1.92404769512644
H           -5.72765182581131        3.26638436203362        1.93212296322648
H           -2.98131592836157        4.57797661300890        1.12734679631315
H           -3.39864042191842        4.63789946708470       -0.59411376975157
H           -4.61093836486518        5.00385608332656        0.62259817071672
H           -1.04915726602386        2.84715899259310        2.73628791641878

          :  Hamiltonian                  GFN2-xTB          :
         :: total energy            -101.987300687993 Eh    ::
         :: gradient norm              0.002221488794 Eh/a0 ::
         :: HOMO-LUMO gap              1.141448856692 eV    ::
         :: SCC energy              -100.725558955434 Eh    ::
         :: -> dispersion             -0.074923824057 Eh    ::
         :: repulsion energy           1.550530637575 Eh    ::

    * Orbital Energies and Occupations

         #    Occupation            Energy/Eh            Energy/eV
      -------------------------------------------------------------
         1        2.0000           -0.8517879             -23.1783
       ...           ...                  ...                  ...
        78        1.9991           -0.5297950             -14.4165
        79        1.9989           -0.5272389             -14.3469
        80        1.9989           -0.5269508             -14.3391
        81        1.9986           -0.5231234             -14.2349
        82        1.9978           -0.5155457             -14.0287
        83        1.9976           -0.5143224             -13.9954
        84        1.9974           -0.5133159             -13.9680
        85        1.9972           -0.5119270             -13.9302
        86        1.9820           -0.4824217             -13.1274
        87        1.9818           -0.4822775             -13.1234
        88        1.9583           -0.4689452             -12.7606
        89        1.8688           -0.4500452             -12.2464
        90        1.6027           -0.4300640             -11.7026 (HOMO)
        91        0.4438           -0.3881165             -10.5612 (LUMO)
        92        0.1507           -0.3682795             -10.0214
        93        0.0218           -0.3366072              -9.1595
        94        0.0037           -0.3083319              -8.3901
        95        0.0032           -0.3062607              -8.3338
        96        0.0028           -0.3037910              -8.2666
        97        0.0000           -0.2252350              -6.1290
        98        0.0000           -0.1812248              -4.9314
        99                         -0.1308096              -3.5595
       100                         -0.0816089              -2.2207
       101                         -0.0693185              -1.8863
       ...                                ...                  ...
       171                          1.4294497              38.8973
      -------------------------------------------------------------
                  HL-Gap            0.0419475 Eh            1.1414 eV

     #   Z          covCN         q      C6AA      α(0)
     1   7 N        1.774    -0.273    27.899     7.822
     2   6 C        2.825     0.097    25.834     8.328
     3   6 C        3.906     0.005    20.431     6.425
     4   6 C        2.958    -0.012    28.317     8.728
     5   6 C        3.808    -0.107    22.540     6.758
     6   6 C        2.865     0.075    26.326     8.410
     7   8 O        1.711    -0.077    15.506     5.317
     8   6 C        2.743    -0.001    28.036     8.670
     9   6 C        2.850     0.132    25.108     8.212
    10   8 O        1.706    -0.243    18.030     5.733
    11   6 C        3.645     0.027    20.450     6.500
    12   6 C        2.911    -0.091    30.278     9.023
    13   6 C        2.903    -0.050    29.235     8.866
    14   6 C        3.812    -0.067    21.768     6.641
    15   6 C        3.802    -0.068    21.804     6.648
    16   6 C        2.842    -0.000    28.024     8.676
    17   7 N        2.729     0.004    21.195     6.838
    18   6 C        3.756    -0.015    20.900     6.518
    19   6 C        3.808    -0.070    21.838     6.652
    20   6 C        2.970    -0.002    28.068     8.690
    21   6 C        2.922    -0.050    29.239     8.867
    22   6 C        2.914    -0.068    29.700     8.937
    23   6 C        2.865     0.132    25.108     8.214
    24   8 O        1.706    -0.226    17.746     5.688
    25   6 C        3.645     0.026    20.467     6.502
    26   6 C        2.863     0.132    25.116     8.215
    27   8 O        1.706    -0.228    17.787     5.694
    28   6 C        3.645     0.029    20.429     6.496
    29   6 C        2.920    -0.080    30.007     8.983
    30   6 C        3.699    -0.068    21.978     6.705
    31   6 C        3.852    -0.008    20.690     6.470
    32   6 C        3.756    -0.121    22.875     6.819
    33   6 C        3.755    -0.118    22.811     6.810
    34   1 H        0.920     0.076     2.022     2.224
    35   1 H        0.926     0.053     2.283     2.363
    36   1 H        0.926     0.083     1.946     2.181
    37   1 H        0.930     0.119     1.621     1.991
    38   1 H        0.924     0.055     2.259     2.350
    39   1 H        0.925     0.080     1.980     2.201
    40   1 H        0.924     0.048     2.342     2.393
    41   1 H        0.926     0.050     2.322     2.383
    42   1 H        0.926     0.040     2.446     2.446
    43   1 H        0.925     0.054     2.276     2.359
    44   1 H        0.924     0.054     2.268     2.355
    45   1 H        0.925     0.063     2.162     2.300
    46   1 H        0.924     0.075     2.036     2.231
    47   1 H        0.922     0.007     2.939     2.681
    48   1 H        0.926     0.066     2.131     2.283
    49   1 H        0.924     0.065     2.141     2.288
    50   1 H        0.924     0.066     2.130     2.282
    51   1 H        0.924     0.054     2.270     2.356
    52   1 H        0.924     0.054     2.274     2.358
    53   1 H        0.926     0.043     2.406     2.426
    54   1 H        0.926     0.057     2.239     2.340
    55   1 H        0.924     0.052     2.290     2.366
    56   1 H        0.924     0.054     2.270     2.356
    57   1 H        0.925     0.081     1.974     2.197
    58   1 H        0.925     0.080     1.979     2.200
    59   1 H        0.924     0.047     2.363     2.404
    60   1 H        0.924     0.051     2.312     2.378
    61   1 H        0.926     0.045     2.385     2.415
    62   1 H        0.924     0.073     2.052     2.240
    63   1 H        0.924     0.077     2.015     2.220
    64   1 H        0.925     0.078     1.997     2.210
    65   1 H        0.924     0.032     2.559     2.502
    66   1 H        0.925     0.073     2.056     2.242
    67   1 H        0.925     0.033     2.538     2.491
    68   1 H        0.925     0.048     2.339     2.392
    69   1 H        0.925     0.058     2.225     2.333
    70   1 H        0.925     0.033     2.538     2.491
    71   1 H        0.925     0.054     2.274     2.358
    72   1 H        0.860     0.155     1.366     1.831

Wiberg/Mayer (AO) data.
largest (>0.10) Wiberg bond orders for each atom

     #   Z sym  total        # sym  WBO       # sym  WBO       # sym  WBO
 ---------------------------------------------------------------------------
     1   7 N    3.035 --     2 C    1.954    72 H    0.943
     2   6 C    3.922 --     1 N    1.954     3 C    0.993    47 H    0.899
     3   6 C    3.979 --     2 C    0.993     4 C    0.979    14 C    0.954
                            31 C    0.941
     4   6 C    3.837 --    13 C    1.650     5 C    1.009     3 C    0.979
     5   6 C    3.974 --     4 C    1.009     6 C    1.004    37 H    0.952
                            34 H    0.907
     6   6 C    3.765 --     9 C    1.244     7 O    1.170     5 C    1.004
                             8 C    0.224
     7   8 O    2.555 --     8 C    1.270     6 C    1.170
     8   6 C    3.570 --     7 O    1.270    35 H    0.970    36 H    0.969
                             6 C    0.224
     9   6 C    3.893 --    12 C    1.405     6 C    1.244    10 O    1.092
    10   8 O    2.252 --     9 C    1.092    11 C    0.976
    11   6 C    3.933 --    39 H    0.977    10 O    0.976    40 H    0.975
                            38 H    0.975
    12   6 C    3.808 --     9 C    1.405    13 C    1.242    41 H    0.966
    13   6 C    3.966 --     4 C    1.650    12 C    1.242    42 H    0.959
    14   6 C    3.969 --    15 C    0.985    44 H    0.972    43 H    0.971
                             3 C    0.954
    15   6 C    3.988 --    16 C    1.056    14 C    0.985    45 H    0.961
                            46 H    0.931
    16   6 C    3.560 --    17 N    1.377    15 C    1.056    48 H    0.958
    17   7 N    3.455 --    16 C    1.377    30 C    1.000    18 C    0.990
    18   6 C    3.957 --    17 N    0.990    50 H    0.968    19 C    0.968
                            49 H    0.963
    19   6 C    3.977 --    20 C    1.007    51 H    0.972    52 H    0.972
                            18 C    0.968
    20   6 C    3.949 --    21 C    1.414    29 C    1.378    19 C    1.007
    21   6 C    3.955 --    22 C    1.414    20 C    1.414    53 H    0.968
    22   6 C    3.963 --    21 C    1.414    23 C    1.387    54 H    0.963
    23   6 C    3.901 --    22 C    1.387    26 C    1.224    24 O    1.105
    24   8 O    2.254 --    23 C    1.105    25 C    0.977
    25   6 C    3.930 --    57 H    0.977    24 O    0.977    56 H    0.973
                            55 H    0.973
    26   6 C    3.904 --    29 C    1.398    23 C    1.224    27 O    1.099
    27   8 O    2.254 --    26 C    1.099    28 C    0.980
    28   6 C    3.934 --    27 O    0.980    58 H    0.977    59 H    0.974
                            60 H    0.974
    29   6 C    3.962 --    26 C    1.398    20 C    1.378    61 H    0.963
    30   6 C    3.960 --    17 N    1.000    64 H    0.978    62 H    0.968
                            63 H    0.962
    31   6 C    3.972 --    33 C    1.010    32 C    1.009    65 H    0.961
                             3 C    0.941
    32   6 C    3.983 --    31 C    1.009    68 H    0.983    67 H    0.982
                            66 H    0.975
    33   6 C    3.987 --    31 C    1.010    70 H    0.984    71 H    0.981
                            69 H    0.979
    34   1 H    0.964 --     5 C    0.907
    35   1 H    0.997 --     8 C    0.970
    36   1 H    0.992 --     8 C    0.969
    37   1 H    0.979 --     5 C    0.952
    38   1 H    0.995 --    11 C    0.975
    39   1 H    0.993 --    11 C    0.977
    40   1 H    0.995 --    11 C    0.975
    41   1 H    0.996 --    12 C    0.966
    42   1 H    0.998 --    13 C    0.959
    43   1 H    0.996 --    14 C    0.971
    44   1 H    0.996 --    14 C    0.972
    45   1 H    0.995 --    15 C    0.961
    46   1 H    0.967 --    15 C    0.931
    47   1 H    0.991 --     2 C    0.899
    48   1 H    0.995 --    16 C    0.958
    49   1 H    0.990 --    18 C    0.963
    50   1 H    0.995 --    18 C    0.968
    51   1 H    0.996 --    19 C    0.972
    52   1 H    0.996 --    19 C    0.972
    53   1 H    0.998 --    21 C    0.968
    54   1 H    0.995 --    22 C    0.963
    55   1 H    0.993 --    25 C    0.973
    56   1 H    0.993 --    25 C    0.973
    57   1 H    0.993 --    25 C    0.977
    58   1 H    0.993 --    28 C    0.977
    59   1 H    0.994 --    28 C    0.974
    60   1 H    0.994 --    28 C    0.974
    61   1 H    0.997 --    29 C    0.963
    62   1 H    0.985 --    30 C    0.968
    63   1 H    0.987 --    30 C    0.962
    64   1 H    0.994 --    30 C    0.978
    65   1 H    0.995 --    31 C    0.961
    66   1 H    0.992 --    32 C    0.975
    67   1 H    0.998 --    32 C    0.982
    68   1 H    0.995 --    32 C    0.983
    69   1 H    0.995 --    33 C    0.979
    70   1 H    0.998 --    33 C    0.984
    71   1 H    0.994 --    33 C    0.981
    72   1 H    0.972 --     1 N    0.943
 ---------------------------------------------------------------------------

molecular dipole:
                 x           y           z       tot (Debye)
 q only:       -0.540      -0.362      -1.051
   full:       -0.293      -0.441      -1.236       3.418

           -------------------------------------------------
          | TOTAL ENERGY             -101.987300687993 Eh   |
          | GRADIENT NORM               0.002221488794 Eh/α |
          | HOMO-LUMO GAP               1.141448856692 eV   |
           -------------------------------------------------

 * finished run on 2024/04/06 at 11:15:49.326
