   * xtb version 6.6.1 (8d0f1dd) compiled by 'conda@1efc2f54142f' on 2023-08-01
          program call               : xtb xtbopt.xyz --opt crude --input .xc2 --gfn2

   ID    Z sym.   atoms
    1    7 N      1, 17
    2    6 C      2-6, 8, 9, 11-16, 18-23, 25, 26, 28-33
    3    8 O      7, 10, 24, 27
    4    1 H      34-72
########################################################################
[WARNING] Please study the warnings concerning your input carefully
-1- readin_getIntValue: could not parse ''
########################################################################

          :  Hamiltonian                  GFN2-xTB          :
 * total energy  :   -99.1738217 Eh     change       -0.6167511E-11 Eh
 * total energy  :   -99.3349912 Eh     change       -0.1611694E+00 Eh
 * total energy  :   -99.3368046 Eh     change       -0.1813401E-02 Eh
 * total energy  :   -99.3377417 Eh     change       -0.9371041E-03 Eh
 * total energy  :   -99.3379661 Eh     change       -0.2244585E-03 Eh
   *** GEOMETRY OPTIMIZATION CONVERGED AFTER 5 ITERATIONS ***

 final structure:
================
72
 xtb: 6.6.1 (8d0f1dd)
N           -1.90603445398865        2.76502648349098        2.19966648668958
C           -1.86275742657785        2.10089727086274        1.14210973866616
C           -3.02703016744228        1.90957668931232        0.20603744225221
C           -3.54384029781037        0.48643559983320        0.32372123986243
C           -4.68392829141307        0.09590594804723       -0.57630194474013
C           -5.02226865332957       -1.36296637890884       -0.52024372879325
O           -5.94198212513608       -1.86651461474571       -1.31827465714144
C           -6.64351384075240       -1.21804569631942       -2.19795975924521
C           -4.43233339535178       -2.24159478633224        0.42112724429043
O           -4.88764994001589       -3.51342034304341        0.37519846659641
C           -4.42611099882294       -4.43836934675566        1.33443760373642
C           -3.46168534464918       -1.76017274213246        1.27643179686446
C           -3.02811679091060       -0.41308276148870        1.19478770020741
C           -2.47053054464522        2.13882482351923       -1.22680514460610
C           -1.55187404511233        1.01469173552523       -1.73908453639158
C           -0.19907037680031        1.04894197366299       -1.13633896187607
N            0.49822965099249       -0.01810056189830       -0.74922312996175
C            1.87415712534364        0.11703448502276       -0.33460736787107
C            2.85951258363820       -0.33078457777026       -1.43092834974319
C            4.27019504005103       -0.12767776178659       -0.95306393268338
C            4.91146334210894        1.08511589392172       -1.14028061008125
C            6.19988470855415        1.28685669247462       -0.66919183605060
C            6.87135608934665        0.27773068696922        0.00492819507206
O            8.12066033945156        0.36120694688099        0.50246515365715
C            8.85242991252564        1.55136827496157        0.32131540122885
C            6.21959622427171       -0.96932755334487        0.20613051004326
O            6.94389725601607       -1.89524233276518        0.86880582225160
C            6.39306562724789       -3.17148601184896        1.08729408060888
C            4.93165908691158       -1.14741023329125       -0.27236887422881
C           -0.05667001166795       -1.34932390195181       -0.78471971033045
C           -4.19010447763318        2.91174343516532        0.47850311275507
C           -4.84849677570564        2.64722841211011        1.83102844841692
C           -3.75598756979813        4.37315750364877        0.40048615344516
H           -5.58448074817425        0.66192342288690       -0.27720618496431
H           -6.56602371099351       -0.15752309963071       -2.35785137103083
H           -7.33568515619647       -1.81414589925068       -2.75998764844771
H           -4.47800590261894        0.38970698737244       -1.60874893231196
H           -4.63752789764742       -4.09709047870444        2.35151060694505
H           -4.97533449209024       -5.35740125600966        1.14005492522946
H           -3.35373406890221       -4.62743029183386        1.22586804933012
H           -3.01168224151639       -2.39884223964520        2.01676672053381
H           -2.24447435916138       -0.11519576159547        1.87611546304574
H           -3.30924562467390        2.24299011200344       -1.91519782166697
H           -1.92006102105521        3.07968405286867       -1.24256388521641
H           -2.02705053040793        0.04686695207227       -1.58640183673209
H           -1.43849716805373        1.16349339334801       -2.82148169905315
H           -0.94630110490204        1.61340027157080        0.75701081716040
H            0.32895325895827        1.99038478773437       -1.14857292990329
H            2.03738846717184       -0.48376081289143        0.56477473020495
H            2.07501723165969        1.16120318152427       -0.08677119015268
H            2.67964008284046        0.26143370238573       -2.32965848246418
H            2.69041032717612       -1.38145015348671       -1.66958577833430
H            4.41378472754886        1.88409439212482       -1.66869947408776
H            6.67565428323617        2.23905546259173       -0.83682953982614
H            8.36728313893542        2.39948809629571        0.81425390656408
H            8.99380684083724        1.77701620082006       -0.73994052395073
H            9.82090783369648        1.37165723892722        0.78401335927997
H            7.16165838161786       -3.73547611318401        1.61214297114937
H            5.49449172970957       -3.12009577141057        1.71089696230944
H            6.15663781397652       -3.67397077656105        0.14408067027858
H            4.43094787727539       -2.09263872640353       -0.13158825174093
H           -0.23240650538655       -1.67638537673799       -1.81206764992923
H           -1.00233529676486       -1.38572735748622       -0.23835492619522
H            0.63987443552980       -2.03947832387325       -0.31581866392559
H           -4.93397379670277        2.75064252527094       -0.30999823405166
H           -4.15258045503142        2.88251190724726        2.62910795007918
H           -5.15157790986620        1.60822668923019        1.93381942327126
H           -5.72848041994253        3.27606444998766        1.93903448251625
H           -2.98344241869668        4.58090385634804        1.13387086249817
H           -3.39327473323615        4.63728365406754       -0.58940448991514
H           -4.61035997849811        5.00789638365533        0.62065095714093
H           -1.04952675154917        2.84660098983954        2.73893944606105

          :  Hamiltonian                  GFN2-xTB          :
         :: total energy             -99.337966146588 Eh    ::
         :: gradient norm              0.007748582602 Eh/a0 ::
         :: HOMO-LUMO gap              1.150803290923 eV    ::
         :: SCC energy              -100.700341157980 Eh    ::
         :: -> dispersion             -0.074889468444 Eh    ::
         :: repulsion energy           1.361168629362 Eh    ::

    * Orbital Energies and Occupations

         #    Occupation            Energy/Eh            Energy/eV
      -------------------------------------------------------------
         1        2.0000           -0.8512126             -23.1627
       ...           ...                  ...                  ...
        78        1.9991           -0.5296014             -14.4112
        79        1.9989           -0.5271018             -14.3432
        80        1.9989           -0.5268079             -14.3352
        81        1.9986           -0.5231608             -14.2359
        82        1.9977           -0.5151709             -14.0185
        83        1.9976           -0.5143273             -13.9956
        84        1.9973           -0.5129178             -13.9572
        85        1.9971           -0.5115292             -13.9194
        86        1.9819           -0.4824508             -13.1282
        87        1.9810           -0.4816553             -13.1065
        88        1.9577           -0.4687895             -12.7564
        89        1.8685           -0.4500826             -12.2474
        90        1.6088           -0.4304490             -11.7131 (HOMO)
        91        0.4430           -0.3881578             -10.5623 (LUMO)
        92        0.1481           -0.3680623             -10.0155
        93        0.0214           -0.3363520              -9.1526
        94        0.0036           -0.3079181              -8.3789
        95        0.0032           -0.3063072              -8.3350
        96        0.0028           -0.3038341              -8.2677
        97        0.0000           -0.2263059              -6.1581
        98        0.0000           -0.1812928              -4.9332
        99                         -0.1310103              -3.5650
       100                         -0.0783954              -2.1332
       101                         -0.0679419              -1.8488
       ...                                ...                  ...
       171                          0.5831032              15.8670
      -------------------------------------------------------------
                  HL-Gap            0.0422912 Eh            1.1508 eV

     #   Z          covCN         q      C6AA      α(0)
     1   7 N        1.774    -0.273    27.893     7.821
     2   6 C        2.826     0.098    25.826     8.327
     3   6 C        3.906     0.005    20.432     6.425
     4   6 C        2.958    -0.007    28.205     8.711
     5   6 C        3.809    -0.074    21.912     6.663
     6   6 C        2.867     0.080    26.215     8.393
     7   8 O        1.711    -0.074    15.475     5.311
     8   6 C        2.743    -0.001    28.026     8.668
     9   6 C        2.850     0.132    25.098     8.211
    10   8 O        1.706    -0.243    18.024     5.732
    11   6 C        3.645     0.027    20.451     6.500
    12   6 C        2.910    -0.090    30.264     9.021
    13   6 C        2.905    -0.049    29.220     8.863
    14   6 C        3.812    -0.066    21.750     6.638
    15   6 C        3.802    -0.068    21.798     6.647
    16   6 C        2.842    -0.000    28.024     8.676
    17   7 N        2.729     0.004    21.193     6.837
    18   6 C        3.756    -0.015    20.901     6.519
    19   6 C        3.808    -0.070    21.838     6.652
    20   6 C        2.970    -0.002    28.067     8.690
    21   6 C        2.922    -0.050    29.238     8.867
    22   6 C        2.914    -0.068    29.700     8.937
    23   6 C        2.865     0.132    25.107     8.213
    24   8 O        1.706    -0.226    17.744     5.687
    25   6 C        3.645     0.026    20.468     6.502
    26   6 C        2.863     0.132    25.116     8.215
    27   8 O        1.706    -0.228    17.787     5.694
    28   6 C        3.645     0.028    20.430     6.496
    29   6 C        2.920    -0.080    30.007     8.983
    30   6 C        3.699    -0.068    21.979     6.705
    31   6 C        3.852    -0.008    20.688     6.469
    32   6 C        3.756    -0.121    22.869     6.818
    33   6 C        3.755    -0.118    22.809     6.810
    34   1 H        0.922     0.078     1.998     2.211
    35   1 H        0.926     0.053     2.278     2.360
    36   1 H        0.926     0.084     1.934     2.175
    37   1 H        0.924     0.064     2.157     2.297
    38   1 H        0.924     0.055     2.257     2.350
    39   1 H        0.925     0.080     1.979     2.200
    40   1 H        0.924     0.048     2.343     2.394
    41   1 H        0.926     0.050     2.323     2.383
    42   1 H        0.926     0.040     2.446     2.446
    43   1 H        0.925     0.054     2.275     2.359
    44   1 H        0.925     0.054     2.266     2.354
    45   1 H        0.925     0.063     2.165     2.301
    46   1 H        0.923     0.074     2.038     2.232
    47   1 H        0.922     0.007     2.936     2.680
    48   1 H        0.926     0.066     2.129     2.282
    49   1 H        0.924     0.065     2.140     2.288
    50   1 H        0.924     0.066     2.130     2.282
    51   1 H        0.924     0.054     2.270     2.356
    52   1 H        0.924     0.054     2.274     2.358
    53   1 H        0.926     0.043     2.405     2.425
    54   1 H        0.926     0.057     2.239     2.340
    55   1 H        0.924     0.052     2.290     2.366
    56   1 H        0.924     0.054     2.270     2.356
    57   1 H        0.925     0.081     1.973     2.197
    58   1 H        0.925     0.080     1.979     2.200
    59   1 H        0.924     0.047     2.363     2.404
    60   1 H        0.924     0.051     2.312     2.378
    61   1 H        0.926     0.045     2.385     2.415
    62   1 H        0.924     0.073     2.052     2.240
    63   1 H        0.924     0.077     2.014     2.219
    64   1 H        0.925     0.078     1.997     2.210
    65   1 H        0.924     0.032     2.559     2.502
    66   1 H        0.925     0.073     2.057     2.243
    67   1 H        0.925     0.034     2.534     2.489
    68   1 H        0.925     0.048     2.339     2.392
    69   1 H        0.925     0.058     2.225     2.333
    70   1 H        0.925     0.034     2.537     2.491
    71   1 H        0.925     0.054     2.272     2.357
    72   1 H        0.860     0.156     1.364     1.830

Wiberg/Mayer (AO) data.
largest (>0.10) Wiberg bond orders for each atom

     #   Z sym  total        # sym  WBO       # sym  WBO       # sym  WBO
 ---------------------------------------------------------------------------
     1   7 N    3.037 --     2 C    1.955    72 H    0.943
     2   6 C    3.922 --     1 N    1.955     3 C    0.992    47 H    0.899
     3   6 C    3.979 --     2 C    0.992     4 C    0.979    14 C    0.954
                            31 C    0.941
     4   6 C    3.838 --    13 C    1.643     5 C    1.020     3 C    0.979
     5   6 C    3.986 --     4 C    1.020     6 C    1.017    37 H    0.935
                            34 H    0.917
     6   6 C    3.771 --     9 C    1.238     7 O    1.171     5 C    1.017
                             8 C    0.225
     7   8 O    2.558 --     8 C    1.272     6 C    1.171
     8   6 C    3.577 --     7 O    1.272    36 H    0.969    35 H    0.969
                             6 C    0.225
     9   6 C    3.893 --    12 C    1.407     6 C    1.238    10 O    1.092
    10   8 O    2.251 --     9 C    1.092    11 C    0.976
    11   6 C    3.932 --    39 H    0.977    10 O    0.976    40 H    0.975
                            38 H    0.975
    12   6 C    3.811 --     9 C    1.407    13 C    1.244    41 H    0.966
    13   6 C    3.966 --     4 C    1.643    12 C    1.244    42 H    0.959
    14   6 C    3.968 --    15 C    0.985    44 H    0.972    43 H    0.969
                             3 C    0.954
    15   6 C    3.988 --    16 C    1.056    14 C    0.985    45 H    0.961
                            46 H    0.931
    16   6 C    3.561 --    17 N    1.377    15 C    1.056    48 H    0.958
    17   7 N    3.455 --    16 C    1.377    30 C    1.000    18 C    0.990
    18   6 C    3.957 --    17 N    0.990    50 H    0.968    19 C    0.967
                            49 H    0.963
    19   6 C    3.977 --    20 C    1.007    51 H    0.972    52 H    0.972
                            18 C    0.967
    20   6 C    3.949 --    21 C    1.414    29 C    1.378    19 C    1.007
    21   6 C    3.955 --    22 C    1.414    20 C    1.414    53 H    0.968
    22   6 C    3.963 --    21 C    1.414    23 C    1.387    54 H    0.963
    23   6 C    3.901 --    22 C    1.387    26 C    1.224    24 O    1.105
    24   8 O    2.255 --    23 C    1.105    25 C    0.977
    25   6 C    3.930 --    57 H    0.977    24 O    0.977    56 H    0.973
                            55 H    0.973
    26   6 C    3.904 --    29 C    1.398    23 C    1.224    27 O    1.099
    27   8 O    2.254 --    26 C    1.099    28 C    0.980
    28   6 C    3.934 --    27 O    0.980    58 H    0.977    59 H    0.974
                            60 H    0.974
    29   6 C    3.962 --    26 C    1.398    20 C    1.378    61 H    0.963
    30   6 C    3.960 --    17 N    1.000    64 H    0.978    62 H    0.968
                            63 H    0.962
    31   6 C    3.972 --    33 C    1.010    32 C    1.009    65 H    0.961
                             3 C    0.941
    32   6 C    3.983 --    31 C    1.009    68 H    0.983    67 H    0.982
                            66 H    0.975
    33   6 C    3.987 --    31 C    1.010    70 H    0.984    71 H    0.981
                            69 H    0.979
    34   1 H    0.967 --     5 C    0.917
    35   1 H    0.997 --     8 C    0.969
    36   1 H    0.992 --     8 C    0.969
    37   1 H    0.978 --     5 C    0.935
    38   1 H    0.994 --    11 C    0.975
    39   1 H    0.993 --    11 C    0.977
    40   1 H    0.995 --    11 C    0.975
    41   1 H    0.996 --    12 C    0.966
    42   1 H    0.998 --    13 C    0.959
    43   1 H    0.996 --    14 C    0.969
    44   1 H    0.996 --    14 C    0.972
    45   1 H    0.995 --    15 C    0.961
    46   1 H    0.969 --    15 C    0.931
    47   1 H    0.991 --     2 C    0.899
    48   1 H    0.995 --    16 C    0.958
    49   1 H    0.990 --    18 C    0.963
    50   1 H    0.995 --    18 C    0.968
    51   1 H    0.996 --    19 C    0.972
    52   1 H    0.996 --    19 C    0.972
    53   1 H    0.998 --    21 C    0.968
    54   1 H    0.995 --    22 C    0.963
    55   1 H    0.993 --    25 C    0.973
    56   1 H    0.993 --    25 C    0.973
    57   1 H    0.993 --    25 C    0.977
    58   1 H    0.993 --    28 C    0.977
    59   1 H    0.994 --    28 C    0.974
    60   1 H    0.994 --    28 C    0.974
    61   1 H    0.997 --    29 C    0.963
    62   1 H    0.985 --    30 C    0.968
    63   1 H    0.987 --    30 C    0.962
    64   1 H    0.994 --    30 C    0.978
    65   1 H    0.995 --    31 C    0.961
    66   1 H    0.992 --    32 C    0.975
    67   1 H    0.998 --    32 C    0.982
    68   1 H    0.995 --    32 C    0.983
    69   1 H    0.995 --    33 C    0.979
    70   1 H    0.998 --    33 C    0.984
    71   1 H    0.994 --    33 C    0.981
    72   1 H    0.972 --     1 N    0.943
 ---------------------------------------------------------------------------

molecular dipole:
                 x           y           z       tot (Debye)
 q only:       -0.523      -0.390      -1.007
   full:       -0.278      -0.458      -1.230       3.411

           -------------------------------------------------
          | TOTAL ENERGY              -99.337966146588 Eh   |
          | GRADIENT NORM               0.007748582602 Eh/α |
          | HOMO-LUMO GAP               1.150803290923 eV   |
           -------------------------------------------------

 * finished run on 2024/04/06 at 11:15:50.467
