   * xtb version 6.6.1 (8d0f1dd) compiled by 'conda@1efc2f54142f' on 2023-08-01
          program call               : xtb struc.xyz --opt loose --input .xc1 --gfn2

   ID    Z sym.   atoms
    1    6 C      1, 3, 5-7, 10, 11, 14
    2    7 N      2, 4, 9, 13
    3    8 O      8, 12
    4    1 H      15-25
constraining bond 1 4 to    5.9200000 Å, actual value:    3.5856227 Å

          :  Hamiltonian                  GFN2-xTB          :
 * total energy  :   -32.5179279 Eh     change       -0.6650680E-10 Eh
 * total energy  :   -36.4212386 Eh     change       -0.3903311E+01 Eh
 * total energy  :   -39.2279095 Eh     change       -0.2806671E+01 Eh
 * total energy  :   -40.9979756 Eh     change       -0.1770066E+01 Eh
 * total energy  :   -41.6716903 Eh     change       -0.6737147E+00 Eh
 * total energy  :   -41.7681249 Eh     change       -0.9643462E-01 Eh
 * total energy  :   -41.7981600 Eh     change       -0.3003510E-01 Eh
 * total energy  :   -41.8712069 Eh     change       -0.7304688E-01 Eh
 * total energy  :   -41.9025216 Eh     change       -0.3131471E-01 Eh
 * total energy  :   -41.9235155 Eh     change       -0.2099392E-01 Eh
 * total energy  :   -42.1701221 Eh     change       -0.6636347E-03 Eh
 * total energy  :   -42.1704524 Eh     change       -0.3302548E-03 Eh
 * total energy  :   -42.1707680 Eh     change       -0.3155861E-03 Eh
 * total energy  :   -42.1710531 Eh     change       -0.2851349E-03 Eh
 * total energy  :   -42.1712529 Eh     change       -0.1997927E-03 Eh
 * total energy  :   -42.1713584 Eh     change       -0.1054943E-03 Eh
 * total energy  :   -42.1714277 Eh     change       -0.6932961E-04 Eh
 * total energy  :   -42.1714860 Eh     change       -0.5829548E-04 Eh
 * total energy  :   -42.1715193 Eh     change       -0.3328150E-04 Eh
   *** GEOMETRY OPTIMIZATION CONVERGED AFTER 79 ITERATIONS ***

 final structure:
================
25
 xtb: 6.6.1 (8d0f1dd)
C            3.51042090969930        1.73251941144155        0.53477414518111
N            2.25485019766106       -0.52679603497801       -0.00295927517078
C            2.52950297553253        0.84426639694218       -0.28857303207631
N            0.27815094507387       -3.17432869390074       -0.08213070645502
C            0.06873720168116       -1.92016813389935        0.01226511136752
C            0.96479124293530       -0.72385753140618       -0.02658573823744
C            0.32829108793445        0.56522450090874       -0.19924372377379
O            1.22780913094317        1.49697710204120       -0.35573399613033
N           -0.97065157715309        0.76736906717437       -0.18322521114544
C           -1.57504727904719        2.07665779491895       -0.33987807623195
C           -1.85554152028977       -0.33342121852521        0.00907513036814
O           -3.03495820101669       -0.13386209280662        0.05202381039703
N           -1.27645336594201       -1.57178645636790        0.12631102042174
C           -2.19609668745362       -2.68965401244881        0.27888125999254
H            4.47543663334627        1.23497363894209        0.57991022451642
H            3.59894245269009        2.68673848437611        0.02591281654649
H            3.12898931249129        1.88182005401824        1.54273591633713
H            2.94171256760358        0.84343100627368       -1.31543204537771
H           -0.79336938517735        2.82699241008250       -0.41545843328775
H           -2.19813515075712        2.08498258297084       -1.23503667457329
H           -2.21822571039619        2.27822385918167        0.51721042710299
H           -1.85786415629496       -3.32234385199988        1.09818345611057
H           -2.20772028016891       -3.29048507728501       -0.63136318651568
H           -3.19247545950690       -2.30224895218401        0.47914989864770
H            1.22933562968834       -3.51298571187339       -0.14964150011330

          :  Hamiltonian                  GFN2-xTB          :
         :: total energy             -42.171519295062 Eh    ::
         :: gradient norm              0.002655279961 Eh/a0 ::
         :: HOMO-LUMO gap              1.684573213002 eV    ::
         :: SCC energy               -42.663703449107 Eh    ::
         :: -> dispersion             -0.021476114913 Eh    ::
         :: repulsion energy           0.491835008751 Eh    ::

    * Orbital Energies and Occupations

         #    Occupation            Energy/Eh            Energy/eV
      -------------------------------------------------------------
         1        2.0000           -0.9476699             -25.7874
       ...           ...                  ...                  ...
        25        1.9997           -0.6698930             -18.2287
        26        1.9997           -0.6663985             -18.1336
        27        1.9990           -0.6479509             -17.6316
        28        1.9986           -0.6426061             -17.4862
        29        1.9965           -0.6282116             -17.0945
        30        1.9962           -0.6267094             -17.0536
        31        1.9946           -0.6213666             -16.9082
        32        1.9938           -0.6190944             -16.8464
        33        1.9825           -0.6025322             -16.3957
        34        1.9797           -0.6001696             -16.3314
        35        1.9620           -0.5901362             -16.0584
        36        1.9074           -0.5755604             -15.6618
        37        1.8307           -0.5653695             -15.3845 (HOMO)
        38        0.3564           -0.5034626             -13.6999 (LUMO)
        39        0.0032           -0.4257311             -11.5847
        40        0.0005           -0.3963832             -10.7861
        41        0.0000           -0.3152695              -8.5789
        42                         -0.2290819              -6.2336
        43                         -0.1899091              -5.1677
        44                         -0.1770772              -4.8185
        45                         -0.1354218              -3.6850
        46                         -0.1051681              -2.8618
        47                         -0.0928688              -2.5271
        48                         -0.0626088              -1.7037
       ...                                ...                  ...
        67                          0.5241678              14.2633
      -------------------------------------------------------------
                  HL-Gap            0.0619069 Eh            1.6846 eV

     #   Z          covCN         q      C6AA      α(0)
     1   6 C        3.746    -0.126    22.980     6.838
     2   7 N        1.880    -0.186    25.840     7.535
     3   6 C        3.873     0.173    17.796     5.998
     4   7 N        1.796    -0.235    26.992     7.696
     5   6 C        2.820     0.160    24.533     8.116
     6   6 C        2.991     0.056    26.725     8.480
     7   6 C        2.961     0.226    23.269     7.912
     8   8 O        1.707    -0.192    17.200     5.599
     9   7 N        2.735    -0.035    21.914     6.953
    10   6 C        3.700    -0.068    21.964     6.702
    11   6 C        2.728     0.318    21.598     7.608
    12   8 O        0.859    -0.325    20.237     6.031
    13   7 N        2.762    -0.042    22.048     6.974
    14   6 C        3.714    -0.078    22.125     6.721
    15   1 H        0.925     0.109     1.703     2.041
    16   1 H        0.925     0.103     1.761     2.075
    17   1 H        0.925     0.095     1.827     2.114
    18   1 H        0.922     0.131     1.530     1.934
    19   1 H        0.925     0.106     1.731     2.058
    20   1 H        0.924     0.118     1.629     1.996
    21   1 H        0.924     0.121     1.606     1.982
    22   1 H        0.925     0.117     1.640     2.003
    23   1 H        0.924     0.118     1.630     1.997
    24   1 H        0.925     0.124     1.580     1.966
    25   1 H        0.860     0.210     1.054     1.609

Wiberg/Mayer (AO) data.
largest (>0.10) Wiberg bond orders for each atom

     #   Z sym  total        # sym  WBO       # sym  WBO       # sym  WBO
 ---------------------------------------------------------------------------
     1   6 C    3.921 --    17 H    0.973    16 H    0.972    15 H    0.969
                             3 C    0.953
     2   7 N    2.864 --     6 C    1.593     3 C    1.080
     3   6 C    3.877 --     2 N    1.080     1 C    0.953     8 O    0.883
                            18 H    0.880
     4   7 N    2.893 --     5 C    1.730    25 H    0.922
     5   6 C    3.943 --     4 N    1.730    13 N    1.114     6 C    1.011
     6   6 C    3.883 --     2 N    1.593     7 C    1.103     5 C    1.011
     7   6 C    3.843 --     9 N    1.342     8 O    1.238     6 C    1.103
     8   8 O    2.357 --     7 C    1.238     3 C    0.883
     9   7 N    3.587 --     7 C    1.342    11 C    0.987    10 C    0.966
    10   6 C    3.904 --    19 H    0.973     9 N    0.966    21 H    0.955
                            20 H    0.954
    11   6 C    3.944 --    12 O    1.720    13 N    1.151     9 N    0.987
    12   8 O    2.043 --    11 C    1.720    13 N    0.138
    13   7 N    3.538 --    11 C    1.151     5 C    1.114    14 C    0.970
                            12 O    0.138
    14   6 C    3.880 --    13 N    0.970    24 H    0.960    22 H    0.953
                            23 H    0.946
    15   1 H    0.984 --     1 C    0.969
    16   1 H    0.986 --     1 C    0.972
    17   1 H    0.985 --     1 C    0.973
    18   1 H    0.947 --     3 C    0.880
    19   1 H    0.987 --    10 C    0.973
    20   1 H    0.977 --    10 C    0.954
    21   1 H    0.977 --    10 C    0.955
    22   1 H    0.973 --    14 C    0.953
    23   1 H    0.967 --    14 C    0.946
    24   1 H    0.978 --    14 C    0.960
    25   1 H    0.946 --     4 N    0.922
 ---------------------------------------------------------------------------

molecular dipole:
                 x           y           z       tot (Debye)
 q only:        0.933       0.063      -0.169
   full:        1.171       0.468      -0.321       3.307

           -------------------------------------------------
          | TOTAL ENERGY              -42.171519295062 Eh   |
          | GRADIENT NORM               0.002655279961 Eh/α |
          | HOMO-LUMO GAP               1.684573213002 eV   |
           -------------------------------------------------

 * finished run on 2024/06/05 at 20:00:07.118
