   * xtb version 6.6.1 (8d0f1dd) compiled by 'conda@1efc2f54142f' on 2023-08-01
          program call               : xtb xtbopt.xyz --opt crude --input .xc2 --gfn2

   ID    Z sym.   atoms
    1    6 C      1, 3, 5-7, 10, 11, 14
    2    7 N      2, 4, 9, 13
    3    8 O      8, 12
    4    1 H      15-25
########################################################################
[WARNING] Please study the warnings concerning your input carefully
-1- readin_getIntValue: could not parse ''
########################################################################

          :  Hamiltonian                  GFN2-xTB          :
 * total energy  :   -42.0087547 Eh     change       -0.1776357E-12 Eh
   *** GEOMETRY OPTIMIZATION CONVERGED AFTER 1 ITERATIONS ***

 final structure:
================
25
 xtb: 6.6.1 (8d0f1dd)
C            3.01389612648852        1.66172246639642       -0.22612132972501
N            2.34341716210051        0.44752431218917       -0.44162611989932
C            1.69833946030142       -2.68016439679631        1.61313101495417
N            0.64064711537840       -2.16744559031211        1.11074615779543
C            0.45242095554589       -1.08338575347441        0.18577965280978
C            1.40131753936910       -0.19738147447494       -0.08801191150763
C           -0.66730754514713        2.21676606335052       -0.91680604404143
O           -0.24187541492251        2.94959100287472       -1.69948913873639
N           -1.03869225789273        1.27589092553997       -0.17050271507111
C           -1.48269345399822        1.45242013579275        1.21739895856141
C           -1.54256761337062       -0.03743123523499       -0.80728547463657
O           -2.52471723080997        0.01000584688101       -1.47529572868556
N           -0.79436968763032       -1.09753163108226       -0.49386371826558
C           -1.25016506894030       -2.38057475631974       -1.03391958756726
H            2.64042516544353        2.22351326373184        0.63330633567231
H            4.07229081656337        1.43292279462738       -0.09092367906959
H            2.92384687936316        2.26048676454746       -1.13451851611116
H            2.65747186737322       -2.25458653695581        1.33406204417801
H           -1.16338811541370        2.42157447237597        1.59224430486112
H           -2.57117940321432        1.38933899504153        1.26126386077417
H           -1.04664482219603        0.66348053113993        1.82876400889268
H           -1.94402865906374       -2.86899155265506       -0.34803061071922
H           -0.39341964909093       -3.02436755883975       -1.21951054839354
H           -1.77438119287058       -2.20171097558332       -1.97200042971271
H           -0.24821145943759       -2.59342757108304        1.37238083162139

          :  Hamiltonian                  GFN2-xTB          :
         :: total energy             -42.008754693368 Eh    ::
         :: gradient norm              0.004986909837 Eh/a0 ::
         :: HOMO-LUMO gap              1.390729573774 eV    ::
         :: SCC energy               -42.598460590873 Eh    ::
         :: -> dispersion             -0.021900912620 Eh    ::
         :: repulsion energy           0.589383062596 Eh    ::

    * Orbital Energies and Occupations

         #    Occupation            Energy/Eh            Energy/eV
      -------------------------------------------------------------
         1        2.0000           -0.9395079             -25.5653
       ...           ...                  ...                  ...
        25        2.0000           -0.6824275             -18.5698
        26        2.0000           -0.6720045             -18.2862
        27        2.0000           -0.6613078             -17.9951
        28        2.0000           -0.6584954             -17.9186
        29        1.9999           -0.6351380             -17.2830
        30        1.9999           -0.6329587             -17.2237
        31        1.9998           -0.6226082             -16.9420
        32        1.9998           -0.6203757             -16.8813
        33        1.9995           -0.6084177             -16.5559
        34        1.9993           -0.6024041             -16.3923
        35        1.9984           -0.5895483             -16.0424
        36        1.9064           -0.5245113             -14.2727
        37        1.6708           -0.5025176             -13.6742 (HOMO)
        38        0.3350           -0.4514092             -12.2835 (LUMO)
        39        0.0431           -0.4163791             -11.3303
        40        0.0275           -0.4091487             -11.1335
        41        0.0143           -0.3986783             -10.8486
        42        0.0062           -0.3854889             -10.4897
        43        0.0002           -0.3264685              -8.8837
        44        0.0000           -0.2520098              -6.8575
        45                         -0.1907415              -5.1903
        46                         -0.1263568              -3.4383
        47                         -0.0973336              -2.6486
        48                         -0.0766895              -2.0868
       ...                                ...                  ...
        67                          0.9633536              26.2142
      -------------------------------------------------------------
                  HL-Gap            0.0511084 Eh            1.3907 eV

     #   Z          covCN         q      C6AA      α(0)
     1   6 C        3.689    -0.053    21.716     6.670
     2   7 N        1.821    -0.045    22.825     7.079
     3   6 C        1.841    -0.100    33.916     9.408
     4   7 N        2.684    -0.013    21.519     6.890
     5   6 C        2.818     0.039    27.125     8.533
     6   6 C        1.907     0.062    29.527     8.776
     7   6 C        1.793     0.307    24.281     7.964
     8   8 O        0.856    -0.126    16.907     5.513
     9   7 N        2.717    -0.063    22.462     7.039
    10   6 C        3.698    -0.062    21.856     6.687
    11   6 C        2.710     0.314    21.668     7.619
    12   8 O        0.858    -0.323    20.210     6.027
    13   7 N        2.736    -0.056    22.318     7.016
    14   6 C        3.711    -0.068    21.947     6.695
    15   1 H        0.924     0.074     2.042     2.234
    16   1 H        0.924     0.118     1.633     1.998
    17   1 H        0.924     0.111     1.691     2.034
    18   1 H        0.925     0.075     2.027     2.227
    19   1 H        0.925     0.101     1.778     2.085
    20   1 H        0.924     0.110     1.697     2.037
    21   1 H        0.925     0.094     1.843     2.123
    22   1 H        0.924     0.086     1.914     2.163
    23   1 H        0.925     0.092     1.862     2.134
    24   1 H        0.925     0.109     1.709     2.045
    25   1 H        0.860     0.218     1.018     1.581

Wiberg/Mayer (AO) data.
largest (>0.10) Wiberg bond orders for each atom

     #   Z sym  total        # sym  WBO       # sym  WBO       # sym  WBO
 ---------------------------------------------------------------------------
     1   6 C    3.942 --     2 N    1.030    15 H    0.962    16 H    0.944
                            17 H    0.940
     2   7 N    3.432 --     6 C    2.133     1 C    1.030     5 C    0.142
     3   6 C    2.808 --     4 N    1.683    18 H    0.939
     4   7 N    3.638 --     3 C    1.683     5 C    0.979    25 H    0.907
     5   6 C    3.789 --     6 C    1.527    13 N    0.993     4 N    0.979
                             2 N    0.142
     6   6 C    3.900 --     2 N    2.133     5 C    1.527
     7   6 C    3.646 --     8 O    2.039     9 N    1.527
     8   8 O    2.326 --     7 C    2.039     9 N    0.217
     9   7 N    3.532 --     7 C    1.527    10 C    0.927    11 C    0.746
                             8 O    0.217
    10   6 C    3.890 --    19 H    0.976    21 H    0.972    20 H    0.967
                             9 N    0.927
    11   6 C    3.898 --    12 O    1.765    13 N    1.273     9 N    0.746
    12   8 O    2.142 --    11 C    1.765    13 N    0.196
    13   7 N    3.521 --    11 C    1.273     5 C    0.993    14 C    0.955
                            12 O    0.196
    14   6 C    3.922 --    23 H    0.976    22 H    0.970    24 H    0.967
                            13 N    0.955
    15   1 H    0.987 --     1 C    0.962
    16   1 H    0.982 --     1 C    0.944
    17   1 H    0.983 --     1 C    0.940
    18   1 H    0.962 --     3 C    0.939
    19   1 H    0.989 --    10 C    0.976
    20   1 H    0.987 --    10 C    0.967
    21   1 H    0.991 --    10 C    0.972
    22   1 H    0.991 --    14 C    0.970
    23   1 H    0.990 --    14 C    0.976
    24   1 H    0.986 --    14 C    0.967
    25   1 H    0.941 --     4 N    0.907
 ---------------------------------------------------------------------------

molecular dipole:
                 x           y           z       tot (Debye)
 q only:        0.675       0.046       0.894
   full:        0.556       0.402       0.856       2.787

           -------------------------------------------------
          | TOTAL ENERGY              -42.008754693368 Eh   |
          | GRADIENT NORM               0.004986909837 Eh/α |
          | HOMO-LUMO GAP               1.390729573774 eV   |
           -------------------------------------------------

 * finished run on 2024/06/05 at 19:57:54.746
