   * xtb version 6.6.1 (8d0f1dd) compiled by 'conda@1efc2f54142f' on 2023-08-01
          program call               : xtb struc.xyz --opt loose --input .xc1 --gfn2

   ID    Z sym.   atoms
    1    7 N      1, 17
    2    6 C      2-6, 8, 9, 11-16, 18-23, 25, 26, 28-33
    3    8 O      7, 10, 24, 27
    4    1 H      34-72
constraining bond 35 37 to    3.2800000 Å, actual value:    1.7895425 Å

          :  Hamiltonian                  GFN2-xTB          :
 * total energy  :   -99.0074815 Eh     change       -0.4035485E-08 Eh
 * total energy  :   -99.1660802 Eh     change       -0.1585987E+00 Eh
 * total energy  :   -99.2384513 Eh     change       -0.7237114E-01 Eh
 * total energy  :   -99.2556919 Eh     change       -0.1724051E-01 Eh
 * total energy  :   -99.2583109 Eh     change       -0.2619031E-02 Eh
 * total energy  :   -99.2589763 Eh     change       -0.6653893E-03 Eh
 * total energy  :   -99.2595317 Eh     change       -0.5554623E-03 Eh
 * total energy  :   -99.2597279 Eh     change       -0.1961820E-03 Eh
 * total energy  :   -99.2598595 Eh     change       -0.1316118E-03 Eh
 * total energy  :   -99.2599726 Eh     change       -0.1130338E-03 Eh
 * total energy  :   -99.2730560 Eh     change       -0.6335006E-03 Eh
 * total energy  :   -99.2734005 Eh     change       -0.3444136E-03 Eh
 * total energy  :   -99.2735490 Eh     change       -0.1485131E-03 Eh
 * total energy  :   -99.2736416 Eh     change       -0.9264839E-04 Eh
 * total energy  :   -99.2737266 Eh     change       -0.8501357E-04 Eh
 * total energy  :   -99.2738042 Eh     change       -0.7752676E-04 Eh
 * total energy  :   -99.2738663 Eh     change       -0.6211627E-04 Eh
 * total energy  :   -99.2739183 Eh     change       -0.5198447E-04 Eh
 * total energy  :   -99.2739682 Eh     change       -0.4998079E-04 Eh
   *** GEOMETRY OPTIMIZATION CONVERGED AFTER 33 ITERATIONS ***

 final structure:
================
72
 xtb: 6.6.1 (8d0f1dd)
N           -1.88367985016821        2.81309441424407        2.24267020503475
C           -1.84502343871200        2.12483927170937        1.20196066895650
C           -3.00183968220825        1.92565391553604        0.26226742186000
C           -3.49449279408258        0.48945619513842        0.35650311644925
C           -4.45245261361605        0.02488773401524       -0.53982236333138
C           -4.92579953551148       -1.27946031280749       -0.47326139146819
O           -5.82833982764579       -1.78820902120593       -1.35064575258427
C           -6.61045624667048       -1.01538412424024       -2.07135208632187
C           -4.42988284216780       -2.17500385527629        0.50713569429495
O           -4.95665043019485       -3.41281777226715        0.48687049249324
C           -4.54420209984310       -4.34807894166126        1.45878259802432
C           -3.47738768328048       -1.70137265491737        1.39829116054423
C           -3.02607006682482       -0.39026602265402        1.32493137497256
C           -2.45444651505891        2.19608432717069       -1.16378935999803
C           -1.51235219265082        1.10501636287588       -1.70163161212407
C           -0.17906244244124        1.09815189246714       -1.05937369854937
N            0.49523697389319        0.01220366605997       -0.70246741044651
C            1.87440700483587        0.10499082384948       -0.28297247824864
C            2.84418624685161       -0.34511705313886       -1.39280017937246
C            4.26408020134719       -0.14290737421054       -0.94182741945769
C            4.90467593850319        1.06709211365301       -1.15511732205664
C            6.20305452590293        1.27080514340585       -0.71474091289443
C            6.88822693861804        0.26620217614219       -0.04623962812901
O            8.14572997026355        0.35303598890066        0.42410000346503
C            8.87288759345906        1.54418473143053        0.22765826150945
C            6.23921671142679       -0.97996435693984        0.17762855830509
O            6.97749770141643       -1.90137659485550        0.82707910315936
C            6.43462272044864       -3.17785733961718        1.06646116233816
C            4.93919728817953       -1.15884379124754       -0.26944595537440
C           -0.08963601284022       -1.30624995429443       -0.76800966391893
C           -4.20191054715082        2.87414382565162        0.55999859331968
C           -4.84262522746808        2.55657953258028        1.90949271933556
C           -3.82737484933710        4.35248471509364        0.50444710842753
H           -4.82138570296906        0.65752225319418       -1.33092476870481
H           -6.94187802132182       -0.05069586350108       -1.67855540846647
H           -7.21493919374131       -1.54837396871422       -2.78438398649934
H           -4.90216161761663       -1.06251413232895       -3.96468178317406
H           -4.76752414485395       -3.99670589135145        2.47001484161560
H           -5.11553769919540       -5.25148902669221        1.25617876533208
H           -3.47608899928007       -4.56837531010858        1.37258138885938
H           -3.08332339532806       -2.34408291229846        2.16820763273748
H           -2.30563168599380       -0.05276380129064        2.05405037506738
H           -3.29498330815205        2.27844502516492       -1.85110559543167
H           -1.93177693236256        3.15281698647418       -1.16491208660793
H           -1.99991396602144        0.13390629583123       -1.63444625211934
H           -1.35811029936587        1.32133656338117       -2.76653032671062
H           -0.93281976808477        1.61498106021778        0.83275153678569
H            0.36080365435805        2.03297718565143       -1.02309359009589
H            2.02285289642336       -0.51742790219315        0.60396016240853
H            2.10177401794292        1.13910037312870       -0.01578977652488
H            2.65100108494948        0.24812543950472       -2.28810946954481
H            2.67002796219903       -1.39515107334461       -1.62976912526885
H            4.39777503542212        1.86157446395421       -1.68133874915115
H            6.67708438849728        2.22008220109168       -0.90238796019590
H            8.39237204170083        2.39309061575979        0.72356565486749
H            8.99897203467892        1.76531169685820       -0.83635554427187
H            9.84801396443756        1.36862116785289        0.67771397245927
H            7.21522079652246       -3.73550474627793        1.58024116804568
H            5.54865315093094       -3.12373943091252        1.70726897305542
H            6.18124267702491       -3.68788311996410        0.13189839515051
H            4.44124146576773       -2.10260198663850       -0.11071192949069
H           -0.26272185016420       -1.61086235943279       -1.80232747176089
H           -1.04227820390927       -1.32755217272800       -0.23280717782509
H            0.58499239245131       -2.02102189030830       -0.30384852734431
H           -4.94662562656382        2.68597366871778       -0.22140068918342
H           -4.13858510835164        2.75619174701431        2.71069995273919
H           -5.15364729984804        1.51602673432820        1.96456023912035
H           -5.71835658015504        3.18353434751934        2.05365537302847
H           -3.07276761743407        4.58030290457999        1.25090562307616
H           -3.46165988349452        4.64227389399422       -0.47691067871389
H           -4.70844288572411        4.95095848953506        0.72033628327576
H           -1.03368709364720        2.90173433624067        2.79028439384801

          :  Hamiltonian                  GFN2-xTB          :
         :: total energy             -99.273968245040 Eh    ::
         :: gradient norm              0.003389245425 Eh/a0 ::
         :: HOMO-LUMO gap              0.962947974112 eV    ::
         :: SCC energy              -100.646684447778 Eh    ::
         :: -> dispersion             -0.075914081653 Eh    ::
         :: repulsion energy           1.370912302858 Eh    ::

    * Orbital Energies and Occupations

         #    Occupation            Energy/Eh            Energy/eV
      -------------------------------------------------------------
         1        2.0000           -0.8416468             -22.9024
       ...           ...                  ...                  ...
        78        1.9984           -0.5320617             -14.4781
        79        1.9983           -0.5307404             -14.4422
        80        1.9982           -0.5297658             -14.4157
        81        1.9969           -0.5212732             -14.1846
        82        1.9965           -0.5194118             -14.1339
        83        1.9960           -0.5170831             -14.0705
        84        1.9952           -0.5141662             -13.9912
        85        1.9945           -0.5119740             -13.9315
        86        1.9778           -0.4898351             -13.3291
        87        1.9646           -0.4823548             -13.1255
        88        1.9432           -0.4746838             -12.9168
        89        1.8380           -0.4572022             -12.4411
        90        1.4541           -0.4342548             -11.8167 (HOMO)
        91        0.4436           -0.3988671             -10.8537 (LUMO)
        92        0.3799           -0.3957764             -10.7696
        93        0.0166           -0.3430471              -9.3348
        94        0.0063           -0.3275141              -8.9121
        95        0.0046           -0.3227007              -8.7811
        96        0.0026           -0.3138020              -8.5390
        97        0.0023           -0.3114799              -8.4758
        98        0.0000           -0.2023696              -5.5068
        99        0.0000           -0.1890326              -5.1438
       100                         -0.1386010              -3.7715
       101                         -0.0720355              -1.9602
       ...                                ...                  ...
       171                          0.5746400              15.6367
      -------------------------------------------------------------
                  HL-Gap            0.0353877 Eh            0.9629 eV

     #   Z          covCN         q      C6AA      α(0)
     1   7 N        1.774    -0.267    27.759     7.802
     2   6 C        2.826     0.100    25.771     8.318
     3   6 C        3.907     0.006    20.413     6.422
     4   6 C        2.974     0.006    27.885     8.662
     5   6 C        2.920    -0.065    29.615     8.924
     6   6 C        2.880     0.110    25.561     8.288
     7   8 O        1.709    -0.112    16.014     5.403
     8   6 C        2.741     0.051    26.829     8.481
     9   6 C        2.862     0.135    25.046     8.203
    10   8 O        1.706    -0.230    17.813     5.698
    11   6 C        3.646     0.025    20.484     6.504
    12   6 C        2.914    -0.074    29.839     8.957
    13   6 C        2.922    -0.048    29.198     8.861
    14   6 C        3.812    -0.066    21.761     6.640
    15   6 C        3.802    -0.070    21.832     6.652
    16   6 C        2.843     0.009    27.815     8.643
    17   7 N        2.729     0.011    21.061     6.816
    18   6 C        3.755    -0.017    20.925     6.522
    19   6 C        3.808    -0.071    21.848     6.654
    20   6 C        2.969     0.000    28.024     8.683
    21   6 C        2.922    -0.049    29.206     8.862
    22   6 C        2.914    -0.067    29.675     8.933
    23   6 C        2.865     0.134    25.072     8.208
    24   8 O        1.706    -0.221    17.665     5.675
    25   6 C        3.645     0.025    20.495     6.506
    26   6 C        2.863     0.133    25.082     8.209
    27   8 O        1.706    -0.224    17.713     5.682
    28   6 C        3.645     0.027    20.458     6.501
    29   6 C        2.919    -0.079    29.984     8.980
    30   6 C        3.700    -0.070    22.016     6.710
    31   6 C        3.853    -0.008    20.681     6.468
    32   6 C        3.756    -0.119    22.843     6.815
    33   6 C        3.755    -0.119    22.830     6.813
    34   1 H        0.926     0.065     2.144     2.290
    35   1 H        0.924     0.071     2.070     2.250
    36   1 H        0.926     0.105     1.741     2.063
    37   1 H        0.000    -0.200    26.933     9.489
    38   1 H        0.924     0.056     2.241     2.341
    39   1 H        0.925     0.084     1.941     2.179
    40   1 H        0.924     0.051     2.310     2.377
    41   1 H        0.926     0.057     2.232     2.336
    42   1 H        0.926     0.044     2.390     2.417
    43   1 H        0.925     0.064     2.152     2.294
    44   1 H        0.925     0.055     2.253     2.347
    45   1 H        0.925     0.068     2.110     2.272
    46   1 H        0.924     0.086     1.919     2.166
    47   1 H        0.922     0.008     2.929     2.677
    48   1 H        0.926     0.071     2.074     2.252
    49   1 H        0.924     0.067     2.117     2.276
    50   1 H        0.924     0.067     2.113     2.273
    51   1 H        0.924     0.057     2.240     2.341
    52   1 H        0.924     0.056     2.241     2.341
    53   1 H        0.926     0.046     2.371     2.408
    54   1 H        0.926     0.059     2.209     2.324
    55   1 H        0.924     0.055     2.263     2.352
    56   1 H        0.924     0.057     2.239     2.340
    57   1 H        0.925     0.083     1.950     2.184
    58   1 H        0.925     0.082     1.955     2.187
    59   1 H        0.924     0.049     2.337     2.391
    60   1 H        0.924     0.053     2.281     2.362
    61   1 H        0.926     0.047     2.353     2.399
    62   1 H        0.924     0.080     1.981     2.201
    63   1 H        0.924     0.077     2.009     2.217
    64   1 H        0.925     0.080     1.974     2.197
    65   1 H        0.924     0.037     2.484     2.465
    66   1 H        0.925     0.070     2.084     2.258
    67   1 H        0.925     0.033     2.547     2.496
    68   1 H        0.925     0.052     2.295     2.369
    69   1 H        0.925     0.060     2.195     2.317
    70   1 H        0.925     0.036     2.503     2.474
    71   1 H        0.925     0.055     2.254     2.348
    72   1 H        0.860     0.158     1.349     1.820

Wiberg/Mayer (AO) data.
largest (>0.10) Wiberg bond orders for each atom

     #   Z sym  total        # sym  WBO       # sym  WBO       # sym  WBO
 ---------------------------------------------------------------------------
     1   7 N    3.044 --     2 C    1.957    72 H    0.941
     2   6 C    3.926 --     1 N    1.957     3 C    0.995    47 H    0.894
     3   6 C    3.977 --     2 C    0.995     4 C    0.969    14 C    0.958
                            31 C    0.942
     4   6 C    3.965 --    13 C    1.400     5 C    1.391     3 C    0.969
     5   6 C    3.932 --     4 C    1.391     6 C    1.380    34 H    0.955
     6   6 C    3.895 --     5 C    1.380     9 C    1.238     7 O    1.046
     7   8 O    2.414 --     8 C    1.243     6 C    1.046
     8   6 C    3.435 --     7 O    1.243    36 H    0.964    35 H    0.964
                            37 H    0.166
     9   6 C    3.902 --    12 C    1.380     6 C    1.238    10 O    1.110
    10   8 O    2.268 --     9 C    1.110    11 C    0.973
    11   6 C    3.929 --    39 H    0.977    40 H    0.975    38 H    0.974
                            10 O    0.973
    12   6 C    3.964 --    13 C    1.415     9 C    1.380    41 H    0.964
    13   6 C    3.937 --    12 C    1.415     4 C    1.400    42 H    0.962
    14   6 C    3.974 --    15 C    0.983    44 H    0.972    43 H    0.968
                             3 C    0.958
    15   6 C    3.986 --    16 C    1.060    14 C    0.983    45 H    0.961
                            46 H    0.924
    16   6 C    3.605 --    17 N    1.404    15 C    1.060    48 H    0.956
    17   7 N    3.484 --    16 C    1.404    30 C    0.998    18 C    0.988
    18   6 C    3.955 --    17 N    0.988    50 H    0.968    19 C    0.967
                            49 H    0.963
    19   6 C    3.976 --    20 C    1.008    51 H    0.972    52 H    0.972
                            18 C    0.967
    20   6 C    3.943 --    21 C    1.408    29 C    1.381    19 C    1.008
    21   6 C    3.949 --    22 C    1.418    20 C    1.408    53 H    0.968
    22   6 C    3.959 --    21 C    1.418    23 C    1.382    54 H    0.963
    23   6 C    3.894 --    22 C    1.382    26 C    1.219    24 O    1.112
    24   8 O    2.255 --    23 C    1.112    25 C    0.976
    25   6 C    3.928 --    57 H    0.977    24 O    0.976    55 H    0.972
                            56 H    0.972
    26   6 C    3.897 --    29 C    1.394    23 C    1.219    27 O    1.105
    27   8 O    2.254 --    26 C    1.105    28 C    0.978
    28   6 C    3.932 --    27 O    0.978    58 H    0.977    59 H    0.973
                            60 H    0.973
    29   6 C    3.958 --    26 C    1.394    20 C    1.381    61 H    0.962
    30   6 C    3.957 --    17 N    0.998    64 H    0.978    62 H    0.966
                            63 H    0.963
    31   6 C    3.974 --    33 C    1.009    32 C    1.008    65 H    0.960
                             3 C    0.942
    32   6 C    3.980 --    31 C    1.008    67 H    0.982    68 H    0.982
                            66 H    0.974
    33   6 C    3.983 --    31 C    1.009    70 H    0.983    71 H    0.980
                            69 H    0.977
    34   1 H    0.995 --     5 C    0.955
    35   1 H    0.991 --     8 C    0.964
    36   1 H    0.987 --     8 C    0.964
    37   1 H    0.201 --     8 C    0.166
    38   1 H    0.994 --    11 C    0.974
    39   1 H    0.992 --    11 C    0.977
    40   1 H    0.995 --    11 C    0.975
    41   1 H    0.995 --    12 C    0.964
    42   1 H    0.998 --    13 C    0.962
    43   1 H    0.995 --    14 C    0.968
    44   1 H    0.996 --    14 C    0.972
    45   1 H    0.994 --    15 C    0.961
    46   1 H    0.969 --    15 C    0.924
    47   1 H    0.988 --     2 C    0.894
    48   1 H    0.994 --    16 C    0.956
    49   1 H    0.990 --    18 C    0.963
    50   1 H    0.995 --    18 C    0.968
    51   1 H    0.995 --    19 C    0.972
    52   1 H    0.996 --    19 C    0.972
    53   1 H    0.997 --    21 C    0.968
    54   1 H    0.995 --    22 C    0.963
    55   1 H    0.991 --    25 C    0.972
    56   1 H    0.991 --    25 C    0.972
    57   1 H    0.992 --    25 C    0.977
    58   1 H    0.993 --    28 C    0.977
    59   1 H    0.993 --    28 C    0.973
    60   1 H    0.993 --    28 C    0.973
    61   1 H    0.996 --    29 C    0.962
    62   1 H    0.985 --    30 C    0.966
    63   1 H    0.987 --    30 C    0.963
    64   1 H    0.993 --    30 C    0.978
    65   1 H    0.993 --    31 C    0.960
    66   1 H    0.991 --    32 C    0.974
    67   1 H    0.997 --    32 C    0.982
    68   1 H    0.994 --    32 C    0.982
    69   1 H    0.993 --    33 C    0.977
    70   1 H    0.997 --    33 C    0.983
    71   1 H    0.994 --    33 C    0.980
    72   1 H    0.970 --     1 N    0.941
 ---------------------------------------------------------------------------

molecular dipole:
                 x           y           z       tot (Debye)
 q only:        0.687      -0.084       0.385
   full:        0.907      -0.219       0.219       2.437

           -------------------------------------------------
          | TOTAL ENERGY              -99.273968245040 Eh   |
          | GRADIENT NORM               0.003389245425 Eh/α |
          | HOMO-LUMO GAP               0.962947974112 eV   |
           -------------------------------------------------

 * finished run on 2024/04/06 at 11:15:01.189
