   * xtb version 6.6.1 (8d0f1dd) compiled by 'conda@1efc2f54142f' on 2023-08-01
          program call               : xtb xtbopt.xyz --opt crude --input .xc2 --gfn2

   ID    Z sym.   atoms
    1    7 N      1, 17
    2    6 C      2-6, 8, 9, 11-16, 18-23, 25, 26, 28-33
    3    8 O      7, 10, 24, 27
    4    1 H      34-72

          :  Hamiltonian                  GFN2-xTB          :
 * total energy  :   -99.2744784 Eh     change       -0.1756462E-10 Eh
 * total energy  :   -99.2880922 Eh     change       -0.1361378E-01 Eh
 * total energy  :   -99.3345409 Eh     change       -0.4644873E-01 Eh
 * total energy  :   -99.4032495 Eh     change       -0.6870853E-01 Eh
 * total energy  :   -99.3894559 Eh     change        0.1379359E-01 Eh
 * total energy  :   -99.3994585 Eh     change       -0.1000261E-01 Eh
 * total energy  :   -99.3972730 Eh     change        0.2185451E-02 Eh
 * total energy  :   -99.4059823 Eh     change       -0.8709296E-02 Eh
 * total energy  :   -99.4015444 Eh     change        0.4437958E-02 Eh
 * total energy  :   -99.4064530 Eh     change       -0.4908605E-02 Eh
 * total energy  :   -99.4063862 Eh     change        0.6677390E-04 Eh
 * total energy  :   -99.4065273 Eh     change       -0.1410840E-03 Eh
   *** GEOMETRY OPTIMIZATION CONVERGED AFTER 12 ITERATIONS ***

 final structure:
================
72
 xtb: 6.6.1 (8d0f1dd)
N           -1.88249987865915        2.81688619961257        2.24178670848741
C           -1.84298408711791        2.12204822017904        1.20544995549547
C           -2.99573307334290        1.92065378407539        0.26189153575231
C           -3.47596406106806        0.47933692143060        0.34986215425225
C           -4.40900845094665        0.00485154895990       -0.57409580138392
C           -4.89221024333766       -1.29123929461004       -0.51475620607476
O           -5.80266806024257       -1.82257503175212       -1.35634281408226
C           -6.31831248053958       -1.03898441552487       -2.39765267702997
C           -4.42041708646896       -2.16869550100365        0.49955488858617
O           -4.93909378908259       -3.41256593666363        0.47679541831269
C           -4.54936832875144       -4.33649463706255        1.46620770642859
C           -3.48904783719628       -1.69348055279295        1.40911118956145
C           -3.02675069860190       -0.38532205130864        1.33593746215521
C           -2.44253350139574        2.20306551981580       -1.15953361803341
C           -1.50842824547809        1.10872431827508       -1.70554665000690
C           -0.17332728674783        1.09790600166697       -1.06651811733634
N            0.49493882008675        0.01024146353822       -0.70087017152494
C            1.87404525082286        0.10160047409409       -0.28273444292082
C            2.84206344717016       -0.34584992935451       -1.39496132316333
C            4.26206157174260       -0.14289882537061       -0.94519790782394
C            4.90139526176351        1.06788680438306       -1.15642169085583
C            6.20021737278255        1.27153744392505       -0.71694545690877
C            6.88592501767779        0.26614630798372       -0.05053979429135
O            8.14441369598807        0.35111844068712        0.41826764899079
C            8.87243731908354        1.54169648507022        0.22270449094959
C            6.23705923284424       -0.97985297135026        0.17344606988649
O            6.97591789860075       -1.90083601506845        0.82333328669448
C            6.43339824504560       -3.17727494774328        1.06297279135595
C            4.93746987688175       -1.15926274960714       -0.27374477190305
C           -0.09442144229185       -1.30590725097603       -0.76127179917356
C           -4.20183694637213        2.86148305419019        0.55744718069726
C           -4.84264336937651        2.54354955106080        1.90631549945238
C           -3.83572861815001        4.34203700591320        0.49820766811122
H           -4.77415250989789        0.66580152454131       -1.34209609093092
H           -6.78478878648027       -0.12189472529325       -2.02456761625690
H           -7.08338537315529       -1.65701192355699       -2.87814043819646
H           -5.55154036592599       -0.76917358316406       -3.13479084345358
H           -4.79230807296982       -3.97741264537177        2.47067136060811
H           -5.11716990541544       -5.24166419674625        1.26026050215781
H           -3.47891593897076       -4.55922805438623        1.40630484638718
H           -3.12110961507491       -2.33252889779211        2.19553376602987
H           -2.32647556952296       -0.04337293960277        2.08237199566977
H           -3.28162250086606        2.30429924989822       -1.84692671870048
H           -1.90961787911796        3.15441225427271       -1.14854472058498
H           -1.99861721003450        0.13949983488978       -1.63088190263456
H           -1.35803977678738        1.32481329537255       -2.77149469764036
H           -0.93079114246913        1.60643360072923        0.84357446275397
H            0.37025660145387        2.03087140151813       -1.03487522967690
H            2.02350709346503       -0.52281229468258        0.60243599844459
H            2.10181710998690        1.13496839732820       -0.01352287124984
H            2.64711550706665        0.24852768095479       -2.28923037340656
H            2.66840531464418       -1.39581286412413       -1.63298446395394
H            4.39311501904254        1.86329672166630       -1.68006689899263
H            6.67378410281820        2.22127800303246       -0.90363132003001
H            8.39262713543839        2.39081564643433        0.71889238490968
H            8.99917730110401        1.76327689665240       -0.84117103914028
H            9.84722129274347        1.36481537755407        0.67304608628136
H            7.21530935148388       -3.73547829003878        1.57414609824045
H            5.54914333688520       -3.12364841160510        1.70624060492578
H            6.17738422834584       -3.68644759660090        0.12864019980171
H            4.43959971232472       -2.10311499225479       -0.11518496036303
H           -0.26676977843611       -1.61417575199590       -1.79467793809848
H           -1.04721113664008       -1.32288948221932       -0.22615729109779
H            0.57758190992346       -2.02101235505986       -0.29401305473909
H           -4.94639239329636        2.66625725909742       -0.22271374808130
H           -4.14005027710770        2.74418735684304        2.70862537092843
H           -5.15243101120719        1.50274196595181        1.95957450526549
H           -5.71957388800289        3.16953394275930        2.04888575242910
H           -3.07958725140374        4.57415557815444        1.24184556079089
H           -3.47470813149508        4.63335228298527       -0.48460174625337
H           -4.71910033900392        4.93619473432591        0.71680554356921
H           -1.03353609176328        2.90275608736127        2.79152535423235

          :  Hamiltonian                  GFN2-xTB          :
         :: total energy             -99.406527300760 Eh    ::
         :: gradient norm              0.008232288362 Eh/a0 ::
         :: HOMO-LUMO gap              1.671300031725 eV    ::
         :: SCC energy              -100.784901118572 Eh    ::
         :: -> dispersion             -0.074937035624 Eh    ::
         :: repulsion energy           1.377118481929 Eh    ::

    * Orbital Energies and Occupations

         #    Occupation            Energy/Eh            Energy/eV
      -------------------------------------------------------------
         1        2.0000           -0.8092661             -22.0213
       ...           ...                  ...                  ...
        78        1.9983           -0.5290178             -14.3953
        79        1.9983           -0.5285656             -14.3830
        80        1.9982           -0.5278724             -14.3641
        81        1.9975           -0.5227826             -14.2256
        82        1.9971           -0.5201615             -14.1543
        83        1.9959           -0.5148539             -14.0099
        84        1.9952           -0.5122702             -13.9396
        85        1.9943           -0.5095547             -13.8657
        86        1.9810           -0.4904515             -13.3459
        87        1.9787           -0.4886113             -13.2958
        88        1.9392           -0.4717074             -12.8358
        89        1.8716           -0.4593143             -12.4986
        90        1.8440           -0.4559972             -12.4083 (HOMO)
        91        0.3928           -0.3945780             -10.7370 (LUMO)
        92        0.0149           -0.3394244              -9.2362
        93        0.0035           -0.3164289              -8.6105
        94        0.0029           -0.3134361              -8.5290
        95        0.0027           -0.3125367              -8.5046
        96        0.0024           -0.3102196              -8.4415
        97        0.0000           -0.1906779              -5.1886
        98        0.0000           -0.1877184              -5.1081
        99                         -0.1368941              -3.7251
       100                         -0.0686451              -1.8679
       101                         -0.0633393              -1.7236
       ...                                ...                  ...
       171                          0.5763273              15.6827
      -------------------------------------------------------------
                  HL-Gap            0.0614191 Eh            1.6713 eV

     #   Z          covCN         q      C6AA      α(0)
     1   7 N        1.774    -0.267    27.760     7.802
     2   6 C        2.826     0.101    25.748     8.315
     3   6 C        3.907     0.006    20.413     6.422
     4   6 C        2.974     0.002    27.967     8.675
     5   6 C        2.920    -0.080    29.997     8.981
     6   6 C        2.863     0.129    25.165     8.223
     7   8 O        1.706    -0.227    17.767     5.691
     8   6 C        3.645     0.029    20.416     6.494
     9   6 C        2.864     0.129    25.181     8.225
    10   8 O        1.706    -0.228    17.786     5.694
    11   6 C        3.645     0.027    20.457     6.500
    12   6 C        2.913    -0.075    29.861     8.961
    13   6 C        2.921    -0.053    29.324     8.880
    14   6 C        3.812    -0.065    21.738     6.636
    15   6 C        3.802    -0.069    21.821     6.651
    16   6 C        2.843     0.007    27.850     8.649
    17   7 N        2.729     0.010    21.076     6.818
    18   6 C        3.756    -0.016    20.921     6.522
    19   6 C        3.808    -0.071    21.843     6.653
    20   6 C        2.969    -0.000    28.034     8.685
    21   6 C        2.922    -0.049    29.213     8.864
    22   6 C        2.914    -0.067    29.680     8.934
    23   6 C        2.865     0.134    25.079     8.209
    24   8 O        1.706    -0.222    17.679     5.677
    25   6 C        3.645     0.025    20.490     6.506
    26   6 C        2.863     0.133    25.087     8.210
    27   8 O        1.706    -0.225    17.725     5.684
    28   6 C        3.645     0.027    20.453     6.500
    29   6 C        2.919    -0.080    29.988     8.980
    30   6 C        3.700    -0.070    22.007     6.709
    31   6 C        3.853    -0.007    20.672     6.467
    32   6 C        3.756    -0.119    22.831     6.813
    33   6 C        3.755    -0.118    22.823     6.812
    34   1 H        0.926     0.052     2.295     2.369
    35   1 H        0.924     0.052     2.298     2.371
    36   1 H        0.924     0.080     1.976     2.198
    37   1 H        0.924     0.046     2.372     2.408
    38   1 H        0.924     0.055     2.255     2.349
    39   1 H        0.925     0.081     1.966     2.193
    40   1 H        0.924     0.048     2.349     2.397
    41   1 H        0.926     0.052     2.297     2.370
    42   1 H        0.926     0.038     2.472     2.459
    43   1 H        0.925     0.060     2.198     2.318
    44   1 H        0.924     0.054     2.276     2.359
    45   1 H        0.925     0.066     2.129     2.282
    46   1 H        0.923     0.080     1.982     2.202
    47   1 H        0.922     0.007     2.942     2.682
    48   1 H        0.926     0.070     2.088     2.260
    49   1 H        0.924     0.067     2.116     2.275
    50   1 H        0.924     0.067     2.114     2.274
    51   1 H        0.924     0.055     2.254     2.348
    52   1 H        0.924     0.056     2.251     2.346
    53   1 H        0.926     0.045     2.381     2.413
    54   1 H        0.926     0.059     2.215     2.327
    55   1 H        0.924     0.054     2.267     2.355
    56   1 H        0.924     0.056     2.246     2.344
    57   1 H        0.925     0.082     1.954     2.186
    58   1 H        0.925     0.082     1.959     2.189
    59   1 H        0.924     0.049     2.338     2.391
    60   1 H        0.924     0.053     2.288     2.366
    61   1 H        0.926     0.047     2.358     2.401
    62   1 H        0.924     0.076     2.016     2.220
    63   1 H        0.924     0.079     1.991     2.206
    64   1 H        0.925     0.080     1.977     2.199
    65   1 H        0.924     0.037     2.486     2.466
    66   1 H        0.925     0.069     2.094     2.263
    67   1 H        0.925     0.036     2.505     2.475
    68   1 H        0.925     0.051     2.304     2.374
    69   1 H        0.925     0.060     2.199     2.319
    70   1 H        0.925     0.034     2.526     2.485
    71   1 H        0.925     0.055     2.264     2.353
    72   1 H        0.860     0.157     1.354     1.823

Wiberg/Mayer (AO) data.
largest (>0.10) Wiberg bond orders for each atom

     #   Z sym  total        # sym  WBO       # sym  WBO       # sym  WBO
 ---------------------------------------------------------------------------
     1   7 N    3.043 --     2 C    1.957    72 H    0.942
     2   6 C    3.927 --     1 N    1.957     3 C    0.995    47 H    0.896
     3   6 C    3.976 --     2 C    0.995     4 C    0.969    14 C    0.958
                            31 C    0.942
     4   6 C    3.949 --    13 C    1.415     5 C    1.368     3 C    0.969
     5   6 C    3.962 --     6 C    1.402     4 C    1.368    34 H    0.957
     6   6 C    3.905 --     5 C    1.402     9 C    1.221     7 O    1.098
     7   8 O    2.258 --     6 C    1.098     8 C    0.981
     8   6 C    3.933 --     7 O    0.981    36 H    0.976    37 H    0.973
                            35 H    0.972
     9   6 C    3.902 --    12 C    1.392     6 C    1.221    10 O    1.102
    10   8 O    2.253 --     9 C    1.102    11 C    0.978
    11   6 C    3.931 --    10 O    0.978    39 H    0.977    40 H    0.974
                            38 H    0.973
    12   6 C    3.962 --    13 C    1.403     9 C    1.392    41 H    0.964
    13   6 C    3.954 --     4 C    1.415    12 C    1.403    42 H    0.963
    14   6 C    3.973 --    15 C    0.983    44 H    0.972    43 H    0.969
                             3 C    0.958
    15   6 C    3.987 --    16 C    1.059    14 C    0.983    45 H    0.961
                            46 H    0.927
    16   6 C    3.596 --    17 N    1.400    15 C    1.059    48 H    0.957
    17   7 N    3.479 --    16 C    1.400    30 C    0.998    18 C    0.988
    18   6 C    3.955 --    17 N    0.988    50 H    0.968    19 C    0.967
                            49 H    0.964
    19   6 C    3.976 --    20 C    1.008    51 H    0.972    52 H    0.972
                            18 C    0.967
    20   6 C    3.944 --    21 C    1.409    29 C    1.380    19 C    1.008
    21   6 C    3.950 --    22 C    1.417    20 C    1.409    53 H    0.968
    22   6 C    3.959 --    21 C    1.417    23 C    1.383    54 H    0.963
    23   6 C    3.895 --    22 C    1.383    26 C    1.219    24 O    1.111
    24   8 O    2.255 --    23 C    1.111    25 C    0.976
    25   6 C    3.928 --    57 H    0.977    24 O    0.976    55 H    0.973
                            56 H    0.973
    26   6 C    3.899 --    29 C    1.395    23 C    1.219    27 O    1.104
    27   8 O    2.255 --    26 C    1.104    28 C    0.978
    28   6 C    3.932 --    27 O    0.978    58 H    0.977    59 H    0.973
                            60 H    0.973
    29   6 C    3.959 --    26 C    1.395    20 C    1.380    61 H    0.963
    30   6 C    3.958 --    17 N    0.998    64 H    0.978    62 H    0.967
                            63 H    0.962
    31   6 C    3.972 --    33 C    1.009    32 C    1.008    65 H    0.960
                             3 C    0.942
    32   6 C    3.979 --    31 C    1.008    67 H    0.982    68 H    0.981
                            66 H    0.974
    33   6 C    3.983 --    31 C    1.009    70 H    0.983    71 H    0.980
                            69 H    0.977
    34   1 H    0.996 --     5 C    0.957
    35   1 H    0.994 --     8 C    0.972
    36   1 H    0.993 --     8 C    0.976
    37   1 H    0.994 --     8 C    0.973
    38   1 H    0.993 --    11 C    0.973
    39   1 H    0.993 --    11 C    0.977
    40   1 H    0.993 --    11 C    0.974
    41   1 H    0.996 --    12 C    0.964
    42   1 H    0.998 --    13 C    0.963
    43   1 H    0.995 --    14 C    0.969
    44   1 H    0.996 --    14 C    0.972
    45   1 H    0.995 --    15 C    0.961
    46   1 H    0.970 --    15 C    0.927
    47   1 H    0.987 --     2 C    0.896
    48   1 H    0.995 --    16 C    0.957
    49   1 H    0.990 --    18 C    0.964
    50   1 H    0.995 --    18 C    0.968
    51   1 H    0.996 --    19 C    0.972
    52   1 H    0.996 --    19 C    0.972
    53   1 H    0.997 --    21 C    0.968
    54   1 H    0.995 --    22 C    0.963
    55   1 H    0.992 --    25 C    0.973
    56   1 H    0.991 --    25 C    0.973
    57   1 H    0.992 --    25 C    0.977
    58   1 H    0.993 --    28 C    0.977
    59   1 H    0.993 --    28 C    0.973
    60   1 H    0.993 --    28 C    0.973
    61   1 H    0.997 --    29 C    0.963
    62   1 H    0.985 --    30 C    0.967
    63   1 H    0.987 --    30 C    0.962
    64   1 H    0.993 --    30 C    0.978
    65   1 H    0.992 --    31 C    0.960
    66   1 H    0.991 --    32 C    0.974
    67   1 H    0.997 --    32 C    0.982
    68   1 H    0.994 --    32 C    0.981
    69   1 H    0.993 --    33 C    0.977
    70   1 H    0.997 --    33 C    0.983
    71   1 H    0.994 --    33 C    0.980
    72   1 H    0.970 --     1 N    0.942
 ---------------------------------------------------------------------------

molecular dipole:
                 x           y           z       tot (Debye)
 q only:        0.720      -0.087      -0.844
   full:        1.016      -0.144      -1.023       3.683

           -------------------------------------------------
          | TOTAL ENERGY              -99.406527300760 Eh   |
          | GRADIENT NORM               0.008232288362 Eh/α |
          | HOMO-LUMO GAP               1.671300031725 eV   |
           -------------------------------------------------

 * finished run on 2024/04/06 at 11:15:03.448
