   * xtb version 6.6.1 (8d0f1dd) compiled by 'conda@1efc2f54142f' on 2023-08-01
          program call               : xtb struc.xyz --opt loose --input .xc1 --gfn2

   ID    Z sym.   atoms
    1    6 C      1, 3, 5-7, 10, 11, 14
    2    7 N      2, 4, 9, 13
    3    8 O      8, 12
    4    1 H      15-25
constraining bond 7 12 to    5.7600000 Å, actual value:    3.5721419 Å

          :  Hamiltonian                  GFN2-xTB          :
 * total energy  :   -33.7010111 Eh     change       -0.6650680E-10 Eh
 * total energy  :   -37.2347831 Eh     change       -0.3533772E+01 Eh
 * total energy  :   -39.8239970 Eh     change       -0.2589214E+01 Eh
 * total energy  :   -41.2983769 Eh     change       -0.1474380E+01 Eh
 * total energy  :   -41.7935363 Eh     change       -0.4951594E+00 Eh
 * total energy  :   -41.8477265 Eh     change       -0.5419015E-01 Eh
 * total energy  :   -41.8615449 Eh     change       -0.1381849E-01 Eh
 * total energy  :   -41.8812557 Eh     change       -0.1971073E-01 Eh
 * total energy  :   -41.8892211 Eh     change       -0.7965394E-02 Eh
 * total energy  :   -41.8987613 Eh     change       -0.9540187E-02 Eh
 * total energy  :   -42.1426730 Eh     change       -0.9245415E-03 Eh
 * total energy  :   -42.1435364 Eh     change       -0.8633918E-03 Eh
 * total energy  :   -42.1441738 Eh     change       -0.6374314E-03 Eh
 * total energy  :   -42.1445408 Eh     change       -0.3670039E-03 Eh
 * total energy  :   -42.1444672 Eh     change        0.7356894E-04 Eh
 * total energy  :   -42.1447871 Eh     change       -0.3198477E-03 Eh
 * total energy  :   -42.1448492 Eh     change       -0.6216506E-04 Eh
 * total energy  :   -42.1449705 Eh     change       -0.1212329E-03 Eh
 * total energy  :   -42.1450088 Eh     change       -0.3830329E-04 Eh
   *** GEOMETRY OPTIMIZATION CONVERGED AFTER 56 ITERATIONS ***

 final structure:
================
25
 xtb: 6.6.1 (8d0f1dd)
C            4.08087073649371        0.80638460560795       -0.02213426167345
N            3.03366188296970       -0.17387145927413       -0.03069563726413
C            3.15836813636829       -1.48343282368848       -0.11616217741011
N            1.96327642345861       -2.08251194314976       -0.08673083095636
C            0.93237717354345       -1.12226945231002        0.02904160430252
C            1.66678548077849        0.14585042501750        0.06385776362817
C            1.15447057476311        1.36522766905181        0.16466569470241
O            0.64152319805253        2.39753109569403        0.25310035499211
N           -3.62849438511356        1.28280098450471       -0.02192069094234
C           -3.90430769205237        2.65884125644452       -0.00354878487997
C           -3.96997981254807        0.14742630798555       -0.03912914883601
O           -4.08995711343195       -1.00499033757363       -0.05615821627856
N           -0.31291655043076       -1.27192765486123        0.08903440865815
C           -1.00864009097237       -2.51681948436407        0.05480070598211
H            4.10637332427764        1.32431685292406        0.93913076357437
H            5.03997113198593        0.32074222759004       -0.19065415804258
H            3.91019883923154        1.54457746952387       -0.80784565643173
H            4.09748477456295       -1.99914225302332       -0.19924258641193
H           -2.95162179849084        3.18830693273397        0.02430241463706
H           -4.45407271184967        2.95534620689874       -0.89962454934675
H           -4.48841613525667        2.92424702205479        0.88099245005735
H           -0.74560835074616       -3.14701615847179        0.90903080275919
H           -0.80720090802257       -3.06958980619653       -0.86688328995422
H           -2.07391258238381       -2.29389440695339        0.10130260857069
H            1.81019796892073       -3.07789473455956       -0.13735796553455

          :  Hamiltonian                  GFN2-xTB          :
         :: total energy             -42.145008785267 Eh    ::
         :: gradient norm              0.002412059284 Eh/a0 ::
         :: HOMO-LUMO gap              2.287233693374 eV    ::
         :: SCC energy               -42.766545434101 Eh    ::
         :: -> dispersion             -0.017482359190 Eh    ::
         :: repulsion energy           0.621494246790 Eh    ::

    * Orbital Energies and Occupations

         #    Occupation            Energy/Eh            Energy/eV
      -------------------------------------------------------------
         1        2.0000           -0.9093827             -24.7456
       ...           ...                  ...                  ...
        25        2.0000           -0.6490653             -17.6620
        26        2.0000           -0.6422144             -17.4755
        27        1.9999           -0.6401590             -17.4196
        28        1.9999           -0.6393859             -17.3986
        29        1.9997           -0.6144617             -16.7204
        30        1.9997           -0.6120933             -16.6559
        31        1.9997           -0.6120550             -16.6549
        32        1.9994           -0.6007405             -16.3470
        33        1.9991           -0.5949021             -16.1881
        34        1.9396           -0.5275644             -14.3558
        35        1.9299           -0.5251061             -14.2889
        36        1.9147           -0.5218755             -14.2010
        37        1.8938           -0.5182401             -14.1020 (HOMO)
        38        0.1622           -0.4341858             -11.8148 (LUMO)
        39        0.1591           -0.4338516             -11.8057
        40        0.0031           -0.3704234             -10.0797
        41        0.0000           -0.2894407              -7.8761
        42        0.0000           -0.2875074              -7.8235
        43        0.0000           -0.2709419              -7.3727
        44                         -0.1784533              -4.8560
        45                         -0.1440846              -3.9207
        46                         -0.0871307              -2.3709
        47                         -0.0609441              -1.6584
        48                         -0.0474704              -1.2917
       ...                                ...                  ...
        67                          1.2415164              33.7834
      -------------------------------------------------------------
                  HL-Gap            0.0840543 Eh            2.2872 eV

     #   Z          covCN         q      C6AA      α(0)
     1   6 C        3.691    -0.084    22.293     6.756
     2   7 N        2.802     0.059    20.211     6.677
     3   6 C        2.958     0.078    26.246     8.403
     4   7 N        2.772    -0.091    23.023     7.126
     5   6 C        2.926     0.156    24.635     8.140
     6   6 C        3.042    -0.021    28.486     8.754
     7   6 C        1.844     0.252    25.334     8.131
     8   8 O        0.856    -0.119    16.795     5.495
     9   7 N        1.820    -0.141    24.828     7.383
    10   6 C        3.685    -0.032    21.347     6.615
    11   6 C        1.769     0.313    24.198     7.953
    12   8 O        0.856    -0.258    19.033     5.849
    13   7 N        1.824    -0.211    26.431     7.618
    14   6 C        3.700    -0.042    21.488     6.629
    15   1 H        0.924     0.102     1.769     2.080
    16   1 H        0.925     0.103     1.762     2.076
    17   1 H        0.924     0.101     1.778     2.085
    18   1 H        0.926     0.114     1.666     2.018
    19   1 H        0.924     0.093     1.846     2.125
    20   1 H        0.924     0.088     1.896     2.153
    21   1 H        0.924     0.088     1.895     2.153
    22   1 H        0.924     0.066     2.133     2.284
    23   1 H        0.924     0.064     2.156     2.296
    24   1 H        0.925     0.103     1.757     2.073
    25   1 H        0.860     0.219     1.013     1.577

Wiberg/Mayer (AO) data.
largest (>0.10) Wiberg bond orders for each atom

     #   Z sym  total        # sym  WBO       # sym  WBO       # sym  WBO
 ---------------------------------------------------------------------------
     1   6 C    3.934 --     2 N    0.994    16 H    0.973    17 H    0.964
                            15 H    0.961
     2   7 N    3.619 --     3 C    1.402     6 C    1.042     1 C    0.994
                             4 N    0.111
     3   6 C    3.839 --     2 N    1.402     4 N    1.316    18 H    0.949
     4   7 N    3.536 --     3 C    1.316     5 C    1.033    25 H    0.923
                             2 N    0.111
     5   6 C    3.927 --    13 N    1.708     6 C    1.041     4 N    1.033
     6   6 C    3.872 --     7 C    1.478     2 N    1.042     5 C    1.041
                             8 O    0.151
     7   6 C    3.700 --     8 O    2.081     6 C    1.478
     8   8 O    2.355 --     7 C    2.081     6 C    0.151
     9   7 N    3.361 --    11 C    1.986    10 C    1.026    12 O    0.348
    10   6 C    3.923 --     9 N    1.026    19 H    0.960    20 H    0.950
                            21 H    0.950
    11   6 C    3.936 --     9 N    1.986    12 O    1.880
    12   8 O    2.272 --    11 C    1.880     9 N    0.348
    13   7 N    3.016 --     5 C    1.708    14 C    1.029
    14   6 C    3.940 --    13 N    1.029    24 H    0.960    23 H    0.953
                            22 H    0.952
    15   1 H    0.986 --     1 C    0.961
    16   1 H    0.989 --     1 C    0.973
    17   1 H    0.987 --     1 C    0.964
    18   1 H    0.984 --     3 C    0.949
    19   1 H    0.980 --    10 C    0.960
    20   1 H    0.975 --    10 C    0.950
    21   1 H    0.975 --    10 C    0.950
    22   1 H    0.979 --    14 C    0.952
    23   1 H    0.979 --    14 C    0.953
    24   1 H    0.976 --    14 C    0.960
    25   1 H    0.950 --     4 N    0.923
 ---------------------------------------------------------------------------

molecular dipole:
                 x           y           z       tot (Debye)
 q only:        3.018      -0.207      -0.085
   full:        3.283      -0.626      -0.132       8.501

           -------------------------------------------------
          | TOTAL ENERGY              -42.145008785267 Eh   |
          | GRADIENT NORM               0.002412059284 Eh/α |
          | HOMO-LUMO GAP               2.287233693374 eV   |
           -------------------------------------------------

 * finished run on 2024/06/05 at 20:00:16.479
