   * xtb version 6.6.1 (8d0f1dd) compiled by 'conda@1efc2f54142f' on 2023-08-01
          program call               : xtb struc.xyz --opt loose --input .xc1 --gfn2

   ID    Z sym.   atoms
    1    6 C      1, 3, 5-7, 10, 11, 14
    2    7 N      2, 4, 9, 13
    3    8 O      8, 12
    4    1 H      15-25
constraining bond 5 7 to    5.0000000 Å, actual value:    2.4816200 Å

          :  Hamiltonian                  GFN2-xTB          :
 * total energy  :   -30.9235895 Eh     change       -0.6650680E-10 Eh
 * total energy  :   -35.0067687 Eh     change       -0.4083179E+01 Eh
 * total energy  :   -38.0466905 Eh     change       -0.3039922E+01 Eh
 * total energy  :   -40.1577956 Eh     change       -0.2111105E+01 Eh
 * total energy  :   -41.3252014 Eh     change       -0.1167406E+01 Eh
 * total energy  :   -41.5912444 Eh     change       -0.2660431E+00 Eh
 * total energy  :   -41.6097871 Eh     change       -0.1854264E-01 Eh
 * total energy  :   -41.6353882 Eh     change       -0.2560113E-01 Eh
 * total energy  :   -41.6638310 Eh     change       -0.2844275E-01 Eh
 * total energy  :   -41.6953982 Eh     change       -0.3156723E-01 Eh
 * total energy  :   -42.0341392 Eh     change       -0.1057563E-03 Eh
 * total energy  :   -42.0342462 Eh     change       -0.1070033E-03 Eh
 * total energy  :   -42.0344077 Eh     change       -0.1615206E-03 Eh
 * total energy  :   -42.0344416 Eh     change       -0.3393120E-04 Eh
 * total energy  :   -42.0345660 Eh     change       -0.1244262E-03 Eh
 * total energy  :   -42.0346355 Eh     change       -0.6944437E-04 Eh
 * total energy  :   -42.0347204 Eh     change       -0.8487339E-04 Eh
 * total energy  :   -42.0347723 Eh     change       -0.5190462E-04 Eh
 * total energy  :   -42.0348210 Eh     change       -0.4869336E-04 Eh
   *** GEOMETRY OPTIMIZATION CONVERGED AFTER 79 ITERATIONS ***

 final structure:
================
25
 xtb: 6.6.1 (8d0f1dd)
C            2.59437668905942        1.02261734051213        0.47697422292284
N            1.70888981855302       -0.03580107497084        0.00730218078669
C            2.32181780997320       -1.18760581396371       -0.27008703494866
N            1.87028945947267       -2.45076157254957       -0.53869611615142
C            0.68681241017703       -3.04820271911611       -0.25458927463486
C            0.37492414139872        0.28725857951481       -0.10730103042839
C           -0.14301837223948        1.85856393635025       -0.16095343611837
O            0.65101506821558        2.74930641407833       -0.39125965237660
N           -1.42361711306734        1.88876172470539        0.03887720148317
C           -2.30603222081057        2.95350763984438       -0.10916167014790
C           -0.60697501466141       -0.73522814388234       -0.32443899162643
O           -1.74114836366705       -0.53497247592620       -0.66290580889972
N           -0.33697867347562       -2.27642011590661       -0.01401756733572
C           -1.57122392121701       -2.89601924638568        0.42213119067841
H            2.45369566524099        1.15762776347399        1.55136175847148
H            3.63734944983493        0.78861074626751        0.27937285734746
H            2.33817815076563        1.96487269185417       -0.01451195373529
H            3.40225955164755       -1.13294022933520       -0.23108248497047
H           -1.80377733947722        3.88428365894460       -0.40801175976338
H           -3.04977958239588        2.69183531080536       -0.87187796053204
H           -2.84583828514991        3.10634300874833        0.83153750449991
H           -1.39825932489960       -3.95824571472973        0.57923491560436
H           -2.34907185403842       -2.75337265507768       -0.33011032946164
H           -1.90968120348171       -2.43239508473778        1.34928455056240
H            2.60622456834382       -3.09338542691705       -0.81589969332712

          :  Hamiltonian                  GFN2-xTB          :
         :: total energy             -42.034820958829 Eh    ::
         :: gradient norm              0.003387191424 Eh/a0 ::
         :: HOMO-LUMO gap              0.407860702159 eV    ::
         :: SCC energy               -42.527237163212 Eh    ::
         :: -> dispersion             -0.021281921337 Eh    ::
         :: repulsion energy           0.491370462922 Eh    ::

    * Orbital Energies and Occupations

         #    Occupation            Energy/Eh            Energy/eV
      -------------------------------------------------------------
         1        2.0000           -0.8760105             -23.8375
       ...           ...                  ...                  ...
        25        1.9998           -0.6601241             -17.9629
        26        1.9998           -0.6524563             -17.7542
        27        1.9994           -0.6398008             -17.4099
        28        1.9991           -0.6322654             -17.2048
        29        1.9987           -0.6262488             -17.0411
        30        1.9978           -0.6181251             -16.8200
        31        1.9975           -0.6155534             -16.7501
        32        1.9927           -0.5988928             -16.2967
        33        1.9840           -0.5863555             -15.9555
        34        1.9186           -0.5600481             -15.2397
        35        1.7883           -0.5437902             -14.7973
        36        1.6681           -0.5355679             -14.5735
        37        1.4938           -0.5271382             -14.3442 (HOMO)
        38        1.0677           -0.5121496             -13.9363 (LUMO)
        39        0.0939           -0.4623348             -12.5808
        40        0.0007           -0.3828703             -10.4184
        41        0.0003           -0.3682592             -10.0208
        42        0.0000           -0.3134428              -8.5292
        43        0.0000           -0.2725593              -7.4167
        44                         -0.2042495              -5.5579
        45                         -0.1805543              -4.9131
        46                         -0.1314773              -3.5777
        47                         -0.0833483              -2.2680
        48                         -0.0566017              -1.5402
       ...                                ...                  ...
        67                          0.5621035              15.2956
      -------------------------------------------------------------
                  HL-Gap            0.0149886 Eh            0.4079 eV

     #   Z          covCN         q      C6AA      α(0)
     1   6 C        3.726    -0.100    22.523     6.776
     2   7 N        2.730     0.088    19.717     6.595
     3   6 C        2.791     0.059    26.654     8.457
     4   7 N        2.696    -0.049    22.190     6.996
     5   6 C        1.853    -0.010    31.402     9.052
     6   6 C        2.867    -0.032    28.787     8.795
     7   6 C        2.726     0.292    22.038     7.685
     8   8 O        0.857    -0.355    20.794     6.114
     9   7 N        1.826    -0.141    24.836     7.385
    10   6 C        3.692    -0.035    21.391     6.618
    11   6 C        2.729     0.249    22.809     7.819
    12   8 O        0.858    -0.276    19.351     5.898
    13   7 N        2.720    -0.009    21.437     6.877
    14   6 C        3.713    -0.068    21.943     6.693
    15   1 H        0.924     0.108     1.710     2.045
    16   1 H        0.925     0.094     1.842     2.122
    17   1 H        0.924     0.156     1.354     1.820
    18   1 H        0.925     0.107     1.724     2.053
    19   1 H        0.923     0.117     1.638     2.001
    20   1 H        0.924     0.129     1.540     1.940
    21   1 H        0.924     0.121     1.608     1.983
    22   1 H        0.925     0.104     1.753     2.070
    23   1 H        0.924     0.119     1.622     1.992
    24   1 H        0.924     0.096     1.821     2.110
    25   1 H        0.860     0.235     0.943     1.521

Wiberg/Mayer (AO) data.
largest (>0.10) Wiberg bond orders for each atom

     #   Z sym  total        # sym  WBO       # sym  WBO       # sym  WBO
 ---------------------------------------------------------------------------
     1   6 C    3.892 --     2 N    0.974    16 H    0.971    15 H    0.953
                            17 H    0.920
     2   7 N    3.678 --     3 C    1.372     6 C    1.191     1 C    0.974
     3   6 C    3.772 --     2 N    1.372     4 N    1.224    18 H    0.944
     4   7 N    3.508 --     3 C    1.224     5 C    1.224    25 H    0.914
     5   6 C    3.003 --    13 N    1.572     4 N    1.224
     6   6 C    3.539 --    11 C    1.200     2 N    1.191     7 C    0.838
     7   6 C    3.911 --     8 O    1.596     9 N    1.397     6 C    0.838
     8   8 O    1.875 --     7 C    1.596     9 N    0.123
     9   7 N    2.674 --     7 C    1.397    10 C    1.101     8 O    0.123
    10   6 C    3.851 --     9 N    1.101    21 H    0.913    19 H    0.901
                            20 H    0.899
    11   6 C    3.864 --    12 O    1.787     6 C    1.200    13 N    0.761
    12   8 O    2.065 --    11 C    1.787
    13   7 N    3.511 --     5 C    1.572    14 C    0.994    11 C    0.761
    14   6 C    3.912 --    13 N    0.994    22 H    0.969    24 H    0.956
                            23 H    0.942
    15   1 H    0.982 --     1 C    0.953
    16   1 H    0.989 --     1 C    0.971
    17   1 H    0.970 --     1 C    0.920
    18   1 H    0.985 --     3 C    0.944
    19   1 H    0.903 --    10 C    0.901
    20   1 H    0.920 --    10 C    0.899
    21   1 H    0.933 --    10 C    0.913
    22   1 H    0.986 --    14 C    0.969
    23   1 H    0.971 --    14 C    0.942
    24   1 H    0.980 --    14 C    0.956
    25   1 H    0.942 --     4 N    0.914
 ---------------------------------------------------------------------------

molecular dipole:
                 x           y           z       tot (Debye)
 q only:        1.433      -1.496       0.375
   full:        1.749      -1.416       0.316       5.777

           -------------------------------------------------
          | TOTAL ENERGY              -42.034820958829 Eh   |
          | GRADIENT NORM               0.003387191424 Eh/α |
          | HOMO-LUMO GAP               0.407860702159 eV   |
           -------------------------------------------------

 * finished run on 2024/06/05 at 20:00:10.347
