   * xtb version 6.6.1 (8d0f1dd) compiled by 'conda@1efc2f54142f' on 2023-08-01
          program call               : xtb struc.xyz --opt loose --input .xc1 --gfn2

   ID    Z sym.   atoms
    1    6 C      1, 3, 5-7, 10, 11, 14
    2    7 N      2, 4, 9, 13
    3    8 O      8, 12
    4    1 H      15-25
constraining bond 12 14 to    5.7600000 Å, actual value:    2.7358220 Å

          :  Hamiltonian                  GFN2-xTB          :
 * total energy  :   -25.9301940 Eh     change       -0.2401990E-09 Eh
 * total energy  :   -31.4455483 Eh     change       -0.5515354E+01 Eh
 * total energy  :   -36.0293410 Eh     change       -0.4583793E+01 Eh
 * total energy  :   -39.1739651 Eh     change       -0.3144624E+01 Eh
 * total energy  :   -40.9766547 Eh     change       -0.1802690E+01 Eh
 * total energy  :   -41.6316448 Eh     change       -0.6549901E+00 Eh
 * total energy  :   -41.7148871 Eh     change       -0.8324236E-01 Eh
 * total energy  :   -41.7221801 Eh     change       -0.7292936E-02 Eh
 * total energy  :   -41.7431642 Eh     change       -0.2098415E-01 Eh
 * total energy  :   -41.7479595 Eh     change       -0.4795324E-02 Eh
 * total energy  :   -42.1965302 Eh     change       -0.1609488E-02 Eh
 * total energy  :   -42.1973257 Eh     change       -0.7954894E-03 Eh
 * total energy  :   -42.1990875 Eh     change       -0.1761803E-02 Eh
 * total energy  :   -42.1998587 Eh     change       -0.7711428E-03 Eh
 * total energy  :   -42.2007776 Eh     change       -0.9189149E-03 Eh
 * total energy  :   -42.2011032 Eh     change       -0.3256512E-03 Eh
 * total energy  :   -42.2012162 Eh     change       -0.1129422E-03 Eh
 * total energy  :   -42.2012786 Eh     change       -0.6243967E-04 Eh
 * total energy  :   -42.2013093 Eh     change       -0.3069500E-04 Eh
   *** GEOMETRY OPTIMIZATION CONVERGED AFTER 66 ITERATIONS ***

 final structure:
================
25
 xtb: 6.6.1 (8d0f1dd)
C            3.18246436850014        1.16629052606557        0.00569888989744
N            2.06618214598860        0.26821183391874        0.01033113998695
C            2.09933309868660       -1.09074099973903        0.02265934627440
N            0.90646383829845       -1.63052311346506        0.03383064998278
C            0.01460962309831       -0.61090570543837        0.03028605159418
C            0.74993929550583        0.60986569886357        0.01560824003628
C            0.07006742438963        1.87718770392830       -0.00573480416802
O            0.61863503654811        2.96599001251106       -0.03151207605130
N           -1.30917827630929        1.73440837307511        0.00342263551624
C           -2.12474432777989        2.92312370688743       -0.01695190324698
C           -2.01610623723398        0.49173696850989        0.02801120904399
O           -3.22401873235662        0.52991366949607        0.03949065363247
N           -1.29514617191212       -0.64726919281669        0.03593327303470
C           -0.59624571455564       -4.59538070264513       -0.02229899146975
H            3.74197575653843        1.08412837255621        0.94140452839418
H            3.85659728208276        0.92985998814489       -0.82027196866016
H            2.81785674506416        2.18948344059898       -0.10160778786212
H            3.00942761283561       -1.66066564642256        0.02201183973226
H           -1.46996880833078        3.79601099787410       -0.01115519696896
H           -2.75769802101308        2.93079692198629       -0.90952605562409
H           -2.78860532738737        2.93827310093188        0.85253203818362
H           -0.24782926486474       -5.21132403895279        0.80284116670981
H           -0.27263136495241       -5.03501694059245       -0.96196341732634
H           -1.68306612288400       -4.54777918185366       -0.00310852409986
H           -0.18788234386445       -3.58743725182383        0.07124068135499

          :  Hamiltonian                  GFN2-xTB          :
         :: total energy             -42.201309301905 Eh    ::
         :: gradient norm              0.002638142932 Eh/a0 ::
         :: HOMO-LUMO gap              0.325399251758 eV    ::
         :: SCC energy               -42.721897141280 Eh    ::
         :: -> dispersion             -0.020417652040 Eh    ::
         :: repulsion energy           0.520572002696 Eh    ::

    * Orbital Energies and Occupations

         #    Occupation            Energy/Eh            Energy/eV
      -------------------------------------------------------------
         1        2.0000           -0.8974922             -24.4220
       ...           ...                  ...                  ...
        25        1.9898           -0.6582738             -17.9125
        26        1.9867           -0.6519093             -17.7394
        27        1.9686           -0.6312234             -17.1765
        28        1.9678           -0.6306232             -17.1601
        29        1.9387           -0.6149835             -16.7346
        30        1.9344           -0.6133183             -16.6892
        31        1.9017           -0.6033011             -16.4167
        32        1.9009           -0.6030911             -16.4109
        33        1.8983           -0.6024490             -16.3935
        34        1.8515           -0.5928598             -16.1325
        35        1.8028           -0.5854866             -15.9319
        36        1.7990           -0.5849834             -15.9182
        37        1.6107           -0.5666580             -15.4195 (HOMO)
        38        1.4287           -0.5546998             -15.0942 (LUMO)
        39        0.0331           -0.4359127             -11.8618
        40        0.0053           -0.3921789             -10.6717
        41        0.0025           -0.3746015             -10.1934
        42        0.0001           -0.2906908              -7.9101
        43        0.0000           -0.1925146              -5.2386
        44        0.0000           -0.1586453              -4.3170
        45                         -0.0857822              -2.3343
        46                         -0.0732522              -1.9933
        47                         -0.0345426              -0.9400
        48                         -0.0296424              -0.8066
       ...                                ...                  ...
        67                          0.5143629              13.9965
      -------------------------------------------------------------
                  HL-Gap            0.0119582 Eh            0.3254 eV

     #   Z          covCN         q      C6AA      α(0)
     1   6 C        3.689    -0.081    22.252     6.751
     2   7 N        2.814     0.057    20.243     6.682
     3   6 C        3.155     0.100    25.517     8.260
     4   7 N        1.900    -0.165    25.370     7.467
     5   6 C        3.134     0.168    24.189     8.051
     6   6 C        3.120     0.003    27.777     8.632
     7   6 C        2.764     0.273    22.381     7.748
     8   8 O        0.858    -0.327    20.266     6.036
     9   7 N        2.746    -0.062    22.434     7.035
    10   6 C        3.702    -0.058    21.783     6.674
    11   6 C        2.737     0.338    21.263     7.550
    12   8 O        0.860    -0.273    19.301     5.890
    13   7 N        1.834    -0.170    25.475     7.480
    14   6 C        3.699    -0.167    23.936     6.997
    15   1 H        0.924     0.119     1.621     1.991
    16   1 H        0.924     0.117     1.634     1.999
    17   1 H        0.924     0.134     1.504     1.918
    18   1 H        0.926     0.120     1.613     1.986
    19   1 H        0.924     0.134     1.506     1.919
    20   1 H        0.924     0.131     1.525     1.931
    21   1 H        0.924     0.132     1.519     1.927
    22   1 H        0.925     0.117     1.638     2.001
    23   1 H        0.925     0.116     1.649     2.008
    24   1 H        0.925     0.121     1.605     1.981
    25   1 H        0.924     0.122     1.597     1.977

Wiberg/Mayer (AO) data.
largest (>0.10) Wiberg bond orders for each atom

     #   Z sym  total        # sym  WBO       # sym  WBO       # sym  WBO
 ---------------------------------------------------------------------------
     1   6 C    3.872 --     2 N    0.999    17 H    0.948    16 H    0.943
                            15 H    0.938
     2   7 N    3.593 --     3 C    1.241     6 C    1.214     1 C    0.999
     3   6 C    3.825 --     4 N    1.495     2 N    1.241    18 H    0.949
     4   7 N    2.915 --     3 C    1.495     5 C    1.223
     5   6 C    3.875 --    13 N    1.359     4 N    1.223     6 C    1.158
     6   6 C    3.665 --     2 N    1.214     5 C    1.158     7 C    1.088
     7   6 C    3.918 --     8 O    1.614     9 N    1.125     6 C    1.088
     8   8 O    1.855 --     7 C    1.614     9 N    0.114
     9   7 N    3.389 --     7 C    1.125    11 C    1.005    10 C    0.998
                             8 O    0.114
    10   6 C    3.815 --     9 N    0.998    19 H    0.939    21 H    0.921
                            20 H    0.920
    11   6 C    3.921 --    12 O    1.651    13 N    1.192     9 N    1.005
    12   8 O    1.867 --    11 C    1.651
    13   7 N    2.754 --     5 C    1.359    11 C    1.192
    14   6 C    3.661 --    23 H    0.921    22 H    0.920    24 H    0.916
                            25 H    0.900
    15   1 H    0.961 --     1 C    0.938
    16   1 H    0.964 --     1 C    0.943
    17   1 H    0.967 --     1 C    0.948
    18   1 H    0.980 --     3 C    0.949
    19   1 H    0.957 --    10 C    0.939
    20   1 H    0.936 --    10 C    0.920
    21   1 H    0.937 --    10 C    0.921
    22   1 H    0.922 --    14 C    0.920
    23   1 H    0.922 --    14 C    0.921
    24   1 H    0.918 --    14 C    0.916
    25   1 H    0.919 --    14 C    0.900
 ---------------------------------------------------------------------------

molecular dipole:
                 x           y           z       tot (Debye)
 q only:        1.678      -0.790      -0.009
   full:        2.038      -0.552      -0.011       5.368

           -------------------------------------------------
          | TOTAL ENERGY              -42.201309301905 Eh   |
          | GRADIENT NORM               0.002638142932 Eh/α |
          | HOMO-LUMO GAP               0.325399251758 eV   |
           -------------------------------------------------

 * finished run on 2024/06/05 at 19:58:55.398
