   * xtb version 6.6.1 (8d0f1dd) compiled by 'conda@1efc2f54142f' on 2023-08-01
          program call               : xtb xtbopt.xyz --opt crude --input .xc2 --gfn2

   ID    Z sym.   atoms
    1    6 C      1, 3, 5-7, 10, 11, 14
    2    7 N      2, 4, 9, 13
    3    8 O      8, 12
    4    1 H      15-25
########################################################################
[WARNING] Please study the warnings concerning your input carefully
-1- readin_getIntValue: could not parse ''
########################################################################

          :  Hamiltonian                  GFN2-xTB          :
 * total energy  :   -42.0768223 Eh     change       -0.5316281E-10 Eh
   *** GEOMETRY OPTIMIZATION CONVERGED AFTER 1 ITERATIONS ***

 final structure:
================
25
 xtb: 6.6.1 (8d0f1dd)
C            3.12514174867548        0.11601225619820       -0.97556608520380
N            2.35511118897827        0.35249385350410        0.23451126820375
C            2.89015186807180        0.85697373397828        1.25672448471061
N            1.08313363686079       -2.26478769814108       -0.27876006382685
C            0.42606855067355       -1.17279587444038       -0.13830557601328
C            0.95785341924545        0.11269224703882        0.18947483910478
C            0.10478369285138        1.19468171999038        0.62211148328221
O            0.54313442783520        2.21599436059421        1.11999945668244
N           -1.24535425354251        0.99337360988188        0.40291696324375
C           -2.16729699465462        2.07173581773579        0.69454733865439
C           -1.80605261142149       -0.18397799841512       -0.07345261314730
O           -2.99195089434992       -0.27677836756502       -0.25581339718621
N           -0.94114151840709       -1.24232491531063       -0.29274184683708
C           -1.50822038108034       -2.51735720697653       -0.67117294181665
H            4.18429705188785        0.08046403212908       -0.72975913287767
H            2.81666754025115       -0.80516034379062       -1.46496836967555
H            2.95326410194080        0.94314365939436       -1.66758528004809
H            2.45119622814224        1.17409295180664        2.18096144149152
H           -1.61268854856215        2.88623082157595        1.15690089754850
H           -2.64226332580150        2.41466240180060       -0.22788717556332
H           -2.95534360353480        1.71475572848769        1.36013935811912
H           -1.21511244231861       -3.27912008362098        0.05359339350868
H           -1.12653783277355       -2.81972806928713       -1.64733997191825
H           -2.59165838684703       -2.41999383224600       -0.70581839992205
H            2.07324885197957       -2.32704426272403       -0.11153845261294

          :  Hamiltonian                  GFN2-xTB          :
         :: total energy             -42.076822297021 Eh    ::
         :: gradient norm              0.005210246743 Eh/a0 ::
         :: HOMO-LUMO gap              0.483023146111 eV    ::
         :: SCC energy               -42.597545576633 Eh    ::
         :: -> dispersion             -0.022611761115 Eh    ::
         :: repulsion energy           0.520528357094 Eh    ::

    * Orbital Energies and Occupations

         #    Occupation            Energy/Eh            Energy/eV
      -------------------------------------------------------------
         1        2.0000           -0.8964897             -24.3947
       ...           ...                  ...                  ...
        25        1.9996           -0.6778387             -18.4449
        26        1.9986           -0.6563808             -17.8610
        27        1.9982           -0.6519863             -17.7414
        28        1.9975           -0.6469253             -17.6037
        29        1.9953           -0.6372340             -17.3400
        30        1.9911           -0.6270101             -17.0618
        31        1.9882           -0.6225594             -16.9407
        32        1.9619           -0.6037681             -16.4294
        33        1.9338           -0.5947957             -16.1852
        34        1.9030           -0.5884989             -16.0139
        35        1.8106           -0.5771222             -15.7043
        36        1.7221           -0.5702525             -15.5174
        37        1.5845           -0.5625663             -15.3082 (HOMO)
        38        1.1083           -0.5448155             -14.8252 (LUMO)
        39        0.0077           -0.4534694             -12.3395
        40        0.0004           -0.4069334             -11.0732
        41        0.0002           -0.3958901             -10.7727
        42        0.0000           -0.3108544              -8.4588
        43                         -0.2152374              -5.8569
        44                         -0.1729791              -4.7070
        45                         -0.1396669              -3.8005
        46                         -0.0991221              -2.6972
        47                         -0.0861701              -2.3448
        48                         -0.0320148              -0.8712
       ...                                ...                  ...
        67                          0.5167400              14.0612
      -------------------------------------------------------------
                  HL-Gap            0.0177508 Eh            0.4830 eV

     #   Z          covCN         q      C6AA      α(0)
     1   6 C        3.715    -0.091    22.364     6.757
     2   7 N        2.731     0.145    18.796     6.439
     3   6 C        1.903    -0.014    31.493     9.063
     4   7 N        1.793    -0.268    27.792     7.809
     5   6 C        2.828     0.165    24.431     8.099
     6   6 C        2.936    -0.039    28.965     8.826
     7   6 C        2.769     0.267    22.497     7.768
     8   8 O        0.859    -0.353    20.756     6.108
     9   7 N        2.743    -0.062    22.446     7.036
    10   6 C        3.705    -0.061    21.831     6.680
    11   6 C        2.717     0.319    21.581     7.605
    12   8 O        0.860    -0.329    20.318     6.044
    13   7 N        2.759    -0.033    21.888     6.948
    14   6 C        3.706    -0.074    22.061     6.714
    15   1 H        0.925     0.123     1.592     1.973
    16   1 H        0.925     0.107     1.724     2.053
    17   1 H        0.924     0.119     1.619     1.990
    18   1 H        0.926     0.160     1.324     1.799
    19   1 H        0.925     0.123     1.591     1.973
    20   1 H        0.924     0.118     1.631     1.997
    21   1 H        0.924     0.119     1.619     1.990
    22   1 H        0.924     0.120     1.610     1.984
    23   1 H        0.924     0.118     1.632     1.998
    24   1 H        0.925     0.128     1.550     1.947
    25   1 H        0.860     0.194     1.137     1.671

Wiberg/Mayer (AO) data.
largest (>0.10) Wiberg bond orders for each atom

     #   Z sym  total        # sym  WBO       # sym  WBO       # sym  WBO
 ---------------------------------------------------------------------------
     1   6 C    3.888 --    15 H    0.968    16 H    0.960     2 N    0.955
                            17 H    0.947
     2   7 N    3.737 --     3 C    1.744     6 C    0.997     1 C    0.955
     3   6 C    2.873 --     2 N    1.744    18 H    0.912
     4   7 N    2.694 --     5 C    1.576    25 H    0.926
     5   6 C    3.953 --     4 N    1.576     6 C    1.153    13 N    1.124
     6   6 C    3.487 --     5 C    1.153     7 C    1.106     2 N    0.997
     7   6 C    3.939 --     8 O    1.622     9 N    1.110     6 C    1.106
     8   8 O    1.912 --     7 C    1.622     9 N    0.113
     9   7 N    3.470 --     7 C    1.110    11 C    1.089    10 C    0.982
                             8 O    0.113    12 O    0.107
    10   6 C    3.863 --     9 N    0.982    19 H    0.960    21 H    0.941
                            20 H    0.937
    11   6 C    3.956 --    12 O    1.678    13 N    1.104     9 N    1.089
    12   8 O    1.977 --    11 C    1.678    13 N    0.111     9 N    0.107
    13   7 N    3.475 --     5 C    1.124    11 C    1.104    14 C    0.984
                            12 O    0.111
    14   6 C    3.863 --    13 N    0.984    24 H    0.957    23 H    0.940
                            22 H    0.939
    15   1 H    0.982 --     1 C    0.968
    16   1 H    0.986 --     1 C    0.960
    17   1 H    0.982 --     1 C    0.947
    18   1 H    0.938 --     3 C    0.912
    19   1 H    0.977 --    10 C    0.960
    20   1 H    0.954 --    10 C    0.937
    21   1 H    0.957 --    10 C    0.941
    22   1 H    0.956 --    14 C    0.939
    23   1 H    0.957 --    14 C    0.940
    24   1 H    0.976 --    14 C    0.957
    25   1 H    0.952 --     4 N    0.926
 ---------------------------------------------------------------------------

molecular dipole:
                 x           y           z       tot (Debye)
 q only:        1.599      -0.709      -0.274
   full:        1.739      -0.559      -0.152       4.659

           -------------------------------------------------
          | TOTAL ENERGY              -42.076822297021 Eh   |
          | GRADIENT NORM               0.005210246743 Eh/α |
          | HOMO-LUMO GAP               0.483023146111 eV   |
           -------------------------------------------------

 * finished run on 2024/06/05 at 20:00:09.673
