   * xtb version 6.6.1 (8d0f1dd) compiled by 'conda@1efc2f54142f' on 2023-08-01
          program call               : xtb struc.xyz --opt loose --input .xc1 --gfn2

   ID    Z sym.   atoms
    1    6 C      1, 3, 5-7, 10, 11, 14
    2    7 N      2, 4, 9, 13
    3    8 O      8, 12
    4    1 H      15-25
constraining bond 6 8 to    4.7600000 Å, actual value:    2.3687222 Å

          :  Hamiltonian                  GFN2-xTB          :
 * total energy  :   -32.0378117 Eh     change       -0.6650680E-10 Eh
 * total energy  :   -35.8610468 Eh     change       -0.3823235E+01 Eh
 * total energy  :   -38.7511717 Eh     change       -0.2890125E+01 Eh
 * total energy  :   -40.5151771 Eh     change       -0.1764005E+01 Eh
 * total energy  :   -41.3218034 Eh     change       -0.8066264E+00 Eh
 * total energy  :   -41.4808761 Eh     change       -0.1590727E+00 Eh
 * total energy  :   -41.5344848 Eh     change       -0.5360869E-01 Eh
 * total energy  :   -41.5904067 Eh     change       -0.5592194E-01 Eh
 * total energy  :   -41.6354781 Eh     change       -0.4507140E-01 Eh
 * total energy  :   -41.6636301 Eh     change       -0.2815194E-01 Eh
 * total energy  :   -42.1570779 Eh     change       -0.3264271E-03 Eh
 * total energy  :   -42.1573127 Eh     change       -0.2348257E-03 Eh
 * total energy  :   -42.1575558 Eh     change       -0.2430136E-03 Eh
 * total energy  :   -42.1577269 Eh     change       -0.1711262E-03 Eh
 * total energy  :   -42.1578805 Eh     change       -0.1536283E-03 Eh
 * total energy  :   -42.1580087 Eh     change       -0.1281904E-03 Eh
 * total energy  :   -42.1580601 Eh     change       -0.5144303E-04 Eh
 * total energy  :   -42.1581166 Eh     change       -0.5643234E-04 Eh
 * total energy  :   -42.1581425 Eh     change       -0.2594614E-04 Eh
   *** GEOMETRY OPTIMIZATION CONVERGED AFTER 75 ITERATIONS ***

 final structure:
================
25
 xtb: 6.6.1 (8d0f1dd)
C            3.42677854798859        0.85803768560567        0.31896051494980
N            2.41434698949672       -0.14646069151485        0.14780959628404
C            2.59065815199656       -1.45947009183943        0.02924038981506
N            1.39004597736774       -2.08023057069087       -0.10290074957891
C            0.42271152481821       -1.12649105168568       -0.06441800203612
C            1.06478485197156        0.10607092168510        0.09810856117606
C            0.31553054562273        1.30906726579136        0.14319083790375
O           -2.91579753274836        2.61749865665999       -0.55542814455573
N           -1.01601017218001        1.15063218640596        0.05662385600459
C           -1.88041713997857        2.35976801622643        0.31823001488147
C           -1.71285070971981       -0.06086967976868       -0.05709600593401
O           -2.90473419803744       -0.13907968489959       -0.07024158042127
N           -0.91148063472307       -1.22993807685230       -0.15224953360324
C           -1.57605855962965       -2.51132270102012       -0.29352710150337
H            3.87233894516904        0.78758176411909        1.31256005111336
H            4.21232728294066        0.73921883239834       -0.42653724646452
H            2.95694901097268        1.83332568504734        0.20867053487424
H            3.53610746519671       -1.96332610540767        0.03130489232907
H           -2.59633471615337        2.95702138318098       -1.40168316922195
H           -2.35734972948489        2.18191562465697        1.28957215081061
H           -1.16187579170916        3.18614337197374        0.39667542648929
H           -1.37554211092693       -3.14326666776552        0.57259350605697
H           -1.24968746489340       -3.01009975880674       -1.20649846911551
H           -2.64727050662169       -2.32040840137278       -0.35275546203283
H            1.26326148737618       -3.07707937052450       -0.20903325031546

          :  Hamiltonian                  GFN2-xTB          :
         :: total energy             -42.158142524335 Eh    ::
         :: gradient norm              0.002056706574 Eh/a0 ::
         :: HOMO-LUMO gap              1.700869018651 eV    ::
         :: SCC energy               -42.659355210881 Eh    ::
         :: -> dispersion             -0.022078863331 Eh    ::
         :: repulsion energy           0.501008870148 Eh    ::

    * Orbital Energies and Occupations

         #    Occupation            Energy/Eh            Energy/eV
      -------------------------------------------------------------
         1        2.0000           -0.9032792             -24.5795
       ...           ...                  ...                  ...
        25        2.0000           -0.6652320             -18.1019
        26        2.0000           -0.6593020             -17.9405
        27        2.0000           -0.6521884             -17.7469
        28        1.9999           -0.6329003             -17.2221
        29        1.9999           -0.6270290             -17.0623
        30        1.9998           -0.6211223             -16.9016
        31        1.9998           -0.6169519             -16.7881
        32        1.9994           -0.6024023             -16.3922
        33        1.9976           -0.5801259             -15.7860
        34        1.9974           -0.5789260             -15.7534
        35        1.9866           -0.5529840             -15.0475
        36        1.9857           -0.5518909             -15.0177
        37        1.7597           -0.5053119             -13.7502 (HOMO)
        38        0.2477           -0.4428062             -12.0494 (LUMO)
        39        0.0238           -0.4038277             -10.9887
        40        0.0028           -0.3699928             -10.0680
        41        0.0000           -0.2864869              -7.7957
        42        0.0000           -0.2096349              -5.7045
        43                         -0.1914178              -5.2087
        44                         -0.1424943              -3.8775
        45                         -0.1342558              -3.6533
        46                         -0.0744249              -2.0252
        47                         -0.0470927              -1.2815
        48                         -0.0439048              -1.1947
       ...                                ...                  ...
        67                          0.5474392              14.8966
      -------------------------------------------------------------
                  HL-Gap            0.0625058 Eh            1.7009 eV

     #   Z          covCN         q      C6AA      α(0)
     1   6 C        3.692    -0.090    22.402     6.773
     2   7 N        2.825     0.070    20.028     6.647
     3   6 C        3.056     0.049    26.847     8.497
     4   7 N        2.784    -0.064    22.478     7.041
     5   6 C        3.041     0.116    25.413     8.268
     6   6 C        3.117     0.021    27.381     8.571
     7   6 C        1.916    -0.120    34.445     9.478
     8   8 O        1.657    -0.374    20.343     6.089
     9   7 N        2.743    -0.044    22.095     6.981
    10   6 C        3.619     0.130    18.889     6.267
    11   6 C        2.715     0.318    21.601     7.608
    12   8 O        0.859    -0.339    20.508     6.072
    13   7 N        2.738    -0.053    22.271     7.009
    14   6 C        3.697    -0.070    22.009     6.711
    15   1 H        0.924     0.106     1.729     2.056
    16   1 H        0.925     0.103     1.754     2.071
    17   1 H        0.925     0.121     1.602     1.979
    18   1 H        0.926     0.117     1.641     2.003
    19   1 H        0.805     0.317     0.673     1.289
    20   1 H        0.924     0.100     1.787     2.090
    21   1 H        0.924     0.078     1.999     2.211
    22   1 H        0.924     0.080     1.976     2.198
    23   1 H        0.924     0.080     1.982     2.201
    24   1 H        0.925     0.125     1.575     1.962
    25   1 H        0.860     0.223     0.995     1.562

Wiberg/Mayer (AO) data.
largest (>0.10) Wiberg bond orders for each atom

     #   Z sym  total        # sym  WBO       # sym  WBO       # sym  WBO
 ---------------------------------------------------------------------------
     1   6 C    3.925 --     2 N    0.989    17 H    0.969    16 H    0.965
                            15 H    0.958
     2   7 N    3.644 --     3 C    1.382     6 C    1.140     1 C    0.989
     3   6 C    3.801 --     2 N    1.382     4 N    1.254    18 H    0.955
     4   7 N    3.583 --     3 C    1.254     5 C    1.202    25 H    0.920
     5   6 C    3.906 --     6 C    1.281    13 N    1.234     4 N    1.202
     6   6 C    3.897 --     5 C    1.281     7 C    1.231     2 N    1.140
     7   6 C    2.770 --     9 N    1.355     6 C    1.231
     8   8 O    2.036 --    10 C    1.068    19 H    0.884
     9   7 N    3.582 --     7 C    1.355    11 C    1.072    10 C    0.903
                            12 O    0.116
    10   6 C    3.918 --     8 O    1.068    21 H    0.957    20 H    0.949
                             9 N    0.903
    11   6 C    3.937 --    12 O    1.741     9 N    1.072    13 N    1.030
    12   8 O    2.077 --    11 C    1.741    13 N    0.133     9 N    0.116
    13   7 N    3.554 --     5 C    1.234    11 C    1.030    14 C    0.975
                            12 O    0.133
    14   6 C    3.927 --    13 N    0.975    23 H    0.971    22 H    0.970
                            24 H    0.964
    15   1 H    0.984 --     1 C    0.958
    16   1 H    0.986 --     1 C    0.965
    17   1 H    0.985 --     1 C    0.969
    18   1 H    0.985 --     3 C    0.955
    19   1 H    0.899 --     8 O    0.884
    20   1 H    0.985 --    10 C    0.949
    21   1 H    0.989 --    10 C    0.957
    22   1 H    0.991 --    14 C    0.970
    23   1 H    0.991 --    14 C    0.971
    24   1 H    0.984 --    14 C    0.964
    25   1 H    0.949 --     4 N    0.920
 ---------------------------------------------------------------------------

molecular dipole:
                 x           y           z       tot (Debye)
 q only:        3.088      -1.278      -0.100
   full:        3.415      -2.032      -0.252      10.121

           -------------------------------------------------
          | TOTAL ENERGY              -42.158142524335 Eh   |
          | GRADIENT NORM               0.002056706574 Eh/α |
          | HOMO-LUMO GAP               1.700869018651 eV   |
           -------------------------------------------------

 * finished run on 2024/06/05 at 19:57:57.615
