   * xtb version 6.6.1 (8d0f1dd) compiled by 'conda@1efc2f54142f' on 2023-08-01
          program call               : xtb struc.xyz --opt loose --input .xc1 --gfn2

   ID    Z sym.   atoms
    1    6 C      1, 3, 5-7, 10, 11, 14
    2    7 N      2, 4, 9, 13
    3    8 O      8, 12
    4    1 H      15-25
constraining bond 3 15 to    5.1400000 Å, actual value:    2.8727362 Å

          :  Hamiltonian                  GFN2-xTB          :
 * total energy  :   -23.8908560 Eh     change       -0.6650680E-10 Eh
 * total energy  :   -32.3354064 Eh     change       -0.8444550E+01 Eh
 * total energy  :   -37.7792297 Eh     change       -0.5443823E+01 Eh
 * total energy  :   -40.7651625 Eh     change       -0.2985933E+01 Eh
 * total energy  :   -41.7873730 Eh     change       -0.1022210E+01 Eh
 * total energy  :   -41.8908408 Eh     change       -0.1034679E+00 Eh
 * total energy  :   -41.9011711 Eh     change       -0.1033030E-01 Eh
 * total energy  :   -41.9301365 Eh     change       -0.2896541E-01 Eh
 * total energy  :   -41.9382441 Eh     change       -0.8107553E-02 Eh
 * total energy  :   -41.9510565 Eh     change       -0.1281240E-01 Eh
 * total energy  :   -42.0869984 Eh     change       -0.1645333E-03 Eh
 * total energy  :   -42.0871981 Eh     change       -0.1996553E-03 Eh
 * total energy  :   -42.0873832 Eh     change       -0.1851331E-03 Eh
 * total energy  :   -42.0872037 Eh     change        0.1795671E-03 Eh
 * total energy  :   -42.0875418 Eh     change       -0.3381761E-03 Eh
 * total energy  :   -42.0875919 Eh     change       -0.5005153E-04 Eh
 * total energy  :   -42.0875309 Eh     change        0.6101489E-04 Eh
 * total energy  :   -42.0877052 Eh     change       -0.1743030E-03 Eh
 * total energy  :   -42.0877385 Eh     change       -0.3334712E-04 Eh
   *** GEOMETRY OPTIMIZATION CONVERGED AFTER 55 ITERATIONS ***

 final structure:
================
25
 xtb: 6.6.1 (8d0f1dd)
C            3.11838811133362        1.55348418187011        0.08336032509491
N            2.37347276438605        0.36936297969808        0.04199975974140
C            2.49112766698357       -2.59947470374616       -0.31381943858046
N            1.24825085677333       -2.31494377793862       -0.17654395841976
C            0.51789608507469       -1.12407581020465       -0.05707669280810
C            1.10037451812012        0.17416602696874       -0.00690794677512
C            0.15243527144741        1.35274692908280        0.00187117752327
O            0.55839781740191        2.48954540782011       -0.04006161553695
N           -1.17930322557425        1.05625582739022        0.06733782105432
C           -2.13819744329754        2.15504566376488        0.09877649402617
C           -1.73280023653175       -0.20588004166028        0.09593316401619
O           -2.91762638704556       -0.38060035549615        0.17715467889662
N           -0.83614389365585       -1.28158530045073        0.00925549592349
C           -1.46012412057040       -2.59639801196575        0.00061637272384
H            2.58057873665558        2.49231750118182        0.36251284291839
H            3.94947566512099        1.39120108062218        0.77689169086991
H            3.55301706296279        1.71999114421437       -0.91094193439280
H            3.24209038628804       -1.81762052643688       -0.34242324295161
H           -1.58997670112083        3.09343999869515        0.11740649309825
H           -2.77636695125892        2.10926761317526       -0.78357853590131
H           -2.76702282440114        2.06241128390536        0.98376607791414
H           -1.15184478131794       -3.18924978129131        0.86422974818732
H           -1.26740821161343       -3.12492381905419       -0.93502622541193
H           -2.53734401406725       -2.43501485276530        0.07592471899982
H            0.62908536200621       -3.13123011577870       -0.15948565230968

          :  Hamiltonian                  GFN2-xTB          :
         :: total energy             -42.087738519398 Eh    ::
         :: gradient norm              0.003664050233 Eh/a0 ::
         :: HOMO-LUMO gap              0.206473182214 eV    ::
         :: SCC energy               -42.595157587546 Eh    ::
         :: -> dispersion             -0.022113923467 Eh    ::
         :: repulsion energy           0.507261950260 Eh    ::

    * Orbital Energies and Occupations

         #    Occupation            Energy/Eh            Energy/eV
      -------------------------------------------------------------
         1        2.0000           -0.8963914             -24.3921
       ...           ...                  ...                  ...
        25        1.9999           -0.6761448             -18.3988
        26        1.9998           -0.6680990             -18.1799
        27        1.9994           -0.6473953             -17.6165
        28        1.9993           -0.6434925             -17.5103
        29        1.9988           -0.6357937             -17.3008
        30        1.9986           -0.6325358             -17.2122
        31        1.9968           -0.6200116             -16.8714
        32        1.9940           -0.6099848             -16.5985
        33        1.9907           -0.6029559             -16.4073
        34        1.9834           -0.5937576             -16.1570
        35        1.9660           -0.5822824             -15.8447
        36        1.7403           -0.5481800             -14.9167
        37        1.2645           -0.5266386             -14.3306 (HOMO)
        38        1.0313           -0.5190508             -14.1241 (LUMO)
        39        0.0356           -0.4545660             -12.3694
        40        0.0015           -0.4042907             -11.0013
        41        0.0005           -0.3858421             -10.4993
        42        0.0000           -0.3029837              -8.2446
        43                         -0.2117231              -5.7613
        44                         -0.1751966              -4.7673
        45                         -0.1518602              -4.1323
        46                         -0.1011249              -2.7517
        47                         -0.0882745              -2.4021
        48                         -0.0569024              -1.5484
       ...                                ...                  ...
        67                          0.5386431              14.6572
      -------------------------------------------------------------
                  HL-Gap            0.0075877 Eh            0.2065 eV

     #   Z          covCN         q      C6AA      α(0)
     1   6 C        3.686    -0.052    21.712     6.671
     2   7 N        1.831    -0.118    24.334     7.310
     3   6 C        1.841    -0.061    32.810     9.253
     4   7 N        2.687     0.005    21.171     6.834
     5   6 C        2.833     0.089    26.006     8.357
     6   6 C        2.884     0.054    26.789     8.485
     7   6 C        2.769     0.268    22.472     7.764
     8   8 O        0.859    -0.323    20.207     6.027
     9   7 N        2.738    -0.065    22.501     7.045
    10   6 C        3.710    -0.063    21.850     6.680
    11   6 C        2.726     0.318    21.589     7.607
    12   8 O        0.860    -0.347    20.644     6.092
    13   7 N        2.743    -0.044    22.093     6.981
    14   6 C        3.702    -0.084    22.266     6.747
    15   1 H        0.920     0.135     1.496     1.913
    16   1 H        0.924     0.120     1.616     1.988
    17   1 H        0.924     0.127     1.558     1.952
    18   1 H        0.925     0.130     1.533     1.936
    19   1 H        0.925     0.115     1.654     2.011
    20   1 H        0.925     0.106     1.733     2.058
    21   1 H        0.925     0.108     1.709     2.045
    22   1 H        0.924     0.095     1.835     2.119
    23   1 H        0.924     0.094     1.838     2.120
    24   1 H        0.924     0.141     1.452     1.885
    25   1 H        0.859     0.250     0.885     1.473

Wiberg/Mayer (AO) data.
largest (>0.10) Wiberg bond orders for each atom

     #   Z sym  total        # sym  WBO       # sym  WBO       # sym  WBO
 ---------------------------------------------------------------------------
     1   6 C    3.867 --     2 N    1.109    16 H    0.923    17 H    0.900
                            15 H    0.880
     2   7 N    2.837 --     6 C    1.566     1 C    1.109
     3   6 C    2.672 --     4 N    1.625    18 H    0.907
     4   7 N    3.662 --     3 C    1.625     5 C    1.083    25 H    0.866
     5   6 C    3.667 --    13 N    1.216     6 C    1.207     4 N    1.083
     6   6 C    3.917 --     2 N    1.566     5 C    1.207     7 C    0.929
     7   6 C    3.895 --     8 O    1.703     9 N    1.164     6 C    0.929
     8   8 O    2.018 --     7 C    1.703     9 N    0.137
     9   7 N    3.548 --     7 C    1.164    11 C    1.106    10 C    0.960
                             8 O    0.137    12 O    0.120
    10   6 C    3.891 --    19 H    0.967     9 N    0.960    21 H    0.959
                            20 H    0.959
    11   6 C    3.939 --    12 O    1.696     9 N    1.106    13 N    1.053
    12   8 O    2.012 --    11 C    1.696     9 N    0.120    13 N    0.109
    13   7 N    3.482 --     5 C    1.216    11 C    1.053    14 C    0.978
                            12 O    0.109
    14   6 C    3.913 --    13 N    0.978    23 H    0.958    22 H    0.958
                            24 H    0.951
    15   1 H    0.915 --     1 C    0.880
    16   1 H    0.949 --     1 C    0.923
    17   1 H    0.942 --     1 C    0.900
    18   1 H    0.939 --     3 C    0.907
    19   1 H    0.984 --    10 C    0.967
    20   1 H    0.979 --    10 C    0.959
    21   1 H    0.979 --    10 C    0.959
    22   1 H    0.981 --    14 C    0.958
    23   1 H    0.981 --    14 C    0.958
    24   1 H    0.978 --    14 C    0.951
    25   1 H    0.917 --     4 N    0.866
 ---------------------------------------------------------------------------

molecular dipole:
                 x           y           z       tot (Debye)
 q only:        1.318      -1.528      -0.078
   full:        1.207      -1.333      -0.084       4.575

           -------------------------------------------------
          | TOTAL ENERGY              -42.087738519398 Eh   |
          | GRADIENT NORM               0.003664050233 Eh/α |
          | HOMO-LUMO GAP               0.206473182214 eV   |
           -------------------------------------------------

 * finished run on 2024/06/05 at 19:59:09.710
