   * xtb version 6.6.1 (8d0f1dd) compiled by 'conda@1efc2f54142f' on 2023-08-01
          program call               : xtb xtbopt.xyz --opt crude --input .xc2 --gfn2

   ID    Z sym.   atoms
    1    6 C      1, 3, 5-7, 10, 11, 14
    2    7 N      2, 4, 9, 13
    3    8 O      8, 12
    4    1 H      15-25
########################################################################
[WARNING] Please study the warnings concerning your input carefully
-1- readin_getIntValue: could not parse ''
########################################################################

          :  Hamiltonian                  GFN2-xTB          :
 * total energy  :   -42.0877647 Eh     change        0.7105427E-13 Eh
 * total energy  :   -42.0909685 Eh     change       -0.3203799E-02 Eh
 * total energy  :   -42.0935938 Eh     change       -0.2625278E-02 Eh
 * total energy  :   -42.0940729 Eh     change       -0.4791667E-03 Eh
   *** GEOMETRY OPTIMIZATION CONVERGED AFTER 4 ITERATIONS ***

 final structure:
================
25
 xtb: 6.6.1 (8d0f1dd)
C            3.15461160051810        1.40104990024270        0.04170731839680
N            2.35080998762812        0.26153067214064        0.00684877083077
C            2.56398878914129       -2.31003638220844       -0.24355440796248
N            1.28285148321377       -2.23391590114958       -0.15860659897444
C            0.46404380209287       -1.11353470295792       -0.05792217774996
C            1.06352779823378        0.16162053461239       -0.01613861842707
C            0.14404329714513        1.35321832326558        0.01351234974980
O            0.56405789610510        2.48588357512795       -0.00945831996920
N           -1.19162817034559        1.05805567392199        0.07197976118882
C           -2.14435165598233        2.16226392125811        0.10894416706419
C           -1.76307977269956       -0.20030680715993        0.08768095108767
O           -2.94926612670973       -0.36503240234624        0.16125375317871
N           -0.87910577045573       -1.28720135488333        0.00238546094126
C           -1.48105162884869       -2.60858100033811       -0.00812154336225
H            2.57678699766403        2.28932225405306        0.32013649606731
H            3.97350162247362        1.24276207919948        0.74833545645890
H            3.59675562450437        1.57748049531306       -0.94490793041749
H            3.20069929113013       -1.42868862355379       -0.26055245149066
H           -1.59200403149349        3.09793048338741        0.13266579678865
H           -2.78267468575744        2.12358106369672       -0.77379047082272
H           -2.77434737954000        2.06812627875199        0.99292787149312
H           -1.15263015787996       -3.19669707131566        0.85073138647388
H           -1.27096905706669       -3.13032970220412       -0.94340363445887
H           -2.56059828056422       -2.46784616404230        0.06880264752288
H            0.76646004159262       -3.12241660121119       -0.16028441570732

          :  Hamiltonian                  GFN2-xTB          :
         :: total energy             -42.094072933179 Eh    ::
         :: gradient norm              0.009717745315 Eh/a0 ::
         :: HOMO-LUMO gap              0.159853223966 eV    ::
         :: SCC energy               -42.607997489683 Eh    ::
         :: -> dispersion             -0.022361879022 Eh    ::
         :: repulsion energy           0.513792553473 Eh    ::

    * Orbital Energies and Occupations

         #    Occupation            Energy/Eh            Energy/eV
      -------------------------------------------------------------
         1        2.0000           -0.8957628             -24.3749
       ...           ...                  ...                  ...
        25        1.9999           -0.6776058             -18.4386
        26        1.9999           -0.6769107             -18.4197
        27        1.9995           -0.6470050             -17.6059
        28        1.9993           -0.6425667             -17.4851
        29        1.9991           -0.6392436             -17.3947
        30        1.9987           -0.6327756             -17.2187
        31        1.9969           -0.6193795             -16.8542
        32        1.9944           -0.6100901             -16.6014
        33        1.9917           -0.6037990             -16.4302
        34        1.9854           -0.5947458             -16.1839
        35        1.9664           -0.5814034             -15.8208
        36        1.8607           -0.5580325             -15.1848
        37        1.1729           -0.5225195             -14.2185 (HOMO)
        38        0.9891           -0.5166450             -14.0586 (LUMO)
        39        0.0442           -0.4569747             -12.4349
        40        0.0017           -0.4047180             -11.0129
        41        0.0005           -0.3862666             -10.5108
        42        0.0000           -0.3012325              -8.1970
        43                         -0.2087799              -5.6812
        44                         -0.1695129              -4.6127
        45                         -0.1484483              -4.0395
        46                         -0.1002688              -2.7285
        47                         -0.0819594              -2.2302
        48                         -0.0436483              -1.1877
       ...                                ...                  ...
        67                          0.5397541              14.6875
      -------------------------------------------------------------
                  HL-Gap            0.0058745 Eh            0.1599 eV

     #   Z          covCN         q      C6AA      α(0)
     1   6 C        3.692    -0.054    21.738     6.671
     2   7 N        1.838    -0.120    24.374     7.316
     3   6 C        1.847    -0.067    32.984     9.278
     4   7 N        2.688     0.012    21.059     6.816
     5   6 C        2.854     0.088    26.031     8.362
     6   6 C        2.892     0.049    26.908     8.505
     7   6 C        2.767     0.269    22.451     7.760
     8   8 O        0.858    -0.325    20.240     6.032
     9   7 N        2.738    -0.067    22.542     7.052
    10   6 C        3.710    -0.063    21.844     6.679
    11   6 C        2.725     0.318    21.597     7.608
    12   8 O        0.860    -0.345    20.613     6.087
    13   7 N        2.740    -0.042    22.053     6.975
    14   6 C        3.700    -0.080    22.201     6.738
    15   1 H        0.924     0.135     1.499     1.915
    16   1 H        0.924     0.116     1.650     2.009
    17   1 H        0.924     0.122     1.600     1.978
    18   1 H        0.925     0.157     1.348     1.816
    19   1 H        0.925     0.115     1.655     2.012
    20   1 H        0.925     0.106     1.735     2.060
    21   1 H        0.925     0.108     1.712     2.046
    22   1 H        0.924     0.093     1.854     2.130
    23   1 H        0.924     0.093     1.853     2.129
    24   1 H        0.924     0.137     1.479     1.902
    25   1 H        0.859     0.248     0.893     1.480

Wiberg/Mayer (AO) data.
largest (>0.10) Wiberg bond orders for each atom

     #   Z sym  total        # sym  WBO       # sym  WBO       # sym  WBO
 ---------------------------------------------------------------------------
     1   6 C    3.877 --     2 N    1.095    16 H    0.929    17 H    0.908
                            15 H    0.886
     2   7 N    2.901 --     6 C    1.536     1 C    1.095     3 C    0.108
     3   6 C    2.728 --     4 N    1.614    18 H    0.859     2 N    0.108
     4   7 N    3.668 --     3 C    1.614     5 C    1.091    25 H    0.874
     5   6 C    3.699 --     6 C    1.221    13 N    1.216     4 N    1.091
     6   6 C    3.917 --     2 N    1.536     5 C    1.221     7 C    0.938
     7   6 C    3.900 --     8 O    1.699     9 N    1.162     6 C    0.938
     8   8 O    2.037 --     7 C    1.699     9 N    0.140
     9   7 N    3.551 --     7 C    1.162    11 C    1.103    10 C    0.961
                             8 O    0.140    12 O    0.120
    10   6 C    3.892 --    19 H    0.967     9 N    0.961    21 H    0.959
                            20 H    0.959
    11   6 C    3.940 --    12 O    1.700     9 N    1.103    13 N    1.051
    12   8 O    2.014 --    11 C    1.700     9 N    0.120    13 N    0.110
    13   7 N    3.483 --     5 C    1.216    11 C    1.051    14 C    0.977
                            12 O    0.110
    14   6 C    3.914 --    13 N    0.977    23 H    0.961    22 H    0.961
                            24 H    0.955
    15   1 H    0.929 --     1 C    0.886
    16   1 H    0.955 --     1 C    0.929
    17   1 H    0.945 --     1 C    0.908
    18   1 H    0.936 --     3 C    0.859
    19   1 H    0.984 --    10 C    0.967
    20   1 H    0.979 --    10 C    0.959
    21   1 H    0.979 --    10 C    0.959
    22   1 H    0.981 --    14 C    0.961
    23   1 H    0.981 --    14 C    0.961
    24   1 H    0.980 --    14 C    0.955
    25   1 H    0.917 --     4 N    0.874
 ---------------------------------------------------------------------------

molecular dipole:
                 x           y           z       tot (Debye)
 q only:        1.410      -1.638      -0.096
   full:        1.257      -1.510      -0.108       5.001

           -------------------------------------------------
          | TOTAL ENERGY              -42.094072933179 Eh   |
          | GRADIENT NORM               0.009717745315 Eh/α |
          | HOMO-LUMO GAP               0.159853223966 eV   |
           -------------------------------------------------

 * finished run on 2024/06/05 at 19:59:09.950
