   * xtb version 6.6.1 (8d0f1dd) compiled by 'conda@1efc2f54142f' on 2023-08-01
          program call               : xtb xtbopt.xyz --opt crude --input .xc2 --gfn2

   ID    Z sym.   atoms
    1    6 C      1, 3, 5-7, 10, 11, 14
    2    7 N      2, 4, 9, 13
    3    8 O      8, 12
    4    1 H      15-25

          :  Hamiltonian                  GFN2-xTB          :
 * total energy  :   -42.1058787 Eh     change       -0.1847411E-11 Eh
   *** GEOMETRY OPTIMIZATION CONVERGED AFTER 1 ITERATIONS ***

 final structure:
================
25
 xtb: 6.6.1 (8d0f1dd)
C            3.36523353353702        1.05256478373673        0.05657143840351
N            2.37479150060349        0.01051846143194        0.02302780101150
C            2.59992561749335       -1.29982154671002       -0.02314758805350
N            1.42270889584110       -1.96813225382330       -0.02321751861473
C            0.41641057034897       -1.05056127622258        0.02364075712347
C            1.00982631222717        0.20511247711897        0.05546898971862
C            0.24932663167343        1.41676595753516        0.07648674324349
O            0.66152761833881        2.55438045397743        0.07560058811301
N           -1.16821005815768        1.14287851970642        0.06360775483211
C           -1.99452485943475        2.19776993199924        0.05800246207756
C           -1.77377082497368       -0.14654295611952        0.04635897000457
O           -2.96692991966500       -0.27422485341846        0.04585562848023
N           -0.91791948630040       -1.24493148590343        0.02534134387468
C           -1.48771800760728       -2.58020684684442       -0.00384620551910
H            3.81476506528629        1.11520147090977        1.04897938355173
H            4.14760639009792        0.85110496563942       -0.67295797542397
H            2.88387248747993        2.00352881220143       -0.16722882225226
H            3.56593632111382       -1.76259986080597       -0.05540754547680
H           -1.54919846492859        3.17608398066464        0.08343790105028
H           -4.80873992310011        2.07267510806969       -0.56044091676929
H           -3.06982182238685        2.04309036220787       -0.05601943203757
H           -1.18315559221232       -3.14198650269579        0.87928539155838
H           -1.18104391387463       -3.10354083513572       -0.90954141775523
H           -2.57185278530960       -2.47871514786477       -0.00269123491763
H            1.32138622801033       -2.97217317805455       -0.05599487832239

          :  Hamiltonian                  GFN2-xTB          :
         :: total energy             -42.105878699282 Eh    ::
         :: gradient norm              0.003727172238 Eh/a0 ::
         :: HOMO-LUMO gap              0.136549214130 eV    ::
         :: SCC energy               -42.624148406612 Eh    ::
         :: -> dispersion             -0.022882098978 Eh    ::
         :: repulsion energy           0.518186998235 Eh    ::

    * Orbital Energies and Occupations

         #    Occupation            Energy/Eh            Energy/eV
      -------------------------------------------------------------
         1        2.0000           -0.9109613             -24.7885
       ...           ...                  ...                  ...
        25        2.0000           -0.6712486             -18.2656
        26        2.0000           -0.6690762             -18.2065
        27        2.0000           -0.6627516             -18.0344
        28        1.9999           -0.6334705             -17.2376
        29        1.9999           -0.6299076             -17.1407
        30        1.9999           -0.6278799             -17.0855
        31        1.9998           -0.6187665             -16.8375
        32        1.9997           -0.6146126             -16.7245
        33        1.9997           -0.6129272             -16.6786
        34        1.9982           -0.5852251             -15.9248
        35        1.9944           -0.5669368             -15.4271
        36        1.9904           -0.5584131             -15.1952
        37        1.0177           -0.4745013             -12.9118 (HOMO)
        38        0.8602           -0.4694832             -12.7753 (LUMO)
        39        0.1191           -0.4302511             -11.7077
        40        0.0180           -0.3994847             -10.8705
        41        0.0031           -0.3715448             -10.1102
        42        0.0000           -0.2877133              -7.8291
        43        0.0000           -0.2087327              -5.6799
        44                         -0.1966160              -5.3502
        45                         -0.1513142              -4.1175
        46                         -0.1460244              -3.9735
        47                         -0.0785648              -2.1379
        48                         -0.0536432              -1.4597
       ...                                ...                  ...
        67                          0.5493284              14.9480
      -------------------------------------------------------------
                  HL-Gap            0.0050181 Eh            0.1365 eV

     #   Z          covCN         q      C6AA      α(0)
     1   6 C        3.691    -0.093    22.471     6.783
     2   7 N        2.830     0.077    19.904     6.626
     3   6 C        3.049     0.047    26.901     8.506
     4   7 N        2.791    -0.058    22.360     7.023
     5   6 C        3.041     0.106    25.626     8.303
     6   6 C        3.108    -0.023    28.438     8.737
     7   6 C        2.773     0.254    22.735     7.809
     8   8 O        0.857    -0.361    20.920     6.132
     9   7 N        2.740    -0.032    21.865     6.945
    10   6 C        2.812    -0.021    28.519     8.750
    11   6 C        2.737     0.309    21.754     7.636
    12   8 O        0.859    -0.352    20.741     6.106
    13   7 N        2.737    -0.050    22.202     6.998
    14   6 C        3.698    -0.073    22.076     6.720
    15   1 H        0.924     0.109     1.707     2.043
    16   1 H        0.925     0.104     1.753     2.070
    17   1 H        0.925     0.133     1.509     1.921
    18   1 H        0.926     0.123     1.586     1.969
    19   1 H        0.926     0.133     1.512     1.923
    20   1 H        0.000     0.012     7.127     4.881
    21   1 H        0.924     0.134     1.506     1.919
    22   1 H        0.925     0.084     1.937     2.176
    23   1 H        0.925     0.083     1.945     2.181
    24   1 H        0.925     0.127     1.557     1.951
    25   1 H        0.860     0.229     0.970     1.543

Wiberg/Mayer (AO) data.
largest (>0.10) Wiberg bond orders for each atom

     #   Z sym  total        # sym  WBO       # sym  WBO       # sym  WBO
 ---------------------------------------------------------------------------
     1   6 C    3.918 --     2 N    0.987    16 H    0.966    17 H    0.962
                            15 H    0.955
     2   7 N    3.647 --     3 C    1.378     6 C    1.145     1 C    0.987
     3   6 C    3.820 --     2 N    1.378     4 N    1.266    18 H    0.953
     4   7 N    3.579 --     3 C    1.266     5 C    1.194    25 H    0.919
     5   6 C    3.899 --     6 C    1.327     4 N    1.194    13 N    1.190
     6   6 C    3.908 --     5 C    1.327     2 N    1.145     7 C    1.118
     7   6 C    3.865 --     8 O    1.678     6 C    1.118     9 N    0.978
     8   8 O    1.960 --     7 C    1.678     9 N    0.108
     9   7 N    3.612 --    10 C    1.348    11 C    1.016     7 C    0.978
                             8 O    0.108
    10   6 C    3.303 --     9 N    1.348    19 H    0.956    21 H    0.910
    11   6 C    3.904 --    12 O    1.706    13 N    1.087     9 N    1.016
    12   8 O    2.018 --    11 C    1.706    13 N    0.134
    13   7 N    3.565 --     5 C    1.190    11 C    1.087    14 C    0.971
                            12 O    0.134
    14   6 C    3.924 --    23 H    0.972    22 H    0.972    13 N    0.971
                            24 H    0.965
    15   1 H    0.983 --     1 C    0.955
    16   1 H    0.986 --     1 C    0.966
    17   1 H    0.982 --     1 C    0.962
    18   1 H    0.984 --     3 C    0.953
    19   1 H    0.979 --    10 C    0.956
    20   1 H    0.060
    21   1 H    0.981 --    10 C    0.910
    22   1 H    0.991 --    14 C    0.972
    23   1 H    0.991 --    14 C    0.972
    24   1 H    0.983 --    14 C    0.965
    25   1 H    0.947 --     4 N    0.919
 ---------------------------------------------------------------------------

molecular dipole:
                 x           y           z       tot (Debye)
 q only:        2.375      -1.969      -0.035
   full:        2.595      -2.425      -0.047       9.030

           -------------------------------------------------
          | TOTAL ENERGY              -42.105878699282 Eh   |
          | GRADIENT NORM               0.003727172238 Eh/α |
          | HOMO-LUMO GAP               0.136549214130 eV   |
           -------------------------------------------------

 * finished run on 2024/06/05 at 20:00:14.908
