   * xtb version 6.6.1 (8d0f1dd) compiled by 'conda@1efc2f54142f' on 2023-08-01
          program call               : xtb struc.xyz --opt loose --input .xc1 --gfn2

   ID    Z sym.   atoms
    1    7 N      1, 17
    2    6 C      2-6, 8, 9, 11-16, 18-23, 25, 26, 28-33
    3    8 O      7, 10, 24, 27
    4    1 H      34-72
constraining bond 65 68 to    4.2800000 Å, actual value:    2.4539335 Å

          :  Hamiltonian                  GFN2-xTB          :
 * total energy  :   -98.8087419 Eh     change       -0.4035485E-08 Eh
 * total energy  :   -99.0761353 Eh     change       -0.2673934E+00 Eh
 * total energy  :   -99.2206929 Eh     change       -0.1445576E+00 Eh
 * total energy  :   -99.2617591 Eh     change       -0.4106619E-01 Eh
 * total energy  :   -99.2681628 Eh     change       -0.6403742E-02 Eh
 * total energy  :   -99.2705631 Eh     change       -0.2400291E-02 Eh
 * total energy  :   -99.2736392 Eh     change       -0.3076112E-02 Eh
 * total energy  :   -99.2759714 Eh     change       -0.2332182E-02 Eh
 * total energy  :   -99.2773631 Eh     change       -0.1391726E-02 Eh
 * total energy  :   -99.2782680 Eh     change       -0.9048643E-03 Eh
 * total energy  :   -99.3057293 Eh     change       -0.5604998E-03 Eh
 * total energy  :   -99.3061061 Eh     change       -0.3768279E-03 Eh
 * total energy  :   -99.3063602 Eh     change       -0.2540937E-03 Eh
 * total energy  :   -99.3065249 Eh     change       -0.1646857E-03 Eh
 * total energy  :   -99.3066327 Eh     change       -0.1078048E-03 Eh
 * total energy  :   -99.3067577 Eh     change       -0.1249523E-03 Eh
 * total energy  :   -99.3068317 Eh     change       -0.7404369E-04 Eh
 * total energy  :   -99.3068863 Eh     change       -0.5454452E-04 Eh
 * total energy  :   -99.3069330 Eh     change       -0.4673760E-04 Eh
   *** GEOMETRY OPTIMIZATION CONVERGED AFTER 36 ITERATIONS ***

 final structure:
================
72
 xtb: 6.6.1 (8d0f1dd)
N           -1.92345719008170        2.97879958805782        2.12506715087823
C           -1.89560987116689        2.18174361139948        1.16539152838302
C           -3.03279356933666        1.94086880021445        0.20731922863532
C           -3.47203734036347        0.48528596111386        0.29129274093980
C           -4.37840913229708       -0.02595908606662       -0.63907290827432
C           -4.82871121374998       -1.33358783117387       -0.56991198004899
O           -5.72874054708587       -1.89389198466648       -1.40478477189685
C           -6.40034964131435       -1.08150585985410       -2.33916584216270
C           -4.33407504398424       -2.19168669423413        0.44887787156268
O           -4.81050208971557       -3.45238593306951        0.42569980173505
C           -4.45812782405706       -4.33995466959558        1.46039119080004
C           -3.43426033934846       -1.67959274755501        1.36924969858233
C           -3.01783526317434       -0.35609428430859        1.29518779145426
C           -2.43123610025055        2.23626495385696       -1.19339324172330
C           -1.46760645706670        1.15421489225302       -1.71215568724460
C           -0.15541578205253        1.13465265726014       -1.02479749868873
N            0.49959227779395        0.04148463494049       -0.64903628044863
C            1.87877146317533        0.11731966827806       -0.22753788300845
C            2.84062135644225       -0.33309215009338       -1.34444309341014
C            4.26539275499487       -0.14165022268585       -0.90531515877620
C            4.91243280753761        1.06433415067654       -1.12006731860732
C            6.21802219884779        1.25560140971569       -0.69531808141242
C            6.90361091349087        0.24218724828550       -0.04104286728620
O            8.16843323888941        0.31586934343902        0.41259112498090
C            8.90191605657776        1.50251028758479        0.21364525670701
C            6.24724341799803       -0.99927204989712        0.18569181811016
O            6.98632360074802       -1.93004367307940        0.82175348653156
C            6.43483486131205       -3.20227249683087        1.06297400788599
C            4.94069208189066       -1.16603280148096       -0.24593604410041
C           -0.09097594551719       -1.27257758871120       -0.73587974235162
C           -4.27523420821419        2.83488758279497        0.48283425642230
C           -4.80346406980948        2.50628514966105        2.01252786341139
C           -3.98481112534927        4.32873091221451        0.43288537524224
H           -4.75561642746921        0.61552330068231       -1.41768544275026
H           -6.90635269748299       -0.24434669334588       -1.84923513712075
H           -7.14167098866316       -1.72645114808849       -2.80675828501692
H           -5.71886106803478       -0.70163649269219       -3.10715342833232
H           -4.73509514469289       -3.94312618578994        2.44141539555916
H           -5.02187564960251       -5.25065899297371        1.26728229086685
H           -3.38757997811349       -4.56825376754384        1.44723902052873
H           -3.05894056298446       -2.29998708607226        2.16684134014419
H           -2.34968757535287        0.01864088500407        2.05491243316692
H           -3.24386989944079        2.33155141815539       -1.91375789965217
H           -1.91102548563650        3.19478142478472       -1.15693026993115
H           -1.95733560880598        0.18260605876971       -1.67215082558090
H           -1.27393931362130        1.38581915340204       -2.76786607191757
H           -0.99591790379748        1.60725534633945        0.86876047888964
H            0.38759447562640        2.06655464706904       -0.96451378905487
H            2.02086096243201       -0.51594133837730        0.65259250596573
H            2.11660547362593        1.14610924498979        0.05005122670022
H            2.64434646800529        0.26438921365410       -2.23642614818916
H            2.65894359180695       -1.38148560246130       -1.58354962726290
H            4.40525592666147        1.86578824497535       -1.63546899315598
H            6.69699839915420        2.20208292244283       -0.88466985481766
H            8.43239867698021        2.35301929167282        0.71729463400147
H            9.01935498276824        1.72691036577402       -0.85075115650701
H            9.88008562087285        1.31828660824149        0.65357576881291
H            7.21754786692068       -3.77010599835008        1.56217260894986
H            5.55910167046852       -3.14294070339874        1.71734777182822
H            6.16240677964031       -3.70527444867617        0.12988308014597
H            4.43724020928982       -2.10647761255074       -0.08499746823425
H           -0.20933745532877       -1.58603367498329       -1.77539375322781
H           -1.07001124945922       -1.28337333962422       -0.25142644225100
H            0.55284398591643       -1.98754783532809       -0.22973463857526
H           -4.96874643291884        2.65881945482397       -0.69694148641721
H           -5.09427746653800        1.45959069964791        2.03220703141443
H           -5.70504629735653        3.09803050087289        2.14642068281325
H           -4.19495865109920        2.65831999039066        3.11521681477614
H           -3.25329305575920        4.59463644026794        1.19099640999097
H           -3.62497370331151        4.64434556834111       -0.54316752738138
H           -4.90102709966365        4.87357886132938        0.64149646081666
H           -1.07986405380124        3.08970002268184        2.67861533978262

          :  Hamiltonian                  GFN2-xTB          :
         :: total energy             -99.306932991354 Eh    ::
         :: gradient norm              0.002311623125 Eh/a0 ::
         :: HOMO-LUMO gap              1.667675003265 eV    ::
         :: SCC energy              -100.677803561862 Eh    ::
         :: -> dispersion             -0.075215703772 Eh    ::
         :: repulsion energy           1.342447060450 Eh    ::

    * Orbital Energies and Occupations

         #    Occupation            Energy/Eh            Energy/eV
      -------------------------------------------------------------
         1        2.0000           -0.8082862             -21.9946
       ...           ...                  ...                  ...
        78        1.9984           -0.5287846             -14.3890
        79        1.9983           -0.5280386             -14.3687
        80        1.9978           -0.5235682             -14.2470
        81        1.9974           -0.5210796             -14.1793
        82        1.9971           -0.5194807             -14.1358
        83        1.9960           -0.5142225             -13.9927
        84        1.9946           -0.5096224             -13.8675
        85        1.9893           -0.4987767             -13.5724
        86        1.9814           -0.4899127             -13.3312
        87        1.9789           -0.4879170             -13.2769
        88        1.9325           -0.4691211             -12.7654
        89        1.8746           -0.4588424             -12.4857
        90        1.8460           -0.4553407             -12.3905 (HOMO)
        91        0.3998           -0.3940548             -10.7228 (LUMO)
        92        0.0145           -0.3381518              -9.2016
        93        0.0036           -0.3160554              -8.6003
        94        0.0030           -0.3131595              -8.5215
        95        0.0028           -0.3118388              -8.4856
        96        0.0024           -0.3095039              -8.4220
        97        0.0000           -0.2320186              -6.3135
        98        0.0000           -0.1901279              -5.1736
        99        0.0000           -0.1869590              -5.0874
       100                         -0.1357232              -3.6932
       101                         -0.1181538              -3.2151
       ...                                ...                  ...
       171                          0.5769074              15.6985
      -------------------------------------------------------------
                  HL-Gap            0.0612859 Eh            1.6677 eV

     #   Z          covCN         q      C6AA      α(0)
     1   7 N        1.773    -0.267    27.753     7.801
     2   6 C        2.829     0.100    25.778     8.320
     3   6 C        3.906     0.006    20.423     6.424
     4   6 C        2.973     0.002    27.976     8.676
     5   6 C        2.921    -0.079    29.974     8.978
     6   6 C        2.862     0.129    25.162     8.222
     7   8 O        1.706    -0.231    17.823     5.700
     8   6 C        3.644     0.028    20.445     6.499
     9   6 C        2.864     0.128    25.190     8.227
    10   8 O        1.706    -0.229    17.795     5.696
    11   6 C        3.645     0.027    20.454     6.500
    12   6 C        2.914    -0.075    29.879     8.963
    13   6 C        2.922    -0.054    29.334     8.882
    14   6 C        3.814    -0.063    21.703     6.631
    15   6 C        3.802    -0.069    21.821     6.651
    16   6 C        2.842     0.006    27.877     8.653
    17   7 N        2.729     0.010    21.085     6.820
    18   6 C        3.755    -0.016    20.923     6.522
    19   6 C        3.808    -0.070    21.842     6.653
    20   6 C        2.969    -0.000    28.035     8.685
    21   6 C        2.922    -0.049    29.214     8.864
    22   6 C        2.914    -0.068    29.683     8.934
    23   6 C        2.865     0.133    25.080     8.209
    24   8 O        1.706    -0.222    17.683     5.678
    25   6 C        3.645     0.025    20.487     6.505
    26   6 C        2.863     0.133    25.090     8.210
    27   8 O        1.706    -0.225    17.730     5.685
    28   6 C        3.645     0.027    20.451     6.500
    29   6 C        2.919    -0.080    29.988     8.980
    30   6 C        3.700    -0.070    22.014     6.710
    31   6 C        3.496     0.018    21.934     6.960
    32   6 C        3.620    -0.097    22.846     6.892
    33   6 C        3.753    -0.119    22.841     6.815
    34   1 H        0.926     0.053     2.288     2.365
    35   1 H        0.924     0.054     2.274     2.358
    36   1 H        0.925     0.081     1.968     2.194
    37   1 H        0.924     0.048     2.347     2.396
    38   1 H        0.924     0.054     2.266     2.354
    39   1 H        0.925     0.081     1.967     2.193
    40   1 H        0.924     0.048     2.346     2.395
    41   1 H        0.926     0.052     2.301     2.372
    42   1 H        0.926     0.038     2.471     2.458
    43   1 H        0.925     0.061     2.187     2.313
    44   1 H        0.924     0.052     2.292     2.367
    45   1 H        0.925     0.067     2.122     2.278
    46   1 H        0.923     0.080     1.977     2.199
    47   1 H        0.922     0.010     2.897     2.662
    48   1 H        0.926     0.069     2.097     2.264
    49   1 H        0.924     0.067     2.118     2.276
    50   1 H        0.924     0.067     2.115     2.274
    51   1 H        0.924     0.055     2.259     2.350
    52   1 H        0.924     0.056     2.250     2.346
    53   1 H        0.926     0.045     2.384     2.415
    54   1 H        0.926     0.058     2.218     2.329
    55   1 H        0.924     0.054     2.270     2.356
    56   1 H        0.924     0.056     2.248     2.345
    57   1 H        0.925     0.082     1.955     2.187
    58   1 H        0.925     0.082     1.961     2.190
    59   1 H        0.924     0.048     2.340     2.392
    60   1 H        0.924     0.052     2.291     2.367
    61   1 H        0.926     0.047     2.358     2.401
    62   1 H        0.924     0.076     2.018     2.222
    63   1 H        0.924     0.079     1.986     2.204
    64   1 H        0.925     0.080     1.982     2.202
    65   1 H        0.592    -0.001     3.777     3.185
    66   1 H        0.925     0.035     2.513     2.479
    67   1 H        0.925     0.052     2.300     2.372
    68   1 H        0.819     0.054     2.304     2.382
    69   1 H        0.925     0.067     2.114     2.274
    70   1 H        0.925     0.035     2.515     2.480
    71   1 H        0.925     0.057     2.230     2.335
    72   1 H        0.860     0.158     1.349     1.819

Wiberg/Mayer (AO) data.
largest (>0.10) Wiberg bond orders for each atom

     #   Z sym  total        # sym  WBO       # sym  WBO       # sym  WBO
 ---------------------------------------------------------------------------
     1   7 N    3.040 --     2 C    1.957    72 H    0.941
     2   6 C    3.927 --     1 N    1.957     3 C    0.989    47 H    0.896
     3   6 C    3.975 --     2 C    0.989     4 C    0.969    31 C    0.954
                            14 C    0.953
     4   6 C    3.950 --    13 C    1.414     5 C    1.370     3 C    0.969
     5   6 C    3.963 --     6 C    1.401     4 C    1.370    34 H    0.955
     6   6 C    3.907 --     5 C    1.401     9 C    1.223     7 O    1.099
     7   8 O    2.253 --     6 C    1.099     8 C    0.977
     8   6 C    3.932 --     7 O    0.977    36 H    0.977    35 H    0.974
                            37 H    0.973
     9   6 C    3.903 --    12 C    1.392     6 C    1.223    10 O    1.101
    10   8 O    2.253 --     9 C    1.101    11 C    0.978
    11   6 C    3.932 --    10 O    0.978    39 H    0.977    38 H    0.974
                            40 H    0.974
    12   6 C    3.963 --    13 C    1.403     9 C    1.392    41 H    0.964
    13   6 C    3.955 --     4 C    1.414    12 C    1.403    42 H    0.962
    14   6 C    3.974 --    15 C    0.984    44 H    0.973    43 H    0.964
                             3 C    0.953
    15   6 C    3.987 --    16 C    1.058    14 C    0.984    45 H    0.961
                            46 H    0.927
    16   6 C    3.592 --    17 N    1.398    15 C    1.058    48 H    0.957
    17   7 N    3.476 --    16 C    1.398    30 C    0.998    18 C    0.988
    18   6 C    3.955 --    17 N    0.988    50 H    0.968    19 C    0.966
                            49 H    0.964
    19   6 C    3.976 --    20 C    1.008    51 H    0.972    52 H    0.972
                            18 C    0.966
    20   6 C    3.945 --    21 C    1.409    29 C    1.380    19 C    1.008
    21   6 C    3.950 --    22 C    1.417    20 C    1.409    53 H    0.968
    22   6 C    3.960 --    21 C    1.417    23 C    1.384    54 H    0.963
    23   6 C    3.896 --    22 C    1.384    26 C    1.220    24 O    1.110
    24   8 O    2.255 --    23 C    1.110    25 C    0.976
    25   6 C    3.928 --    57 H    0.977    24 O    0.976    55 H    0.973
                            56 H    0.973
    26   6 C    3.899 --    29 C    1.395    23 C    1.220    27 O    1.103
    27   8 O    2.254 --    26 C    1.103    28 C    0.979
    28   6 C    3.932 --    27 O    0.979    58 H    0.977    59 H    0.973
                            60 H    0.973
    29   6 C    3.959 --    26 C    1.395    20 C    1.380    61 H    0.963
    30   6 C    3.958 --    17 N    0.998    64 H    0.977    62 H    0.966
                            63 H    0.962
    31   6 C    3.947 --    33 C    1.021    32 C    0.983     3 C    0.954
                            65 H    0.922
    32   6 C    3.964 --    67 H    0.986    66 H    0.986    31 C    0.983
                            68 H    0.967
    33   6 C    3.980 --    31 C    1.021    70 H    0.981    71 H    0.978
                            69 H    0.968
    34   1 H    0.996 --     5 C    0.955
    35   1 H    0.994 --     8 C    0.974
    36   1 H    0.993 --     8 C    0.977
    37   1 H    0.994 --     8 C    0.973
    38   1 H    0.993 --    11 C    0.974
    39   1 H    0.993 --    11 C    0.977
    40   1 H    0.993 --    11 C    0.974
    41   1 H    0.996 --    12 C    0.964
    42   1 H    0.998 --    13 C    0.962
    43   1 H    0.995 --    14 C    0.964
    44   1 H    0.996 --    14 C    0.973
    45   1 H    0.995 --    15 C    0.961
    46   1 H    0.970 --    15 C    0.927
    47   1 H    0.986 --     2 C    0.896
    48   1 H    0.995 --    16 C    0.957
    49   1 H    0.991 --    18 C    0.964
    50   1 H    0.995 --    18 C    0.968
    51   1 H    0.996 --    19 C    0.972
    52   1 H    0.996 --    19 C    0.972
    53   1 H    0.997 --    21 C    0.968
    54   1 H    0.995 --    22 C    0.963
    55   1 H    0.992 --    25 C    0.973
    56   1 H    0.992 --    25 C    0.973
    57   1 H    0.992 --    25 C    0.977
    58   1 H    0.993 --    28 C    0.977
    59   1 H    0.993 --    28 C    0.973
    60   1 H    0.993 --    28 C    0.973
    61   1 H    0.997 --    29 C    0.963
    62   1 H    0.984 --    30 C    0.966
    63   1 H    0.987 --    30 C    0.962
    64   1 H    0.993 --    30 C    0.977
    65   1 H    0.988 --    31 C    0.922
    66   1 H    0.996 --    32 C    0.986
    67   1 H    0.994 --    32 C    0.986
    68   1 H    0.992 --    32 C    0.967
    69   1 H    0.991 --    33 C    0.968
    70   1 H    0.997 --    33 C    0.981
    71   1 H    0.993 --    33 C    0.978
    72   1 H    0.970 --     1 N    0.941
 ---------------------------------------------------------------------------

molecular dipole:
                 x           y           z       tot (Debye)
 q only:        0.624       0.017      -0.660
   full:        0.889      -0.040      -0.789       3.024

           -------------------------------------------------
          | TOTAL ENERGY              -99.306932991354 Eh   |
          | GRADIENT NORM               0.002311623125 Eh/α |
          | HOMO-LUMO GAP               1.667675003265 eV   |
           -------------------------------------------------

 * finished run on 2024/04/06 at 11:15:18.424
