   * xtb version 6.6.1 (8d0f1dd) compiled by 'conda@1efc2f54142f' on 2023-08-01
          program call               : xtb xtbopt.xyz --opt crude --input .xc2 --gfn2

   ID    Z sym.   atoms
    1    7 N      1, 17
    2    6 C      2-6, 8, 9, 11-16, 18-23, 25, 26, 28-33
    3    8 O      7, 10, 24, 27
    4    1 H      34-72
########################################################################
[WARNING] Please study the warnings concerning your input carefully
-1- readin_getIntValue: could not parse ''
########################################################################

          :  Hamiltonian                  GFN2-xTB          :
 * total energy  :   -99.3341052 Eh     change        0.1421085E-12 Eh
 * total energy  :   -99.3843544 Eh     change       -0.5024914E-01 Eh
 * total energy  :   -99.3962653 Eh     change       -0.1191091E-01 Eh
 * total energy  :   -99.4050133 Eh     change       -0.8748022E-02 Eh
 * total energy  :   -99.4063250 Eh     change       -0.1311666E-02 Eh
 * total energy  :   -99.4061480 Eh     change        0.1769351E-03 Eh
 * total energy  :   -99.4066559 Eh     change       -0.5078207E-03 Eh
 * total energy  :   -99.4066880 Eh     change       -0.3211741E-04 Eh
   *** GEOMETRY OPTIMIZATION CONVERGED AFTER 8 ITERATIONS ***

 final structure:
================
72
 xtb: 6.6.1 (8d0f1dd)
N           -1.91148965842532        2.95357247438452        2.16101696163913
C           -1.87418289088594        2.17203898728124        1.18806033825787
C           -3.01334461841935        1.93266054218653        0.23666184623023
C           -3.45718764942033        0.47997266788196        0.31412463359063
C           -4.36936795622593       -0.01970369925558       -0.61803758372547
C           -4.82234120348920       -1.32714496153209       -0.55760282843394
O           -5.71700388418886       -1.88373251582825       -1.40011676137060
C           -6.37992769176097       -1.07204025798174       -2.34105090584386
C           -4.33386175938046       -2.19108682404700        0.45972802725246
O           -4.81704765848031       -3.44925631205810        0.43334299942409
C           -4.46021319760861       -4.34094439473447        1.46355910594181
C           -3.43029835064511       -1.68853040979613        1.38208378866165
C           -3.00452308118441       -0.36790529191509        1.31280244373661
C           -2.44016480131475        2.23603944418393       -1.17317361261707
C           -1.47911405419935        1.15927949428225       -1.70950705530758
C           -0.16222757088402        1.13796202180645       -1.03279292268711
N            0.49399706390370        0.04491338839877       -0.66070343430176
C            1.87234221187334        0.12232282816761       -0.23591886447771
C            2.83763196881758       -0.33016341161283       -1.34894805081369
C            4.26156370419731       -0.13910858089453       -0.90627658381712
C            4.90881712759182        1.06725728378247       -1.11915931369033
C            6.21440921155673        1.25788647289304       -0.69424653596903
C            6.89971285142699        0.24345335606950       -0.04126277806328
O            8.16492156999726        0.31522909648728        0.41140147459457
C            8.90053693626984        1.50060397004431        0.21248908373116
C            6.24279169114625       -0.99793434783596        0.18496393193814
O            6.98219562604840       -1.92845767701028        0.82050655403016
C            6.43239473681771       -3.20159213156652        1.06115070554816
C            4.93629889786975       -1.16417101214187       -0.24727653447755
C           -0.09827006040532       -1.26904750899378       -0.73988087230514
C           -4.25249236118180        2.83018217871312        0.52447626900116
C           -4.87092366853073        2.49927677830957        1.88280974493585
C           -3.95782350499641        4.32477607760447        0.44183958873562
H           -4.74346501264553        0.62798073858636       -1.39372656704165
H           -6.89311353048549       -0.23557238783113       -1.85736568797075
H           -7.11507049802783       -1.71875307538129       -2.81634207336066
H           -5.69159951959177       -0.69053792627340       -3.10222609529080
H           -4.74232585071757       -3.95148906386100        2.44610688280501
H           -5.01614603955278       -5.25492123331789        1.26433923680491
H           -3.38759494567720       -4.56008910501597        1.45106734966135
H           -3.05946277425870       -2.31403347597312        2.17769345763284
H           -2.33079232863638       -0.00172226204045        2.07202840981224
H           -3.26773637129752        2.32869717631198       -1.87573616486777
H           -1.92296276119087        3.19577549304833       -1.14416637699512
H           -1.96552903462823        0.18607244602269       -1.67195545579167
H           -1.29570098372721        1.39950127611415       -2.76514245777158
H           -0.96829047852092        1.61313172874677        0.88170227681400
H            0.38239094208381        2.06909146631469       -0.97469583551431
H            2.01302303200374       -0.50838989588408        0.64621188721953
H            2.10911463799483        1.15199226183004        0.03938454761540
H            2.64450066211040        0.26654922772655       -2.24213917741250
H            2.65593523433558       -1.37863317036675       -1.58761920132778
H            4.40146423671920        1.86921902854552       -1.63361068119569
H            6.69395129152568        2.20426609427957       -0.88272415849457
H            8.43320747526611        2.35165663921893        0.71717118994283
H            9.01745065937793        1.72533738730121       -0.85187010592333
H            9.87874620307820        1.31404378010091        0.65137086227132
H            7.21642418632053       -3.76870819601438        1.55914138645787
H            5.55727036015978       -3.14385360937300        1.71639630543043
H            6.15985459044284       -3.70409016288555        0.12788141343496
H            4.43272459243815       -2.10479438550724       -0.08754149898641
H           -0.22174085620909       -1.58600061820360       -1.77775277724422
H           -1.07523736239263       -1.27730200429999       -0.25092087656797
H            0.54676830564893       -1.98306054295972       -0.23408419597015
H           -4.99355787315991        2.59577766455610       -0.25178210380920
H           -5.14545735381014        1.44891157673678        1.94483066050541
H           -5.76560416585668        3.09710988549261        2.03295109437893
H           -4.16937476744883        2.72732346206211        2.67876877606822
H           -3.21965063651835        4.60364023103476        1.18710144541992
H           -3.60304862613456        4.61638488687298       -0.54314564707977
H           -4.87137338513321        4.87809684763904        0.64391627219969
H           -1.06728363277537        3.06892361387375        2.71268566739165

          :  Hamiltonian                  GFN2-xTB          :
         :: total energy             -99.406687977659 Eh    ::
         :: gradient norm              0.002720696506 Eh/a0 ::
         :: HOMO-LUMO gap              1.667030848687 eV    ::
         :: SCC energy              -100.785129476289 Eh    ::
         :: -> dispersion             -0.075059962023 Eh    ::
         :: repulsion energy           1.377200533700 Eh    ::

    * Orbital Energies and Occupations

         #    Occupation            Energy/Eh            Energy/eV
      -------------------------------------------------------------
         1        2.0000           -0.8088956             -22.0112
       ...           ...                  ...                  ...
        78        1.9983           -0.5290198             -14.3954
        79        1.9983           -0.5285767             -14.3833
        80        1.9982           -0.5278793             -14.3643
        81        1.9975           -0.5226304             -14.2215
        82        1.9970           -0.5201150             -14.1530
        83        1.9959           -0.5148677             -14.0103
        84        1.9951           -0.5122041             -13.9378
        85        1.9943           -0.5097526             -13.8711
        86        1.9810           -0.4905735             -13.3492
        87        1.9785           -0.4885770             -13.2949
        88        1.9376           -0.4713530             -12.8262
        89        1.8732           -0.4595863             -12.5060
        90        1.8432           -0.4559760             -12.4077 (HOMO)
        91        0.3942           -0.3947138             -10.7407 (LUMO)
        92        0.0143           -0.3388716              -9.2212
        93        0.0036           -0.3168068              -8.6208
        94        0.0029           -0.3136948              -8.5361
        95        0.0027           -0.3125199              -8.5041
        96        0.0024           -0.3102074              -8.4412
        97        0.0000           -0.1911536              -5.2016
        98        0.0000           -0.1876885              -5.1073
        99                         -0.1368700              -3.7244
       100                         -0.0694453              -1.8897
       101                         -0.0646973              -1.7605
       ...                                ...                  ...
       171                          0.5762052              15.6793
      -------------------------------------------------------------
                  HL-Gap            0.0612623 Eh            1.6670 eV

     #   Z          covCN         q      C6AA      α(0)
     1   7 N        1.774    -0.268    27.774     7.804
     2   6 C        2.828     0.101    25.756     8.316
     3   6 C        3.908     0.007    20.410     6.421
     4   6 C        2.974     0.002    27.986     8.678
     5   6 C        2.920    -0.080    29.996     8.981
     6   6 C        2.862     0.129    25.164     8.222
     7   8 O        1.706    -0.230    17.821     5.700
     8   6 C        3.644     0.028    20.449     6.500
     9   6 C        2.864     0.128    25.187     8.226
    10   8 O        1.706    -0.229    17.794     5.695
    11   6 C        3.645     0.027    20.453     6.500
    12   6 C        2.914    -0.075    29.870     8.962
    13   6 C        2.921    -0.053    29.328     8.881
    14   6 C        3.813    -0.064    21.721     6.634
    15   6 C        3.802    -0.069    21.823     6.651
    16   6 C        2.842     0.007    27.847     8.648
    17   7 N        2.729     0.011    21.071     6.818
    18   6 C        3.755    -0.016    20.923     6.522
    19   6 C        3.808    -0.071    21.843     6.653
    20   6 C        2.969    -0.000    28.033     8.685
    21   6 C        2.922    -0.049    29.211     8.863
    22   6 C        2.914    -0.067    29.679     8.933
    23   6 C        2.865     0.134    25.077     8.208
    24   8 O        1.706    -0.222    17.677     5.677
    25   6 C        3.645     0.025    20.490     6.506
    26   6 C        2.863     0.133    25.086     8.210
    27   8 O        1.706    -0.224    17.723     5.684
    28   6 C        3.645     0.027    20.455     6.500
    29   6 C        2.919    -0.079    29.985     8.980
    30   6 C        3.700    -0.070    22.015     6.710
    31   6 C        3.853    -0.007    20.671     6.467
    32   6 C        3.755    -0.118    22.812     6.810
    33   6 C        3.755    -0.119    22.842     6.815
    34   1 H        0.926     0.052     2.298     2.371
    35   1 H        0.924     0.054     2.275     2.359
    36   1 H        0.925     0.081     1.967     2.193
    37   1 H        0.924     0.048     2.347     2.396
    38   1 H        0.924     0.055     2.260     2.351
    39   1 H        0.925     0.081     1.967     2.193
    40   1 H        0.924     0.048     2.346     2.395
    41   1 H        0.926     0.052     2.299     2.371
    42   1 H        0.926     0.039     2.468     2.457
    43   1 H        0.925     0.061     2.188     2.313
    44   1 H        0.924     0.054     2.271     2.357
    45   1 H        0.925     0.067     2.124     2.279
    46   1 H        0.923     0.080     1.977     2.199
    47   1 H        0.922     0.007     2.940     2.681
    48   1 H        0.926     0.070     2.090     2.261
    49   1 H        0.924     0.067     2.116     2.275
    50   1 H        0.924     0.068     2.113     2.273
    51   1 H        0.924     0.055     2.256     2.349
    52   1 H        0.924     0.056     2.249     2.345
    53   1 H        0.926     0.045     2.381     2.413
    54   1 H        0.926     0.059     2.215     2.327
    55   1 H        0.924     0.054     2.267     2.354
    56   1 H        0.924     0.056     2.246     2.344
    57   1 H        0.925     0.083     1.953     2.186
    58   1 H        0.925     0.082     1.959     2.189
    59   1 H        0.924     0.049     2.336     2.390
    60   1 H        0.924     0.053     2.288     2.366
    61   1 H        0.926     0.047     2.356     2.400
    62   1 H        0.924     0.076     2.016     2.220
    63   1 H        0.924     0.080     1.983     2.202
    64   1 H        0.925     0.080     1.981     2.201
    65   1 H        0.923     0.037     2.493     2.469
    66   1 H        0.925     0.035     2.517     2.481
    67   1 H        0.925     0.051     2.302     2.373
    68   1 H        0.925     0.067     2.122     2.278
    69   1 H        0.925     0.063     2.160     2.299
    70   1 H        0.925     0.035     2.520     2.483
    71   1 H        0.925     0.054     2.268     2.355
    72   1 H        0.860     0.157     1.355     1.823

Wiberg/Mayer (AO) data.
largest (>0.10) Wiberg bond orders for each atom

     #   Z sym  total        # sym  WBO       # sym  WBO       # sym  WBO
 ---------------------------------------------------------------------------
     1   7 N    3.041 --     2 C    1.956    72 H    0.942
     2   6 C    3.928 --     1 N    1.956     3 C    0.994    47 H    0.897
     3   6 C    3.976 --     2 C    0.994     4 C    0.971    14 C    0.955
                            31 C    0.943
     4   6 C    3.950 --    13 C    1.415     5 C    1.368     3 C    0.971
     5   6 C    3.962 --     6 C    1.401     4 C    1.368    34 H    0.958
     6   6 C    3.906 --     5 C    1.401     9 C    1.222     7 O    1.099
     7   8 O    2.253 --     6 C    1.099     8 C    0.978
     8   6 C    3.932 --     7 O    0.978    36 H    0.977    35 H    0.974
                            37 H    0.973
     9   6 C    3.902 --    12 C    1.392     6 C    1.222    10 O    1.101
    10   8 O    2.253 --     9 C    1.101    11 C    0.978
    11   6 C    3.931 --    10 O    0.978    39 H    0.977    40 H    0.974
                            38 H    0.974
    12   6 C    3.963 --    13 C    1.403     9 C    1.392    41 H    0.964
    13   6 C    3.955 --     4 C    1.415    12 C    1.403    42 H    0.962
    14   6 C    3.973 --    15 C    0.982    44 H    0.972    43 H    0.968
                             3 C    0.955
    15   6 C    3.986 --    16 C    1.059    14 C    0.982    45 H    0.961
                            46 H    0.927
    16   6 C    3.595 --    17 N    1.401    15 C    1.059    48 H    0.957
    17   7 N    3.479 --    16 C    1.401    30 C    0.998    18 C    0.988
    18   6 C    3.955 --    17 N    0.988    50 H    0.968    19 C    0.967
                            49 H    0.964
    19   6 C    3.976 --    20 C    1.008    51 H    0.972    52 H    0.972
                            18 C    0.967
    20   6 C    3.944 --    21 C    1.409    29 C    1.380    19 C    1.008
    21   6 C    3.950 --    22 C    1.417    20 C    1.409    53 H    0.968
    22   6 C    3.959 --    21 C    1.417    23 C    1.383    54 H    0.963
    23   6 C    3.895 --    22 C    1.383    26 C    1.219    24 O    1.111
    24   8 O    2.255 --    23 C    1.111    25 C    0.976
    25   6 C    3.928 --    57 H    0.977    24 O    0.976    55 H    0.973
                            56 H    0.972
    26   6 C    3.898 --    29 C    1.395    23 C    1.219    27 O    1.104
    27   8 O    2.255 --    26 C    1.104    28 C    0.978
    28   6 C    3.932 --    27 O    0.978    58 H    0.977    59 H    0.973
                            60 H    0.973
    29   6 C    3.959 --    26 C    1.395    20 C    1.380    61 H    0.963
    30   6 C    3.957 --    17 N    0.998    64 H    0.977    62 H    0.966
                            63 H    0.962
    31   6 C    3.972 --    33 C    1.009    32 C    1.008    65 H    0.960
                             3 C    0.943
    32   6 C    3.980 --    31 C    1.008    66 H    0.982    67 H    0.982
                            68 H    0.975
    33   6 C    3.982 --    31 C    1.009    70 H    0.983    71 H    0.980
                            69 H    0.975
    34   1 H    0.996 --     5 C    0.958
    35   1 H    0.994 --     8 C    0.974
    36   1 H    0.993 --     8 C    0.977
    37   1 H    0.994 --     8 C    0.973
    38   1 H    0.993 --    11 C    0.974
    39   1 H    0.993 --    11 C    0.977
    40   1 H    0.993 --    11 C    0.974
    41   1 H    0.996 --    12 C    0.964
    42   1 H    0.998 --    13 C    0.962
    43   1 H    0.995 --    14 C    0.968
    44   1 H    0.996 --    14 C    0.972
    45   1 H    0.995 --    15 C    0.961
    46   1 H    0.970 --    15 C    0.927
    47   1 H    0.987 --     2 C    0.897
    48   1 H    0.995 --    16 C    0.957
    49   1 H    0.991 --    18 C    0.964
    50   1 H    0.995 --    18 C    0.968
    51   1 H    0.996 --    19 C    0.972
    52   1 H    0.996 --    19 C    0.972
    53   1 H    0.997 --    21 C    0.968
    54   1 H    0.995 --    22 C    0.963
    55   1 H    0.992 --    25 C    0.973
    56   1 H    0.991 --    25 C    0.972
    57   1 H    0.992 --    25 C    0.977
    58   1 H    0.993 --    28 C    0.977
    59   1 H    0.993 --    28 C    0.973
    60   1 H    0.993 --    28 C    0.973
    61   1 H    0.997 --    29 C    0.963
    62   1 H    0.985 --    30 C    0.966
    63   1 H    0.987 --    30 C    0.962
    64   1 H    0.993 --    30 C    0.977
    65   1 H    0.992 --    31 C    0.960
    66   1 H    0.997 --    32 C    0.982
    67   1 H    0.994 --    32 C    0.982
    68   1 H    0.991 --    32 C    0.975
    69   1 H    0.992 --    33 C    0.975
    70   1 H    0.997 --    33 C    0.983
    71   1 H    0.994 --    33 C    0.980
    72   1 H    0.970 --     1 N    0.942
 ---------------------------------------------------------------------------

molecular dipole:
                 x           y           z       tot (Debye)
 q only:        0.688      -0.033      -0.783
   full:        0.968      -0.103      -0.929       3.422

           -------------------------------------------------
          | TOTAL ENERGY              -99.406687977659 Eh   |
          | GRADIENT NORM               0.002720696506 Eh/α |
          | HOMO-LUMO GAP               1.667030848687 eV   |
           -------------------------------------------------

 * finished run on 2024/04/06 at 11:15:20.017
