   * xtb version 6.6.1 (8d0f1dd) compiled by 'conda@1efc2f54142f' on 2023-08-01
          program call               : xtb struc.xyz --opt loose --input .xc1 --gfn2

   ID    Z sym.   atoms
    1    6 C      1, 3, 5-7, 10, 11, 14
    2    7 N      2, 4, 9, 13
    3    8 O      8, 12
    4    1 H      15-25
constraining bond 2 18 to    4.0600000 Å, actual value:    2.1303834 Å

          :  Hamiltonian                  GFN2-xTB          :
 * total energy  :   -35.5969974 Eh     change       -0.6633627E-10 Eh
 * total energy  :   -38.4900247 Eh     change       -0.2893027E+01 Eh
 * total energy  :   -40.5927414 Eh     change       -0.2102717E+01 Eh
 * total energy  :   -41.5857492 Eh     change       -0.9930077E+00 Eh
 * total energy  :   -41.8423490 Eh     change       -0.2565999E+00 Eh
 * total energy  :   -41.8641225 Eh     change       -0.2177345E-01 Eh
 * total energy  :   -41.8812159 Eh     change       -0.1709343E-01 Eh
 * total energy  :   -41.9155807 Eh     change       -0.3436476E-01 Eh
 * total energy  :   -41.9427868 Eh     change       -0.2720611E-01 Eh
 * total energy  :   -41.9549476 Eh     change       -0.1216081E-01 Eh
 * total energy  :   -42.0398091 Eh     change       -0.1230251E-01 Eh
 * total energy  :   -42.0468587 Eh     change       -0.7049631E-02 Eh
 * total energy  :   -42.0526481 Eh     change       -0.5789364E-02 Eh
 * total energy  :   -42.0589455 Eh     change       -0.6297425E-02 Eh
 * total energy  :   -42.0605824 Eh     change       -0.1636835E-02 Eh
 * total energy  :   -42.0610000 Eh     change       -0.4176525E-03 Eh
 * total energy  :   -42.0612437 Eh     change       -0.2436704E-03 Eh
 * total energy  :   -42.0613112 Eh     change       -0.6753712E-04 Eh
 * total energy  :   -42.0613466 Eh     change       -0.3541046E-04 Eh
   *** GEOMETRY OPTIMIZATION CONVERGED AFTER 27 ITERATIONS ***

 final structure:
================
25
 xtb: 6.6.1 (8d0f1dd)
C            3.16565183006968        1.25728162446882        0.01949000873155
N            2.23156301777728        0.16534660999912        0.00193762637727
C            2.55057891997926       -1.14323732814932       -0.00627821661758
N            1.39533913785152       -1.84694186377784       -0.00596576345839
C            0.33517643727420       -0.98884361742019        0.00230117989137
C            0.86839555660997        0.29500437921430        0.00820901712188
C            0.01454628661015        1.46867920899531       -0.00017851911126
O            0.38653688655480        2.61658812967373       -0.01127157086551
N           -1.33389618548477        1.11239376097737        0.00130372073673
C           -2.31401796118204        2.19110445110572       -0.00247398470013
C           -1.88242208965740       -0.15726552380777        0.00368075798053
O           -3.06576516346730       -0.34801215299683        0.00555649252433
N           -0.98088628058092       -1.24528851392938        0.00211124629449
C           -1.50344682049881       -2.59374622098176       -0.00285148728369
H            3.67431708132283        1.30011403551915        0.98402320161661
H            3.91541313318650        1.11768758412679       -0.75863906399234
H            2.62903625799601        2.19122280321551       -0.14173795113456
H            4.34167194686177       -3.29713845910843       -0.03411915864355
H           -1.78150486174856        3.13845695757074        0.00559498497160
H           -2.94060082014417        2.11654713019798       -0.89075796121730
H           -2.95495658035929        2.10834446754134        0.87466116287542
H           -1.17026026938107       -3.13355080178886        0.88442022563421
H           -1.18226233462958       -3.12260271636821       -0.90119139151399
H           -2.59060907925217       -2.52915111385427        0.00450789451870
H            1.35283346839209       -2.85475428882304       -0.01116083283641

          :  Hamiltonian                  GFN2-xTB          :
         :: total energy             -42.061346627292 Eh    ::
         :: gradient norm              0.002043222187 Eh/a0 ::
         :: HOMO-LUMO gap              0.524570795369 eV    ::
         :: SCC energy               -42.567099407855 Eh    ::
         :: -> dispersion             -0.022587569070 Eh    ::
         :: repulsion energy           0.505609286328 Eh    ::

    * Orbital Energies and Occupations

         #    Occupation            Energy/Eh            Energy/eV
      -------------------------------------------------------------
         1        2.0000           -0.8988330             -24.4585
       ...           ...                  ...                  ...
        25        2.0000           -0.6671476             -18.1540
        26        2.0000           -0.6639948             -18.0682
        27        2.0000           -0.6374686             -17.3464
        28        2.0000           -0.6335550             -17.2399
        29        1.9999           -0.6241983             -16.9853
        30        1.9999           -0.6179255             -16.8146
        31        1.9995           -0.6062095             -16.4958
        32        1.9995           -0.6060138             -16.4905
        33        1.9957           -0.5896238             -16.0445
        34        1.9751           -0.5755833             -15.6624
        35        1.9457           -0.5692922             -15.4912
        36        1.8448           -0.5605545             -15.2535
        37        1.6522           -0.5532920             -15.0558 (HOMO)
        38        0.5877           -0.5340143             -14.5313 (LUMO)
        39        0.0000           -0.4222421             -11.4898
        40                         -0.3940576             -10.7229
        41                         -0.3756024             -10.2207
        42                         -0.2935057              -7.9867
        43                         -0.2089987              -5.6871
        44                         -0.1698623              -4.6222
        45                         -0.1423966              -3.8748
        46                         -0.1308726              -3.5612
        47                         -0.0701526              -1.9089
        48                         -0.0387222              -1.0537
       ...                                ...                  ...
        67                          0.5496394              14.9564
      -------------------------------------------------------------
                  HL-Gap            0.0192776 Eh            0.5246 eV

     #   Z          covCN         q      C6AA      α(0)
     1   6 C        3.692    -0.085    22.323     6.761
     2   7 N        2.844     0.080    19.843     6.616
     3   6 C        2.071    -0.048    32.223     9.170
     4   7 N        2.806    -0.063    22.451     7.037
     5   6 C        3.021     0.117    25.407     8.268
     6   6 C        3.091    -0.008    28.121     8.692
     7   6 C        2.764     0.275    22.352     7.743
     8   8 O        0.858    -0.340    20.519     6.073
     9   7 N        2.745    -0.079    22.778     7.088
    10   6 C        3.710    -0.062    21.838     6.678
    11   6 C        2.729     0.319    21.577     7.605
    12   8 O        0.860    -0.342    20.560     6.079
    13   7 N        2.738    -0.044    22.083     6.979
    14   6 C        3.697    -0.071    22.035     6.714
    15   1 H        0.924     0.109     1.709     2.044
    16   1 H        0.925     0.108     1.710     2.045
    17   1 H        0.925     0.122     1.599     1.977
    18   1 H        0.000     0.159     3.326     3.335
    19   1 H        0.925     0.116     1.649     2.008
    20   1 H        0.925     0.104     1.748     2.067
    21   1 H        0.925     0.104     1.745     2.066
    22   1 H        0.924     0.092     1.860     2.133
    23   1 H        0.924     0.092     1.859     2.132
    24   1 H        0.925     0.129     1.544     1.943
    25   1 H        0.860     0.217     1.024     1.585

Wiberg/Mayer (AO) data.
largest (>0.10) Wiberg bond orders for each atom

     #   Z sym  total        # sym  WBO       # sym  WBO       # sym  WBO
 ---------------------------------------------------------------------------
     1   6 C    3.913 --     2 N    0.996    17 H    0.962    16 H    0.959
                            15 H    0.951
     2   7 N    3.656 --     3 C    1.348     6 C    1.187     1 C    0.996
     3   6 C    3.035 --     2 N    1.348     4 N    1.298    18 H    0.217
     4   7 N    3.593 --     3 C    1.298     5 C    1.190    25 H    0.924
     5   6 C    3.909 --     6 C    1.313    13 N    1.224     4 N    1.190
     6   6 C    3.826 --     5 C    1.313     2 N    1.187     7 C    1.058
     7   6 C    3.953 --     8 O    1.696     9 N    1.102     6 C    1.058
     8   8 O    2.014 --     7 C    1.696     9 N    0.139
     9   7 N    3.537 --    11 C    1.125     7 C    1.102    10 C    0.969
                             8 O    0.139    12 O    0.131
    10   6 C    3.899 --     9 N    0.969    19 H    0.968    21 H    0.958
                            20 H    0.957
    11   6 C    3.955 --    12 O    1.707     9 N    1.125    13 N    1.032
    12   8 O    2.026 --    11 C    1.707     9 N    0.131    13 N    0.107
    13   7 N    3.488 --     5 C    1.224    11 C    1.032    14 C    0.980
                            12 O    0.107
    14   6 C    3.913 --    13 N    0.980    24 H    0.964    22 H    0.962
                            23 H    0.961
    15   1 H    0.978 --     1 C    0.951
    16   1 H    0.981 --     1 C    0.959
    17   1 H    0.982 --     1 C    0.962
    18   1 H    0.248 --     3 C    0.217
    19   1 H    0.986 --    10 C    0.968
    20   1 H    0.977 --    10 C    0.957
    21   1 H    0.977 --    10 C    0.958
    22   1 H    0.978 --    14 C    0.962
    23   1 H    0.978 --    14 C    0.961
    24   1 H    0.983 --    14 C    0.964
    25   1 H    0.952 --     4 N    0.924
 ---------------------------------------------------------------------------

molecular dipole:
                 x           y           z       tot (Debye)
 q only:        2.281      -2.183       0.000
   full:        2.116      -2.482       0.007       8.291

           -------------------------------------------------
          | TOTAL ENERGY              -42.061346627292 Eh   |
          | GRADIENT NORM               0.002043222187 Eh/α |
          | HOMO-LUMO GAP               0.524570795369 eV   |
           -------------------------------------------------

 * finished run on 2024/06/05 at 19:57:54.681
