   * xtb version 6.6.1 (8d0f1dd) compiled by 'conda@1efc2f54142f' on 2023-08-01
          program call               : xtb xtbopt.xyz --opt crude --input .xc2 --gfn2

   ID    Z sym.   atoms
    1    6 C      1, 3, 5-7, 10, 11, 14
    2    7 N      2, 4, 9, 13
    3    8 O      8, 12
    4    1 H      15-25

          :  Hamiltonian                  GFN2-xTB          :
 * total energy  :   -42.0613921 Eh     change       -0.6468781E-10 Eh
 * total energy  :   -42.0721300 Eh     change       -0.1073789E-01 Eh
 * total energy  :   -42.1040715 Eh     change       -0.3194158E-01 Eh
 * total energy  :   -42.1746209 Eh     change       -0.7054938E-01 Eh
 * total energy  :   -42.2319978 Eh     change       -0.5737686E-01 Eh
 * total energy  :   -42.2331342 Eh     change       -0.1136421E-02 Eh
 * total energy  :   -42.2434460 Eh     change       -0.1031177E-01 Eh
 * total energy  :   -42.2414189 Eh     change        0.2027023E-02 Eh
 * total energy  :   -42.2450883 Eh     change       -0.3669387E-02 Eh
 * total energy  :   -42.2451809 Eh     change       -0.9255691E-04 Eh
   *** GEOMETRY OPTIMIZATION CONVERGED AFTER 10 ITERATIONS ***

 final structure:
================
25
 xtb: 6.6.1 (8d0f1dd)
C            3.21618497424980        1.13305353640242        0.01768814585613
N            2.27215533297978        0.04660706793697        0.00032227193192
C            2.53745427905836       -1.24469316153796       -0.00795206430708
N            1.38819900563708       -1.95325757801676       -0.00799003331131
C            0.35136632014742       -1.06561422299431        0.00099222603978
C            0.91087291756913        0.20056734910704        0.00666660707675
C            0.08240913036746        1.39960852784123       -0.00187167995018
O            0.49292352827380        2.53306618547527       -0.01458783256369
N           -1.26611546679258        1.06986199742148        0.00175632169743
C           -2.22440062641209        2.17098047701338       -0.00209000246807
C           -1.84689248471817       -0.18675610559597        0.00407400598837
O           -3.03139150366289       -0.35248095146951        0.00628425785052
N           -0.96740712227618       -1.29649767472194        0.00183614730636
C           -1.52183656921517       -2.63633053058417       -0.00259411247511
H            3.72001827800674        1.18016381912755        0.98393902956450
H            3.96554201464779        0.99989533475478       -0.76135515262111
H            2.67419558396603        2.06442588990690       -0.14314821566426
H            3.50447494375574       -1.70624705158118       -0.01593347172399
H           -1.66885686330692        3.10474080017838        0.00582413080999
H           -2.84946060885861        2.10969205220617       -0.89168874341397
H           -2.86363818399207        2.10204602085407        0.87673547230379
H           -1.20897888324765       -3.18273715755170        0.88728258841567
H           -1.22012078085262       -3.17256764245987       -0.90253147456937
H           -2.60680273763985       -2.53750832585241        0.00457530671176
H            1.32053703640613       -2.96178011426945       -0.01506211058370

          :  Hamiltonian                  GFN2-xTB          :
         :: total energy             -42.245180884624 Eh    ::
         :: gradient norm              0.005163153753 Eh/a0 ::
         :: HOMO-LUMO gap              3.241780899270 eV    ::
         :: SCC energy               -42.777593453682 Eh    ::
         :: -> dispersion             -0.022672348766 Eh    ::
         :: repulsion energy           0.532297740696 Eh    ::

    * Orbital Energies and Occupations

         #    Occupation            Energy/Eh            Energy/eV
      -------------------------------------------------------------
         1        2.0000           -0.9222725             -25.0963
       ...           ...                  ...                  ...
        25        2.0000           -0.6687298             -18.1971
        26        2.0000           -0.6639381             -18.0667
        27        2.0000           -0.6556382             -17.8408
        28        2.0000           -0.6379812             -17.3604
        29        2.0000           -0.6307374             -17.1632
        30        2.0000           -0.6251835             -17.0121
        31        2.0000           -0.6247545             -17.0004
        32        2.0000           -0.6188577             -16.8400
        33        2.0000           -0.5945952             -16.1798
        34        1.9999           -0.5766727             -15.6921
        35        1.9996           -0.5616163             -15.2824
        36        1.9994           -0.5586272             -15.2010
        37        1.9993           -0.5575408             -15.1715 (HOMO)
        38        0.0017           -0.4384076             -11.9297 (LUMO)
        39        0.0000           -0.4060945             -11.0504
        40        0.0000           -0.3719576             -10.1215
        41                         -0.2881632              -7.8413
        42                         -0.2053372              -5.5875
        43                         -0.2014416              -5.4815
        44                         -0.1477903              -4.0216
        45                         -0.1313618              -3.5745
        46                         -0.0840300              -2.2866
        47                         -0.0485808              -1.3219
        48                         -0.0369116              -1.0044
       ...                                ...                  ...
        67                          0.5643347              15.3563
      -------------------------------------------------------------
                  HL-Gap            0.1191333 Eh            3.2418 eV

     #   Z          covCN         q      C6AA      α(0)
     1   6 C        3.692    -0.098    22.566     6.797
     2   7 N        2.840     0.098    19.554     6.568
     3   6 C        3.074     0.057    26.656     8.465
     4   7 N        2.802    -0.059    22.372     7.025
     5   6 C        3.052     0.117    25.376     8.262
     6   6 C        3.138    -0.026    28.421     8.725
     7   6 C        2.764     0.276    22.327     7.738
     8   8 O        0.858    -0.367    21.039     6.150
     9   7 N        2.746    -0.087    22.929     7.112
    10   6 C        3.711    -0.063    21.841     6.679
    11   6 C        2.729     0.319    21.584     7.606
    12   8 O        0.859    -0.355    20.807     6.116
    13   7 N        2.738    -0.060    22.410     7.031
    14   6 C        3.696    -0.072    22.063     6.719
    15   1 H        0.924     0.113     1.672     2.022
    16   1 H        0.925     0.109     1.708     2.044
    17   1 H        0.925     0.141     1.451     1.884
    18   1 H        0.926     0.129     1.540     1.941
    19   1 H        0.925     0.111     1.684     2.029
    20   1 H        0.925     0.096     1.819     2.109
    21   1 H        0.925     0.097     1.815     2.107
    22   1 H        0.925     0.081     1.968     2.194
    23   1 H        0.925     0.081     1.968     2.194
    24   1 H        0.925     0.129     1.544     1.943
    25   1 H        0.860     0.234     0.950     1.527

Wiberg/Mayer (AO) data.
largest (>0.10) Wiberg bond orders for each atom

     #   Z sym  total        # sym  WBO       # sym  WBO       # sym  WBO
 ---------------------------------------------------------------------------
     1   6 C    3.911 --     2 N    0.982    16 H    0.963    17 H    0.959
                            15 H    0.954
     2   7 N    3.736 --     3 C    1.430     6 C    1.174     1 C    0.982
     3   6 C    3.928 --     2 N    1.430     4 N    1.283    18 H    0.951
     4   7 N    3.610 --     3 C    1.283     5 C    1.188    25 H    0.917
     5   6 C    3.962 --     6 C    1.357    13 N    1.228     4 N    1.188
     6   6 C    3.934 --     5 C    1.357     2 N    1.174     7 C    1.049
     7   6 C    3.966 --     8 O    1.702     9 N    1.120     6 C    1.049
     8   8 O    2.073 --     7 C    1.702     9 N    0.161
     9   7 N    3.578 --     7 C    1.120    11 C    1.120    10 C    0.965
                             8 O    0.161    12 O    0.139
    10   6 C    3.920 --    19 H    0.970    21 H    0.968    20 H    0.968
                             9 N    0.965
    11   6 C    3.960 --    12 O    1.723     9 N    1.120    13 N    1.025
    12   8 O    2.084 --    11 C    1.723     9 N    0.139    13 N    0.124
    13   7 N    3.568 --     5 C    1.228    11 C    1.025    14 C    0.973
                            12 O    0.124
    14   6 C    3.926 --    13 N    0.973    22 H    0.972    23 H    0.972
                            24 H    0.964
    15   1 H    0.987 --     1 C    0.954
    16   1 H    0.988 --     1 C    0.963
    17   1 H    0.980 --     1 C    0.959
    18   1 H    0.982 --     3 C    0.951
    19   1 H    0.987 --    10 C    0.970
    20   1 H    0.990 --    10 C    0.968
    21   1 H    0.990 --    10 C    0.968
    22   1 H    0.992 --    14 C    0.972
    23   1 H    0.992 --    14 C    0.972
    24   1 H    0.983 --    14 C    0.964
    25   1 H    0.945 --     4 N    0.917
 ---------------------------------------------------------------------------

molecular dipole:
                 x           y           z       tot (Debye)
 q only:        2.748      -2.075       0.007
   full:        3.055      -2.620       0.011      10.230

           -------------------------------------------------
          | TOTAL ENERGY              -42.245180884624 Eh   |
          | GRADIENT NORM               0.005163153753 Eh/α |
          | HOMO-LUMO GAP               3.241780899270 eV   |
           -------------------------------------------------

 * finished run on 2024/06/05 at 19:57:55.097
