   * xtb version 6.6.1 (8d0f1dd) compiled by 'conda@1efc2f54142f' on 2023-08-01
          program call               : xtb xtbopt.xyz --opt crude --input .xc2 --gfn2

   ID    Z sym.   atoms
    1    6 C      1, 3, 5-7, 10, 11, 14
    2    7 N      2, 4, 9, 13
    3    8 O      8, 12
    4    1 H      15-25

          :  Hamiltonian                  GFN2-xTB          :
 * total energy  :   -42.0772895 Eh     change       -0.1669775E-11 Eh
   *** GEOMETRY OPTIMIZATION CONVERGED AFTER 1 ITERATIONS ***

 final structure:
================
25
 xtb: 6.6.1 (8d0f1dd)
C            3.46756413123651        2.26381567308255        0.21434814104726
N            3.86151823404050        1.37496898439424       -0.55653749292609
C            1.97284538407327       -1.35254299633296        0.13714434126958
N            1.12673067923685       -2.48123107537001        0.09232082231884
C            0.02924889044730       -1.64503065429490        0.07581112631048
C            0.87529814981584       -0.47992029575363        0.11039512231972
C            0.32431967303976        0.83226763664724        0.08466037322844
O            0.89847499949323        1.89874812396210        0.10491041595433
N           -1.09226280971377        0.75865238400186        0.03220291476897
C           -1.81841983588543        2.02247286381008        0.00390393290682
C           -1.90385461900894       -0.34767942007398       -0.00522612059345
O           -3.09965560673626       -0.28721941552872       -0.05646834809863
N           -1.27504527764924       -1.65501120975626        0.01964893023362
C           -2.11542035293282       -2.82861843543939       -0.03418700485143
H            3.35014393571269        2.03098939989586        1.26565951349479
H            3.99925186293908        1.54925239703764       -1.54637564506490
H            3.24191905924940        3.29740464649815       -0.06360156334633
H            3.03994308131876       -1.30953831938387        0.15910868977073
H           -1.09136566413859        2.82965027995393        0.04025298466597
H           -2.41294764063403        2.09030501752566       -0.90732756681165
H           -2.49279045426784        2.08300328095102        0.85808207997068
H           -1.92899613106356       -3.46580064642031        0.82910310011195
H           -1.91983152850262       -3.38980046856780       -0.94794623738398
H           -3.15379222618990       -2.49756034067080       -0.02790932694131
H            1.27755558022006       -3.47333886856563        0.14919843554979

          :  Hamiltonian                  GFN2-xTB          :
         :: total energy             -42.077289466961 Eh    ::
         :: gradient norm              0.003117944735 Eh/a0 ::
         :: HOMO-LUMO gap              1.067884675080 eV    ::
         :: SCC energy               -42.616787114948 Eh    ::
         :: -> dispersion             -0.020613123587 Eh    ::
         :: repulsion energy           0.539388684510 Eh    ::

    * Orbital Energies and Occupations

         #    Occupation            Energy/Eh            Energy/eV
      -------------------------------------------------------------
         1        2.0000           -0.8858977             -24.1065
       ...           ...                  ...                  ...
        25        1.9999           -0.6596953             -17.9512
        26        1.9996           -0.6408651             -17.4388
        27        1.9993           -0.6333199             -17.2335
        28        1.9992           -0.6303548             -17.1528
        29        1.9988           -0.6236446             -16.9702
        30        1.9987           -0.6228505             -16.9486
        31        1.9968           -0.6081846             -16.5495
        32        1.9955           -0.6031159             -16.4116
        33        1.9885           -0.5881680             -16.0049
        34        1.9561           -0.5666518             -15.4194
        35        1.9492           -0.5642735             -15.3547
        36        1.8765           -0.5496033             -14.9555
        37        1.6588           -0.5315581             -14.4644 (HOMO)
        38        0.5793           -0.4923141             -13.3965 (LUMO)
        39        0.0022           -0.3990185             -10.8578
        40        0.0013           -0.3905256             -10.6267
        41        0.0004           -0.3719088             -10.1202
        42        0.0000           -0.2751977              -7.4885
        43                         -0.2235242              -6.0824
        44                         -0.1832037              -4.9852
        45                         -0.1667013              -4.5362
        46                         -0.1035673              -2.8182
        47                         -0.0710446              -1.9332
        48                         -0.0416119              -1.1323
       ...                                ...                  ...
        67                          0.6610196              17.9873
      -------------------------------------------------------------
                  HL-Gap            0.0392440 Eh            1.0679 eV

     #   Z          covCN         q      C6AA      α(0)
     1   6 C        2.760     0.065    26.524     8.434
     2   7 N        1.770    -0.178    25.637     7.497
     3   6 C        3.375     0.053    23.622     7.585
     4   7 N        2.998    -0.103    23.250     7.161
     5   6 C        3.411     0.144    21.199     7.080
     6   6 C        3.280    -0.068    28.163     8.540
     7   6 C        2.759     0.279    22.272     7.728
     8   8 O        0.857    -0.367    21.041     6.150
     9   7 N        2.748    -0.079    22.766     7.087
    10   6 C        3.713    -0.062    21.833     6.677
    11   6 C        2.743     0.317    21.608     7.611
    12   8 O        0.859    -0.334    20.396     6.055
    13   7 N        2.731    -0.012    21.481     6.884
    14   6 C        3.694    -0.076    22.132     6.731
    15   1 H        0.925     0.123     1.593     1.974
    16   1 H        0.860     0.204     1.085     1.632
    17   1 H        0.924     0.115     1.651     2.010
    18   1 H        0.927     0.123     1.592     1.973
    19   1 H        0.925     0.114     1.661     2.016
    20   1 H        0.925     0.101     1.780     2.086
    21   1 H        0.925     0.101     1.775     2.083
    22   1 H        0.925     0.100     1.784     2.089
    23   1 H        0.925     0.102     1.771     2.081
    24   1 H        0.925     0.131     1.527     1.933
    25   1 H        0.860     0.207     1.071     1.621

Wiberg/Mayer (AO) data.
largest (>0.10) Wiberg bond orders for each atom

     #   Z sym  total        # sym  WBO       # sym  WBO       # sym  WBO
 ---------------------------------------------------------------------------
     1   6 C    3.875 --     2 N    2.033    15 H    0.927    17 H    0.894
     2   7 N    2.968 --     1 C    2.033    16 H    0.912
     3   6 C    3.558 --     6 C    1.360     4 N    1.108    18 H    0.957
     4   7 N    3.424 --     5 C    1.146     3 C    1.108    25 H    0.928
     5   6 C    3.745 --    13 N    1.390     4 N    1.146     6 C    1.082
     6   6 C    3.823 --     3 C    1.360     7 C    1.131     5 C    1.082
     7   6 C    3.938 --     8 O    1.665     6 C    1.131     9 N    1.047
     8   8 O    1.995 --     7 C    1.665     9 N    0.116
     9   7 N    3.524 --    11 C    1.170     7 C    1.047    10 C    0.971
                            12 O    0.143     8 O    0.116
    10   6 C    3.900 --     9 N    0.971    19 H    0.965    21 H    0.959
                            20 H    0.959
    11   6 C    3.932 --    12 O    1.719     9 N    1.170    13 N    0.954
    12   8 O    2.042 --    11 C    1.719     9 N    0.143
    13   7 N    3.558 --     5 C    1.390    14 C    0.975    11 C    0.954
    14   6 C    3.913 --    13 N    0.975    24 H    0.962    22 H    0.961
                            23 H    0.958
    15   1 H    0.948 --     1 C    0.927
    16   1 H    0.934 --     2 N    0.912
    17   1 H    0.904 --     1 C    0.894
    18   1 H    0.984 --     3 C    0.957
    19   1 H    0.984 --    10 C    0.965
    20   1 H    0.977 --    10 C    0.959
    21   1 H    0.977 --    10 C    0.959
    22   1 H    0.982 --    14 C    0.961
    23   1 H    0.981 --    14 C    0.958
    24   1 H    0.982 --    14 C    0.962
    25   1 H    0.955 --     4 N    0.928
 ---------------------------------------------------------------------------

molecular dipole:
                 x           y           z       tot (Debye)
 q only:        1.609      -1.433      -0.034
   full:        1.731      -1.691      -0.092       6.155

           -------------------------------------------------
          | TOTAL ENERGY              -42.077289466961 Eh   |
          | GRADIENT NORM               0.003117944735 Eh/α |
          | HOMO-LUMO GAP               1.067884675080 eV   |
           -------------------------------------------------

 * finished run on 2024/06/05 at 20:00:07.044
