   * xtb version 6.6.1 (8d0f1dd) compiled by 'conda@1efc2f54142f' on 2023-08-01
          program call               : xtb struc.xyz --opt loose --input .xc1 --gfn2

   ID    Z sym.   atoms
    1    6 C      1, 3, 5-7, 10, 11, 14
    2    7 N      2, 4, 9, 13
    3    8 O      8, 12
    4    1 H      15-25
constraining bond 11 13 to    3.9200000 Å, actual value:    1.4172879 Å

          :  Hamiltonian                  GFN2-xTB          :
 * total energy  :   -31.0640570 Eh     change       -0.6650680E-10 Eh
 * total energy  :   -35.1407933 Eh     change       -0.4076736E+01 Eh
 * total energy  :   -38.6065981 Eh     change       -0.3465805E+01 Eh
 * total energy  :   -40.7556359 Eh     change       -0.2149038E+01 Eh
 * total energy  :   -41.6448764 Eh     change       -0.8892406E+00 Eh
 * total energy  :   -41.7870234 Eh     change       -0.1421469E+00 Eh
 * total energy  :   -41.8080870 Eh     change       -0.2106366E-01 Eh
 * total energy  :   -41.8480296 Eh     change       -0.3994259E-01 Eh
 * total energy  :   -41.8736892 Eh     change       -0.2565957E-01 Eh
 * total energy  :   -41.9127221 Eh     change       -0.3903294E-01 Eh
 * total energy  :   -42.1419047 Eh     change       -0.3825695E-03 Eh
 * total energy  :   -42.1423202 Eh     change       -0.4155068E-03 Eh
 * total energy  :   -42.1426151 Eh     change       -0.2948830E-03 Eh
 * total energy  :   -42.1427491 Eh     change       -0.1340156E-03 Eh
 * total energy  :   -42.1428656 Eh     change       -0.1165445E-03 Eh
 * total energy  :   -42.1430012 Eh     change       -0.1355481E-03 Eh
 * total energy  :   -42.1430633 Eh     change       -0.6210136E-04 Eh
 * total energy  :   -42.1431341 Eh     change       -0.7085811E-04 Eh
 * total energy  :   -42.1431814 Eh     change       -0.4724683E-04 Eh
   *** GEOMETRY OPTIMIZATION CONVERGED AFTER 72 ITERATIONS ***

 final structure:
================
25
 xtb: 6.6.1 (8d0f1dd)
C            2.91819435498892        1.23355767168976       -0.24468784305497
N            2.20644649500626       -0.01238582072753       -0.15746915056657
C            2.76735126531189       -1.20097911965468       -0.21802019654205
N            1.84440433744683       -2.15371338910423       -0.11398380201546
C            0.57486446354381       -1.59410237658580        0.06170007272551
C            0.81031202781699       -0.16041893877272       -0.04722638729200
C            0.04236202567928        1.00618088006623        0.06404932149182
O            0.36684478402447        2.12206979073495        0.37361463396361
N           -1.47264661759940        0.91014108159577       -0.37482995263867
C           -2.40026222668722        1.57589289256373        0.54225058273922
C           -1.70323713203070        0.73047671241662       -1.58754162589470
O           -1.76374281587351        0.45583064076574       -2.70229835565609
N           -0.36931128369027       -2.39750808743113        0.35549791271560
C           -1.70921696034675       -2.06580581406046        0.67970229123987
H            2.77086068845010        1.81822711373277        0.66410692043774
H            3.97813967657295        1.03053993457167       -0.37868666298022
H            2.55488410180631        1.82449981094806       -1.08601345294154
H            3.82050504948962       -1.37340110132598       -0.33932438168109
H           -1.87920635075584        2.42228293285862        0.99211259731674
H           -3.28217320504054        1.92938448847747        0.01117075793069
H           -2.69857986475633        0.87477985707570        1.32165275839422
H           -2.12488492156994       -2.91672175813510        1.22155872577647
H           -2.30938837417514       -1.91660234045437       -0.22408161829531
H           -1.77515963518380       -1.17244203186386        1.31003938645964
H            1.99307163167895       -3.15154448778214       -0.09212091373103

          :  Hamiltonian                  GFN2-xTB          :
         :: total energy             -42.143181367177 Eh    ::
         :: gradient norm              0.002960494610 Eh/a0 ::
         :: HOMO-LUMO gap              1.796586900216 eV    ::
         :: SCC energy               -42.704196991759 Eh    ::
         :: -> dispersion             -0.022342550714 Eh    ::
         :: repulsion energy           0.560729919011 Eh    ::

    * Orbital Energies and Occupations

         #    Occupation            Energy/Eh            Energy/eV
      -------------------------------------------------------------
         1        2.0000           -0.9375223             -25.5113
       ...           ...                  ...                  ...
        25        2.0000           -0.6735015             -18.3269
        26        2.0000           -0.6707644             -18.2524
        27        2.0000           -0.6540848             -17.7986
        28        1.9999           -0.6435468             -17.5118
        29        1.9999           -0.6362894             -17.3143
        30        1.9999           -0.6333167             -17.2334
        31        1.9996           -0.6141117             -16.7108
        32        1.9993           -0.6039531             -16.4344
        33        1.9992           -0.6008307             -16.3494
        34        1.9985           -0.5920200             -16.1097
        35        1.9983           -0.5893403             -16.0368
        36        1.8765           -0.5209288             -14.1752
        37        1.8067           -0.5132445             -13.9661 (HOMO)
        38        0.2525           -0.4472212             -12.1695 (LUMO)
        39        0.0614           -0.4231955             -11.5157
        40        0.0053           -0.3838221             -10.4443
        41        0.0030           -0.3747912             -10.1986
        42        0.0001           -0.3112362              -8.4692
        43        0.0000           -0.2489503              -6.7743
        44                         -0.1711516              -4.6573
        45                         -0.1285715              -3.4986
        46                         -0.0965179              -2.6264
        47                         -0.0698435              -1.9005
        48                         -0.0454378              -1.2364
       ...                                ...                  ...
        67                          0.9792548              26.6469
      -------------------------------------------------------------
                  HL-Gap            0.0660234 Eh            1.7966 eV

     #   Z          covCN         q      C6AA      α(0)
     1   6 C        3.694    -0.083    22.273     6.752
     2   7 N        2.822     0.061    20.179     6.672
     3   6 C        2.968     0.076    26.298     8.412
     4   7 N        2.800    -0.072    22.630     7.065
     5   6 C        2.938     0.141    24.937     8.190
     6   6 C        3.035    -0.051    29.229     8.868
     7   6 C        2.746     0.253    22.749     7.810
     8   8 O        0.857    -0.331    20.354     6.049
     9   7 N        2.708    -0.047    22.148     6.990
    10   6 C        3.700    -0.061    21.849     6.685
    11   6 C        1.797     0.317    24.084     7.931
    12   8 O        0.856    -0.126    16.911     5.513
    13   7 N        1.835    -0.222    26.683     7.655
    14   6 C        3.695    -0.034    21.356     6.611
    15   1 H        0.924     0.118     1.626     1.994
    16   1 H        0.925     0.095     1.829     2.115
    17   1 H        0.924     0.103     1.758     2.073
    18   1 H        0.926     0.116     1.650     2.008
    19   1 H        0.924     0.123     1.586     1.970
    20   1 H        0.925     0.096     1.825     2.113
    21   1 H        0.925     0.099     1.790     2.092
    22   1 H        0.924     0.093     1.847     2.125
    23   1 H        0.924     0.061     2.190     2.314
    24   1 H        0.924     0.043     2.413     2.429
    25   1 H        0.860     0.232     0.956     1.532

Wiberg/Mayer (AO) data.
largest (>0.10) Wiberg bond orders for each atom

     #   Z sym  total        # sym  WBO       # sym  WBO       # sym  WBO
 ---------------------------------------------------------------------------
     1   6 C    3.930 --     2 N    0.992    16 H    0.973    17 H    0.961
                            15 H    0.956
     2   7 N    3.663 --     3 C    1.415     6 C    1.080     1 C    0.992
                             4 N    0.111
     3   6 C    3.891 --     2 N    1.415     4 N    1.331    18 H    0.950
     4   7 N    3.562 --     3 C    1.331     5 C    1.079    25 H    0.918
                             2 N    0.111
     5   6 C    3.941 --    13 N    1.608     6 C    1.120     4 N    1.079
     6   6 C    3.799 --     7 C    1.262     5 C    1.120     2 N    1.080
                             8 O    0.107
     7   6 C    3.846 --     8 O    1.733     6 C    1.262     9 N    0.701
     8   8 O    2.105 --     7 C    1.733     6 C    0.107
     9   7 N    3.550 --    11 C    1.579    10 C    0.928     7 C    0.701
                            12 O    0.234
    10   6 C    3.889 --    20 H    0.977    21 H    0.965    19 H    0.960
                             9 N    0.928
    11   6 C    3.742 --    12 O    2.054     9 N    1.579
    12   8 O    2.381 --    11 C    2.054     9 N    0.234
    13   7 N    2.917 --     5 C    1.608    14 C    1.047
    14   6 C    3.951 --    13 N    1.047    22 H    0.962    24 H    0.954
                            23 H    0.948
    15   1 H    0.983 --     1 C    0.956
    16   1 H    0.989 --     1 C    0.973
    17   1 H    0.986 --     1 C    0.961
    18   1 H    0.985 --     3 C    0.950
    19   1 H    0.984 --    10 C    0.960
    20   1 H    0.990 --    10 C    0.977
    21   1 H    0.989 --    10 C    0.965
    22   1 H    0.977 --    14 C    0.962
    23   1 H    0.977 --    14 C    0.948
    24   1 H    0.980 --    14 C    0.954
    25   1 H    0.945 --     4 N    0.918
 ---------------------------------------------------------------------------

molecular dipole:
                 x           y           z       tot (Debye)
 q only:        1.102      -0.614      -0.174
   full:        1.131      -0.561      -0.297       3.298

           -------------------------------------------------
          | TOTAL ENERGY              -42.143181367177 Eh   |
          | GRADIENT NORM               0.002960494610 Eh/α |
          | HOMO-LUMO GAP               1.796586900216 eV   |
           -------------------------------------------------

 * finished run on 2024/06/05 at 19:58:27.223
