   * xtb version 6.6.1 (8d0f1dd) compiled by 'conda@1efc2f54142f' on 2023-08-01
          program call               : xtb xtbopt.xyz --opt crude --input .xc2 --gfn2

   ID    Z sym.   atoms
    1    6 C      1, 3, 5-7, 10, 11, 14
    2    7 N      2, 4, 9, 13
    3    8 O      8, 12
    4    1 H      15-25

          :  Hamiltonian                  GFN2-xTB          :
 * total energy  :   -42.1531855 Eh     change       -0.1705303E-12 Eh
   *** GEOMETRY OPTIMIZATION CONVERGED AFTER 1 ITERATIONS ***

 final structure:
================
25
 xtb: 6.6.1 (8d0f1dd)
C            3.26358180279440        1.17417555661932       -0.01879812183469
N            2.28466467958151        0.12850984354497        0.08961050452204
C            2.51350394499743       -1.20149190060838        0.15194494209310
N            1.41231059717694       -1.90727376270198        0.28029083992776
C            0.41823490663618       -1.00123082662494        0.30253516896751
C            0.93183715814908        0.28575848911395        0.17769375278404
C            0.07491356097749        1.44396298649454        0.05231970421346
O            0.43409964075306        2.59002625381148       -0.05310710184065
N           -1.28403123288862        1.08068838240558        0.03173117858365
C           -2.25346828350254        2.15782504311962       -0.12246322997358
C           -1.83197300227870       -0.17536770757590        0.10382645113301
O           -3.00603128252765       -0.39597377111928        0.02653673666809
N           -0.92124491430218       -1.26867290070167        0.32515445694861
C           -1.35969098635064       -2.54104482807936        0.37860532568663
H            3.81653304890121        1.27038091891754        0.91801727481728
H            3.96951094390974        0.94525796835121       -0.81703531784575
H            2.75959746155105        2.11684894026707       -0.22899273145502
H            3.47742491268585       -1.65866866752964        0.06941429886442
H           -1.72295320792188        3.10531223928478       -0.05733901019488
H           -2.75357836222755        2.07779896526693       -1.08838364313804
H           -3.00762541474517        2.08823710183816        0.66087600746286
H           -0.79482285273230       -3.22126539771941        1.00105816657718
H           -0.73324129287036       -3.19116481704632       -0.91827339191171
H           -2.42946913119683       -2.67301319402541        0.26795342035755
H           -0.09765118046883       -3.41137637370197       -1.50200406351287

          :  Hamiltonian                  GFN2-xTB          :
         :: total energy             -42.153185479521 Eh    ::
         :: gradient norm              0.004574522854 Eh/a0 ::
         :: HOMO-LUMO gap              1.992358541620 eV    ::
         :: SCC energy               -42.679736112034 Eh    ::
         :: -> dispersion             -0.023436233430 Eh    ::
         :: repulsion energy           0.526398848618 Eh    ::

    * Orbital Energies and Occupations

         #    Occupation            Energy/Eh            Energy/eV
      -------------------------------------------------------------
         1        2.0000           -0.9018680             -24.5411
       ...           ...                  ...                  ...
        25        1.9997           -0.6635635             -18.0565
        26        1.9996           -0.6590263             -17.9330
        27        1.9995           -0.6575518             -17.8929
        28        1.9992           -0.6477958             -17.6274
        29        1.9982           -0.6359460             -17.3050
        30        1.9971           -0.6283613             -17.0986
        31        1.9935           -0.6153791             -16.7453
        32        1.9877           -0.6051829             -16.4679
        33        1.9851           -0.6021611             -16.3856
        34        1.9532           -0.5837389             -15.8843
        35        1.9422           -0.5803164             -15.7912
        36        1.9177           -0.5745135             -15.6333
        37        1.9023           -0.5716664             -15.5558 (HOMO)
        38        0.3208           -0.4984486             -13.5635 (LUMO)
        39        0.0040           -0.4261503             -11.5961
        40        0.0004           -0.3909797             -10.6391
        41        0.0001           -0.3710511             -10.0968
        42        0.0000           -0.2966495              -8.0722
        43                         -0.2091200              -5.6904
        44                         -0.1625403              -4.4229
        45                         -0.1388025              -3.7770
        46                         -0.0678374              -1.8459
        47                         -0.0524554              -1.4274
        48                         -0.0440245              -1.1980
       ...                                ...                  ...
        67                          0.5452054              14.8358
      -------------------------------------------------------------
                  HL-Gap            0.0732178 Eh            1.9924 eV

     #   Z          covCN         q      C6AA      α(0)
     1   6 C        3.689    -0.082    22.259     6.752
     2   7 N        2.842     0.049    20.375     6.704
     3   6 C        3.203     0.095    25.348     8.202
     4   7 N        1.900    -0.227    26.803     7.676
     5   6 C        3.207     0.112    24.957     8.135
     6   6 C        3.114    -0.009    28.091     8.682
     7   6 C        2.762     0.275    22.351     7.742
     8   8 O        0.858    -0.328    20.296     6.040
     9   7 N        2.743    -0.073    22.657     7.069
    10   6 C        3.711    -0.064    21.868     6.683
    11   6 C        2.725     0.317    21.617     7.612
    12   8 O        0.859    -0.331    20.353     6.049
    13   7 N        2.738    -0.004    21.334     6.860
    14   6 C        2.920     0.001    28.011     8.679
    15   1 H        0.924     0.108     1.716     2.048
    16   1 H        0.925     0.104     1.753     2.071
    17   1 H        0.925     0.122     1.598     1.977
    18   1 H        0.927     0.109     1.707     2.043
    19   1 H        0.925     0.122     1.601     1.979
    20   1 H        0.924     0.106     1.729     2.056
    21   1 H        0.925     0.109     1.709     2.045
    22   1 H        0.925     0.144     1.434     1.872
    23   1 H        0.433     0.075     3.752     3.408
    24   1 H        0.925     0.151     1.384     1.840
    25   1 H        0.315     0.121     3.670     3.468

Wiberg/Mayer (AO) data.
largest (>0.10) Wiberg bond orders for each atom

     #   Z sym  total        # sym  WBO       # sym  WBO       # sym  WBO
 ---------------------------------------------------------------------------
     1   6 C    3.913 --     2 N    0.993    17 H    0.963    16 H    0.961
                            15 H    0.951
     2   7 N    3.665 --     3 C    1.291     6 C    1.210     1 C    0.993
     3   6 C    3.908 --     4 N    1.478     2 N    1.291    18 H    0.955
     4   7 N    2.985 --     3 C    1.478     5 C    1.291
     5   6 C    3.914 --     6 C    1.317     4 N    1.291    13 N    1.108
     6   6 C    3.878 --     5 C    1.317     2 N    1.210     7 C    1.066
     7   6 C    3.940 --     8 O    1.712     9 N    1.071     6 C    1.066
     8   8 O    2.016 --     7 C    1.712     9 N    0.125
     9   7 N    3.537 --    11 C    1.161     7 C    1.071    10 C    0.969
                            12 O    0.143     8 O    0.125
    10   6 C    3.887 --     9 N    0.969    19 H    0.962    21 H    0.957
                            20 H    0.953
    11   6 C    3.938 --    12 O    1.726     9 N    1.161    13 N    0.964
    12   8 O    2.052 --    11 C    1.726     9 N    0.143
    13   7 N    3.615 --    14 C    1.289     5 C    1.108    11 C    0.964
    14   6 C    3.648 --    13 N    1.289    24 H    0.950    22 H    0.946
                            23 H    0.293
    15   1 H    0.979 --     1 C    0.951
    16   1 H    0.983 --     1 C    0.961
    17   1 H    0.981 --     1 C    0.963
    18   1 H    0.986 --     3 C    0.955
    19   1 H    0.981 --    10 C    0.962
    20   1 H    0.973 --    10 C    0.953
    21   1 H    0.975 --    10 C    0.957
    22   1 H    0.975 --    14 C    0.946
    23   1 H    0.987 --    25 H    0.678    14 C    0.293
    24   1 H    0.975 --    14 C    0.950
    25   1 H    0.852 --    23 H    0.678
 ---------------------------------------------------------------------------

molecular dipole:
                 x           y           z       tot (Debye)
 q only:        0.940      -1.621      -0.137
   full:        1.171      -1.554      -0.124       4.956

           -------------------------------------------------
          | TOTAL ENERGY              -42.153185479521 Eh   |
          | GRADIENT NORM               0.004574522854 Eh/α |
          | HOMO-LUMO GAP               1.992358541620 eV   |
           -------------------------------------------------

 * finished run on 2024/06/05 at 20:00:20.389
