   * xtb version 6.6.1 (8d0f1dd) compiled by 'conda@1efc2f54142f' on 2023-08-01
          program call               : xtb xtbopt.xyz --opt crude --input .xc2 --gfn2

   ID    Z sym.   atoms
    1    7 N      1, 17
    2    6 C      2-6, 8, 9, 11-16, 18-23, 25, 26, 28-33
    3    8 O      7, 10, 24, 27
    4    1 H      34-72

          :  Hamiltonian                  GFN2-xTB          :
 * total energy  :   -99.2521979 Eh     change       -0.1385558E-10 Eh
   *** GEOMETRY OPTIMIZATION CONVERGED AFTER 1 ITERATIONS ***

 final structure:
================
72
 xtb: 6.6.1 (8d0f1dd)
N           -1.99885115157241        3.05319648770543        2.19759536308693
C           -1.93522064915392        2.27640186940386        1.22166646706728
C           -3.05792909175472        2.02872421315652        0.25119624183854
C           -3.52558757423844        0.58611651828932        0.37317323644144
C           -4.39781584684015        0.05112908008180       -0.57484803259703
C           -4.83837770102819       -1.26253628049441       -0.50379839435770
O           -5.68640101437173       -1.86244214299641       -1.36210454124229
C           -6.32493591295184       -1.09025869164078       -2.35388362553233
C           -4.35466846052253       -2.07520161610294        0.56064654809179
O           -4.75213304481056       -3.37383720987569        0.57206809817437
C           -4.41913159975150       -4.16260861169509        1.55521714076938
C           -3.50994788546170       -1.52510578498920        1.50350410534513
C           -3.10261419976100       -0.22109863877247        1.43445754113247
C           -2.45676266900768        2.27152063243990       -1.15860359562569
C           -1.52738712086228        1.15142986786382       -1.65981578821870
C           -0.20905271515724        1.12574590524655       -0.98767060401966
N            0.41737693904340        0.03498672541685       -0.56280583617075
C            1.80120264719525        0.09784847057089       -0.15605592771970
C            2.74292363996369       -0.40082052240160       -1.26988593181877
C            4.17476372229286       -0.21031519990933       -0.85498899821941
C            4.81113626426984        1.00256914985565       -1.06363325454257
C            6.12365267184422        1.19409348070958       -0.66156230735510
C            6.82688811114524        0.17391683120508       -0.03718557533956
O            8.10169809382176        0.24628384500109        0.38891382403261
C            8.82881217046911        1.43522674958478        0.18112637467521
C            6.18055982517852       -1.07313214838306        0.18613031615720
O            6.93506186483299       -2.00909213399366        0.79593149915392
C            6.39223238902650       -3.28657300060392        1.02955847713937
C            4.86677445180922       -1.24027183726300       -0.22291057021560
C           -0.20794157017989       -1.26577112148132       -0.58207653237658
C           -4.28612291031646        2.95956526157080        0.47404186030180
C           -4.94742380976914        2.69903169217770        1.82529787106129
C           -3.94532252792545        4.44171639648463        0.34553611198999
H           -4.74436703610745        0.67699499735944       -1.38091140156807
H           -6.88436609733642       -0.26172169593350       -1.91238816311620
H           -7.01477931649765       -1.76888141928635       -2.85164841445420
H           -5.60919850393667       -0.70372187361820       -3.08480292465018
H           -3.99050839981915       -3.76080657123962        2.46147535709551
H           -4.76655095293221       -5.17669955189948        1.47697532827285
H           -2.42061350630390       -4.41737460939995        0.98152270524327
H           -1.71535706242090       -4.22023471030408        0.66141944127919
H           -2.46834634518806        0.19129790831898        2.20447369707507
H           -3.27223649924704        2.38031344800820       -1.87279977156898
H           -1.90432202359245        3.21184064233340       -1.14469523147333
H           -2.03439039757537        0.19116946888573       -1.58298920216486
H           -1.34544001977243        1.34793007055544       -2.72473674540555
H           -1.02275791245012        1.71766202603370        0.93600736829699
H            0.35607512107017        2.04585468908594       -0.96597009792181
H            1.94157858284094       -0.51115765364597        0.74087061463370
H            2.06014968668157        1.13015715804823        0.08775101425414
H            2.54102464495937        0.16965914961988       -2.17835900950877
H            2.54643099215620       -1.45407350963152       -1.47253643763278
H            4.28949080063712        1.80880800737714       -1.55677736714963
H            6.59405024325437        2.14609469595162       -0.84463921595117
H            8.37755633904883        2.27894649687527        0.71215916216221
H            8.90989124812669        1.67406329377903       -0.88350790321449
H            9.82131597827228        1.24472228391855        0.58472016714680
H            7.18502030567769       -3.85779337547348        1.50847333164396
H            5.52703283651421       -3.23928012088490        1.69861117925705
H            6.10660294488316       -3.77816428124267        0.09437626994478
H            4.37002242283090       -2.18480188857452       -0.06550526800963
H           -0.37921464623291       -1.60812494765177       -1.60496583894998
H           -1.16461531302564       -1.23828352934443       -0.05409394352741
H            0.44063596055332       -1.97974490431402       -0.08126973304080
H           -5.01057357139959        2.70884476308476       -0.30977228280994
H           -4.26880631905764        2.96611320935058        2.62892968205081
H           -5.22778541242974        1.65386686262839        1.93257257197601
H           -5.84516468313785        3.30508706580961        1.91403723712467
H           -3.20701826496798        4.72377415785197        1.08956348203670
H           -3.57136327202651        4.68939248936140       -0.64429807136671
H           -4.84337011088460        5.02888711566423        0.51844583122900
H           -1.16867217961478        3.16308592887553        2.77131586424931

          :  Hamiltonian                  GFN2-xTB          :
         :: total energy             -99.252197896121 Eh    ::
         :: gradient norm              0.002855608548 Eh/a0 ::
         :: HOMO-LUMO gap              0.622696873359 eV    ::
         :: SCC energy              -100.640658558964 Eh    ::
         :: -> dispersion             -0.075537786648 Eh    ::
         :: repulsion energy           1.387176945148 Eh    ::

    * Orbital Energies and Occupations

         #    Occupation            Energy/Eh            Energy/eV
      -------------------------------------------------------------
         1        2.0000           -0.8421020             -22.9148
       ...           ...                  ...                  ...
        78        1.9986           -0.5295513             -14.4098
        79        1.9984           -0.5273743             -14.3506
        80        1.9983           -0.5272203             -14.3464
        81        1.9972           -0.5186608             -14.1135
        82        1.9968           -0.5166325             -14.0583
        83        1.9957           -0.5121637             -13.9367
        84        1.9955           -0.5113123             -13.9135
        85        1.9862           -0.4935218             -13.4294
        86        1.9792           -0.4870269             -13.2527
        87        1.9601           -0.4765207             -12.9668
        88        1.9405           -0.4700403             -12.7904
        89        1.8477           -0.4543724             -12.3641
        90        1.2871           -0.4242142             -11.5435 (HOMO)
        91        0.5970           -0.4013305             -10.9208 (LUMO)
        92        0.4042           -0.3931167             -10.6972
        93        0.0146           -0.3371080              -9.1732
        94        0.0032           -0.3127468              -8.5103
        95        0.0028           -0.3108004              -8.4573
        96        0.0024           -0.3086390              -8.3985
        97        0.0021           -0.3065792              -8.3424
        98        0.0000           -0.1859656              -5.0604
        99        0.0000           -0.1847948              -5.0285
       100                         -0.1342885              -3.6542
       101                         -0.0683536              -1.8600
       ...                                ...                  ...
       171                          0.5776763              15.7194
      -------------------------------------------------------------
                  HL-Gap            0.0228837 Eh            0.6227 eV

     #   Z          covCN         q      C6AA      α(0)
     1   7 N        1.774    -0.270    27.817     7.810
     2   6 C        2.827     0.102    25.731     8.312
     3   6 C        3.907     0.008    20.388     6.418
     4   6 C        2.978     0.008    27.840     8.655
     5   6 C        2.919    -0.084    30.116     8.999
     6   6 C        2.860     0.132    25.103     8.212
     7   8 O        1.705    -0.238    17.938     5.718
     8   6 C        3.645     0.029    20.427     6.496
     9   6 C        2.893     0.105    25.680     8.309
    10   8 O        1.709    -0.109    15.958     5.394
    11   6 C        2.754     0.044    26.995     8.508
    12   6 C        1.992    -0.140    34.999     9.554
    13   6 C        2.920    -0.043    29.078     8.843
    14   6 C        3.813    -0.064    21.710     6.632
    15   6 C        3.802    -0.068    21.806     6.648
    16   6 C        2.843     0.006    27.886     8.654
    17   7 N        2.729     0.011    21.060     6.816
    18   6 C        3.756    -0.017    20.923     6.522
    19   6 C        3.808    -0.070    21.836     6.652
    20   6 C        2.969    -0.001    28.037     8.685
    21   6 C        2.922    -0.049    29.221     8.865
    22   6 C        2.914    -0.068    29.684     8.934
    23   6 C        2.865     0.133    25.084     8.210
    24   8 O        1.706    -0.222    17.690     5.679
    25   6 C        3.645     0.025    20.485     6.505
    26   6 C        2.863     0.133    25.089     8.210
    27   8 O        1.706    -0.225    17.732     5.685
    28   6 C        3.645     0.027    20.452     6.500
    29   6 C        2.919    -0.079    29.983     8.979
    30   6 C        3.699    -0.069    21.995     6.707
    31   6 C        3.853    -0.006    20.652     6.463
    32   6 C        3.756    -0.118    22.809     6.810
    33   6 C        3.755    -0.119    22.830     6.813
    34   1 H        0.926     0.051     2.308     2.375
    35   1 H        0.924     0.054     2.267     2.355
    36   1 H        0.925     0.080     1.978     2.199
    37   1 H        0.924     0.048     2.347     2.396
    38   1 H        0.926     0.083     1.951     2.184
    39   1 H        0.926     0.093     1.848     2.126
    40   1 H        0.735     0.013     2.972     2.726
    41   1 H        0.735    -0.003     3.242     2.847
    42   1 H        0.926     0.044     2.394     2.420
    43   1 H        0.925     0.059     2.212     2.326
    44   1 H        0.924     0.054     2.273     2.358
    45   1 H        0.925     0.065     2.145     2.291
    46   1 H        0.923     0.078     1.997     2.210
    47   1 H        0.922     0.006     2.964     2.692
    48   1 H        0.926     0.069     2.102     2.267
    49   1 H        0.924     0.068     2.106     2.269
    50   1 H        0.924     0.068     2.110     2.272
    51   1 H        0.924     0.055     2.263     2.353
    52   1 H        0.924     0.055     2.259     2.350
    53   1 H        0.926     0.044     2.395     2.420
    54   1 H        0.926     0.058     2.221     2.331
    55   1 H        0.924     0.054     2.270     2.356
    56   1 H        0.924     0.055     2.253     2.347
    57   1 H        0.925     0.082     1.957     2.188
    58   1 H        0.925     0.082     1.962     2.191
    59   1 H        0.924     0.049     2.334     2.389
    60   1 H        0.924     0.052     2.292     2.368
    61   1 H        0.926     0.047     2.352     2.398
    62   1 H        0.924     0.074     2.041     2.234
    63   1 H        0.924     0.081     1.969     2.195
    64   1 H        0.925     0.080     1.978     2.199
    65   1 H        0.924     0.035     2.515     2.480
    66   1 H        0.925     0.069     2.093     2.262
    67   1 H        0.925     0.035     2.515     2.480
    68   1 H        0.925     0.050     2.316     2.380
    69   1 H        0.925     0.062     2.178     2.308
    70   1 H        0.925     0.034     2.527     2.486
    71   1 H        0.925     0.054     2.267     2.354
    72   1 H        0.860     0.157     1.355     1.823

Wiberg/Mayer (AO) data.
largest (>0.10) Wiberg bond orders for each atom

     #   Z sym  total        # sym  WBO       # sym  WBO       # sym  WBO
 ---------------------------------------------------------------------------
     1   7 N    3.035 --     2 C    1.954    72 H    0.942
     2   6 C    3.929 --     1 N    1.954     3 C    0.994    47 H    0.903
     3   6 C    3.967 --     2 C    0.994     4 C    0.966    14 C    0.955
                            31 C    0.941
     4   6 C    3.870 --     5 C    1.385    13 C    1.346     3 C    0.966
     5   6 C    3.960 --     6 C    1.389     4 C    1.385    34 H    0.955
     6   6 C    3.848 --     5 C    1.389     9 C    1.203     7 O    1.100
     7   8 O    2.252 --     6 C    1.100     8 C    0.973
     8   6 C    3.928 --    36 H    0.977    35 H    0.975    37 H    0.974
                             7 O    0.973
     9   6 C    3.848 --    12 C    1.355     6 C    1.203    10 O    1.039
    10   8 O    2.409 --    11 C    1.277     9 C    1.039
    11   6 C    3.395 --    10 O    1.277    39 H    0.966    38 H    0.959
    12   6 C    2.993 --    13 C    1.459     9 C    1.355
    13   6 C    3.936 --    12 C    1.459     4 C    1.346    42 H    0.950
    14   6 C    3.971 --    15 C    0.982    44 H    0.972    43 H    0.969
                             3 C    0.955
    15   6 C    3.987 --    16 C    1.059    14 C    0.982    45 H    0.961
                            46 H    0.928
    16   6 C    3.587 --    17 N    1.401    15 C    1.059    48 H    0.957
    17   7 N    3.476 --    16 C    1.401    30 C    0.998    18 C    0.988
    18   6 C    3.955 --    17 N    0.988    50 H    0.968    19 C    0.966
                            49 H    0.964
    19   6 C    3.976 --    20 C    1.008    52 H    0.972    51 H    0.971
                            18 C    0.966
    20   6 C    3.945 --    21 C    1.409    29 C    1.381    19 C    1.008
    21   6 C    3.950 --    22 C    1.417    20 C    1.409    53 H    0.968
    22   6 C    3.960 --    21 C    1.417    23 C    1.383    54 H    0.963
    23   6 C    3.896 --    22 C    1.383    26 C    1.221    24 O    1.109
    24   8 O    2.255 --    23 C    1.109    25 C    0.976
    25   6 C    3.929 --    57 H    0.977    24 O    0.976    56 H    0.973
                            55 H    0.973
    26   6 C    3.899 --    29 C    1.394    23 C    1.221    27 O    1.103
    27   8 O    2.255 --    26 C    1.103    28 C    0.979
    28   6 C    3.932 --    27 O    0.979    58 H    0.977    59 H    0.973
                            60 H    0.973
    29   6 C    3.959 --    26 C    1.394    20 C    1.381    61 H    0.962
    30   6 C    3.957 --    17 N    0.998    64 H    0.977    62 H    0.967
                            63 H    0.961
    31   6 C    3.972 --    32 C    1.008    33 C    1.008    65 H    0.961
                             3 C    0.941
    32   6 C    3.980 --    31 C    1.008    67 H    0.982    68 H    0.982
                            66 H    0.974
    33   6 C    3.982 --    31 C    1.008    70 H    0.983    71 H    0.980
                            69 H    0.977
    34   1 H    0.991 --     5 C    0.955
    35   1 H    0.994 --     8 C    0.975
    36   1 H    0.993 --     8 C    0.977
    37   1 H    0.994 --     8 C    0.974
    38   1 H    0.992 --    11 C    0.959
    39   1 H    0.990 --    11 C    0.966
    40   1 H    1.000 --    41 H    0.939
    41   1 H    0.964 --    40 H    0.939
    42   1 H    0.985 --    13 C    0.950
    43   1 H    0.995 --    14 C    0.969
    44   1 H    0.996 --    14 C    0.972
    45   1 H    0.995 --    15 C    0.961
    46   1 H    0.970 --    15 C    0.928
    47   1 H    0.987 --     2 C    0.903
    48   1 H    0.995 --    16 C    0.957
    49   1 H    0.991 --    18 C    0.964
    50   1 H    0.994 --    18 C    0.968
    51   1 H    0.996 --    19 C    0.971
    52   1 H    0.996 --    19 C    0.972
    53   1 H    0.997 --    21 C    0.968
    54   1 H    0.995 --    22 C    0.963
    55   1 H    0.992 --    25 C    0.973
    56   1 H    0.992 --    25 C    0.973
    57   1 H    0.993 --    25 C    0.977
    58   1 H    0.993 --    28 C    0.977
    59   1 H    0.993 --    28 C    0.973
    60   1 H    0.993 --    28 C    0.973
    61   1 H    0.997 --    29 C    0.962
    62   1 H    0.985 --    30 C    0.967
    63   1 H    0.987 --    30 C    0.961
    64   1 H    0.993 --    30 C    0.977
    65   1 H    0.993 --    31 C    0.961
    66   1 H    0.991 --    32 C    0.974
    67   1 H    0.997 --    32 C    0.982
    68   1 H    0.994 --    32 C    0.982
    69   1 H    0.993 --    33 C    0.977
    70   1 H    0.997 --    33 C    0.983
    71   1 H    0.994 --    33 C    0.980
    72   1 H    0.970 --     1 N    0.942
 ---------------------------------------------------------------------------

molecular dipole:
                 x           y           z       tot (Debye)
 q only:        0.246      -0.435      -0.821
   full:        0.342      -0.356      -1.228       3.365

           -------------------------------------------------
          | TOTAL ENERGY              -99.252197896121 Eh   |
          | GRADIENT NORM               0.002855608548 Eh/α |
          | HOMO-LUMO GAP               0.622696873359 eV   |
           -------------------------------------------------

 * finished run on 2024/04/06 at 11:12:22.427
