   * xtb version 6.6.1 (8d0f1dd) compiled by 'conda@1efc2f54142f' on 2023-08-01
          program call               : xtb struc.xyz --opt loose --input .xc1 --gfn2

   ID    Z sym.   atoms
    1    7 N      1, 17
    2    6 C      2-6, 8, 9, 11-16, 18-23, 25, 26, 28-33
    3    8 O      7, 10, 24, 27
    4    1 H      34-72
constraining bond 9 41 to    2.7133300 Å, actual value:    2.1407326 Å

          :  Hamiltonian                  GFN2-xTB          :
 * total energy  :   -99.4626728 Eh     change       -0.4035485E-08 Eh
 * total energy  :   -99.5329813 Eh     change       -0.7030857E-01 Eh
 * total energy  :   -99.6157955 Eh     change       -0.8281419E-01 Eh
 * total energy  :   -99.6741636 Eh     change       -0.5836807E-01 Eh
 * total energy  :   -99.6902796 Eh     change       -0.1611604E-01 Eh
 * total energy  :   -99.7136450 Eh     change       -0.2336533E-01 Eh
 * total energy  :   -99.7285134 Eh     change       -0.1486843E-01 Eh
 * total energy  :   -99.7471071 Eh     change       -0.1859372E-01 Eh
 * total energy  :   -99.7587926 Eh     change       -0.1168546E-01 Eh
 * total energy  :   -99.7705724 Eh     change       -0.1177980E-01 Eh
 * total energy  :   -99.8572332 Eh     change       -0.1095745E-03 Eh
 * total energy  :   -99.8574181 Eh     change       -0.1849549E-03 Eh
 * total energy  :   -99.8575947 Eh     change       -0.1765588E-03 Eh
 * total energy  :   -99.8577572 Eh     change       -0.1625060E-03 Eh
 * total energy  :   -99.8578818 Eh     change       -0.1245988E-03 Eh
 * total energy  :   -99.8579860 Eh     change       -0.1042110E-03 Eh
 * total energy  :   -99.8580474 Eh     change       -0.6137341E-04 Eh
 * total energy  :   -99.8581000 Eh     change       -0.5258887E-04 Eh
 * total energy  :   -99.8581308 Eh     change       -0.3084821E-04 Eh
   *** GEOMETRY OPTIMIZATION CONVERGED AFTER 56 ITERATIONS ***

 final structure:
================
72
 xtb: 6.6.1 (8d0f1dd)
N           -1.76182247970482        3.23959027243369        2.00711147760096
C           -1.83830751675349        2.29764035873786        1.18923222140480
C           -3.01180694703265        2.05770691437779        0.27735818740159
C           -3.57737672360926        0.68372346601679        0.55103624417336
C           -4.49087822107527        0.08828076577922       -0.32801734952489
C           -4.89550634932800       -1.21245452578491       -0.18560337546924
O           -5.88420171184512       -1.82843183987080       -0.84216029045663
C           -6.69580091311925       -1.08851770138441       -1.73303768923949
C           -4.19099651189829       -2.15738356405752        0.78611497536250
O           -3.16645952893412       -2.83680413973070       -0.00144382001643
C           -2.97822309938404       -4.18058842039083        0.37481427950369
C           -3.48583865022741       -1.34493221942161        1.80076812382394
C           -3.19299329988608       -0.04856027510465        1.71741488960336
C           -2.45135116806470        2.11355672116143       -1.17123002111673
C           -1.62241231016097        0.88573963814046       -1.58374398687171
C           -0.28855721762934        0.83880328964420       -0.94803422892817
N            0.32796205152178       -0.26033703766331       -0.54614567467005
C            1.70379959788766       -0.19885516837893       -0.11199261098095
C            2.67494462150326       -0.56817724216248       -1.25105779492305
C            4.09277932354477       -0.31155006839183       -0.82379223869156
C            4.66576970622997        0.93621506493279       -1.01009004213449
C            5.96598486279458        1.18961559819391       -0.60206818838097
C            6.72000220779213        0.19727820231915        0.00742934164868
O            7.98889071246044        0.32664889518409        0.43604573047348
C            8.65796099080304        1.55185826306072        0.24457317314136
C            6.13742023701563       -1.08460045940074        0.21149997100921
O            6.93896461825070       -1.98713069689200        0.81029600291319
C            6.46326066473638       -3.29267606579246        1.03408756226850
C            4.83514669581266       -1.31393777179069       -0.20445631884152
C           -0.27082479157972       -1.56829660942863       -0.66196800844789
C           -4.15795062258768        3.10234267924344        0.44389514841089
C           -4.77512239028952        3.02431501170873        1.83827119463352
C           -3.71726404097403        4.53351296800584        0.15178082526543
H           -4.90821023284669        0.68690530511191       -1.12376224467475
H           -7.15261499180651       -0.23258724546924       -1.22930574902963
H           -7.47089359420221       -1.77519340546114       -2.06645662435761
H           -6.11908152074241       -0.74409763012808       -2.59621495372591
H           -3.88489471215597       -4.77140628793160        0.21414592503139
H           -2.18213207770653       -4.56329497633181       -0.26081478447366
H           -2.67653220877948       -4.25965218637169        1.42434705688915
H           -4.73642749816737       -2.72219052582106        1.09888491779580
H           -2.64485497334437        0.45766281993367        2.49736104133824
H           -3.28941167822028        2.20477689968726       -1.86197270641564
H           -1.83991746949610        3.01100255703067       -1.27425692478382
H           -2.18511344822856       -0.02754157950149       -1.39149204432144
H           -1.47033585598078        0.95260117802323       -2.66963103794602
H           -1.03204377404436        1.56063215964926        1.01815266765704
H            0.28015591691926        1.75635620522195       -0.90648616689584
H            1.84592865788082       -0.88262515455606        0.72793147152734
H            1.93101667297633        0.81359600725788        0.22888195003576
H            2.43710725174895        0.04507830041018       -2.12242211881256
H            2.54376779230138       -1.61672433214228       -1.52016353301292
H            4.10402992265137        1.72268682021430       -1.49103146482355
H            6.38667609157605        2.16750503056520       -0.76916001724704
H            8.16668765792929        2.36587461523761        0.78624157995287
H            8.72763913438425        1.80833476918029       -0.81676319643679
H            9.65837586681387        1.40379375168707        0.64642527597806
H            7.28561425077946       -3.82565010822702        1.50734287570792
H            5.59792970537443       -3.29538123868145        1.70464291313374
H            6.20183641832097       -3.79124338905371        0.09551485636703
H            4.38800691194740       -2.28533150596151       -0.06291963764300
H           -0.37847152369284       -1.85782050629640       -1.70936607531495
H           -1.25972674471726       -1.59923435780526       -0.19911417214303
H            0.36138117852725       -2.29698474272805       -0.16264553980664
H           -4.93117218894195        2.83009906111091       -0.28412772145549
H           -4.04476039573737        3.31582749176650        2.58628694672858
H           -5.12438562244180        2.01777333965155        2.05783788293348
H           -5.62224737973574        3.70205107884780        1.90147191704090
H           -2.92642773464946        4.82974025204078        0.83334190990428
H           -3.37448834888264        4.65320529536164       -0.87243062624503
H           -4.56281711808283        5.20043977597155        0.29991021792655
H           -0.91186853679305        3.32156167770513        2.55619306627191

          :  Hamiltonian                  GFN2-xTB          :
         :: total energy             -99.858130841851 Eh    ::
         :: gradient norm              0.002390833103 Eh/a0 ::
         :: HOMO-LUMO gap              0.549748172850 eV    ::
         :: SCC energy              -100.673058212479 Eh    ::
         :: -> dispersion             -0.075506532769 Eh    ::
         :: repulsion energy           1.436629032412 Eh    ::

    * Orbital Energies and Occupations

         #    Occupation            Energy/Eh            Energy/eV
      -------------------------------------------------------------
         1        2.0000           -0.8249244             -22.4473
       ...           ...                  ...                  ...
        78        1.9986           -0.5315692             -14.4647
        79        1.9984           -0.5296318             -14.4120
        80        1.9982           -0.5280047             -14.3677
        81        1.9970           -0.5196346             -14.1400
        82        1.9963           -0.5160820             -14.0433
        83        1.9961           -0.5151454             -14.0178
        84        1.9958           -0.5139966             -13.9866
        85        1.9890           -0.4988827             -13.5753
        86        1.9783           -0.4880187             -13.2797
        87        1.9780           -0.4877692             -13.2729
        88        1.9408           -0.4718212             -12.8389
        89        1.8414           -0.4553901             -12.3918
        90        1.2620           -0.4250661             -11.5666 (HOMO)
        91        0.6463           -0.4048632             -11.0169 (LUMO)
        92        0.3705           -0.3931171             -10.6973
        93        0.0146           -0.3388293              -9.2200
        94        0.0027           -0.3118760              -8.4866
        95        0.0023           -0.3097086              -8.4276
        96        0.0014           -0.3017699              -8.2116
        97        0.0000           -0.2475617              -6.7365
        98        0.0000           -0.1870534              -5.0900
        99                         -0.1324149              -3.6032
       100                         -0.0813042              -2.2124
       101                         -0.0693202              -1.8863
       ...                                ...                  ...
       171                          0.8201952              22.3186
      -------------------------------------------------------------
                  HL-Gap            0.0202029 Eh            0.5497 eV

     #   Z          covCN         q      C6AA      α(0)
     1   7 N        1.774    -0.271    27.863     7.817
     2   6 C        2.827     0.102    25.731     8.312
     3   6 C        3.907     0.010    20.359     6.413
     4   6 C        2.984     0.013    27.726     8.637
     5   6 C        2.903    -0.082    30.042     8.987
     6   6 C        2.854     0.135    25.052     8.204
     7   8 O        1.705    -0.218    17.620     5.667
     8   6 C        3.645     0.022    20.536     6.513
     9   6 C        3.751     0.106    18.903     6.200
    10   8 O        1.696    -0.329    19.514     5.964
    11   6 C        3.641     0.036    20.316     6.481
    12   6 C        1.990    -0.105    33.943     9.409
    13   6 C        2.902    -0.039    28.965     8.825
    14   6 C        3.812    -0.064    21.717     6.633
    15   6 C        3.802    -0.071    21.854     6.656
    16   6 C        2.846     0.009    27.809     8.643
    17   7 N        2.729     0.021    20.886     6.788
    18   6 C        3.758    -0.018    20.943     6.525
    19   6 C        3.808    -0.070    21.837     6.652
    20   6 C        2.969    -0.000    28.028     8.684
    21   6 C        2.922    -0.049    29.218     8.864
    22   6 C        2.914    -0.068    29.683     8.934
    23   6 C        2.865     0.134    25.077     8.208
    24   8 O        1.706    -0.221    17.674     5.676
    25   6 C        3.645     0.025    20.489     6.505
    26   6 C        2.863     0.133    25.081     8.209
    27   8 O        1.706    -0.224    17.714     5.682
    28   6 C        3.645     0.027    20.460     6.501
    29   6 C        2.919    -0.079    29.978     8.979
    30   6 C        3.700    -0.079    22.177     6.735
    31   6 C        3.853    -0.005    20.636     6.461
    32   6 C        3.756    -0.117    22.797     6.808
    33   6 C        3.755    -0.121    22.867     6.818
    34   1 H        0.926     0.055     2.254     2.348
    35   1 H        0.924     0.061     2.191     2.315
    36   1 H        0.925     0.086     1.917     2.165
    37   1 H        0.924     0.059     2.216     2.328
    38   1 H        0.924     0.047     2.357     2.401
    39   1 H        0.925     0.062     2.175     2.306
    40   1 H        0.924     0.045     2.380     2.413
    41   1 H        0.930     0.098     1.799     2.097
    42   1 H        0.926     0.054     2.271     2.357
    43   1 H        0.925     0.060     2.197     2.318
    44   1 H        0.924     0.055     2.255     2.348
    45   1 H        0.925     0.075     2.029     2.228
    46   1 H        0.923     0.081     1.968     2.194
    47   1 H        0.922     0.006     2.956     2.689
    48   1 H        0.926     0.070     2.081     2.256
    49   1 H        0.924     0.071     2.076     2.253
    50   1 H        0.924     0.067     2.119     2.276
    51   1 H        0.924     0.054     2.268     2.355
    52   1 H        0.924     0.057     2.237     2.339
    53   1 H        0.926     0.044     2.394     2.420
    54   1 H        0.926     0.058     2.219     2.329
    55   1 H        0.924     0.054     2.266     2.354
    56   1 H        0.924     0.056     2.249     2.345
    57   1 H        0.925     0.083     1.953     2.186
    58   1 H        0.925     0.082     1.957     2.188
    59   1 H        0.924     0.050     2.325     2.384
    60   1 H        0.924     0.053     2.285     2.364
    61   1 H        0.926     0.049     2.338     2.391
    62   1 H        0.924     0.078     1.998     2.210
    63   1 H        0.924     0.104     1.753     2.070
    64   1 H        0.925     0.080     1.977     2.199
    65   1 H        0.924     0.035     2.518     2.481
    66   1 H        0.925     0.067     2.119     2.276
    67   1 H        0.925     0.036     2.509     2.477
    68   1 H        0.925     0.051     2.303     2.373
    69   1 H        0.925     0.067     2.120     2.277
    70   1 H        0.925     0.035     2.512     2.478
    71   1 H        0.925     0.055     2.253     2.347
    72   1 H        0.860     0.157     1.357     1.825

Wiberg/Mayer (AO) data.
largest (>0.10) Wiberg bond orders for each atom

     #   Z sym  total        # sym  WBO       # sym  WBO       # sym  WBO
 ---------------------------------------------------------------------------
     1   7 N    3.030 --     2 C    1.953    72 H    0.942
     2   6 C    3.931 --     1 N    1.953     3 C    0.992    47 H    0.909
     3   6 C    3.967 --     2 C    0.992     4 C    0.982    14 C    0.948
                            31 C    0.933
     4   6 C    3.627 --     5 C    1.337    13 C    1.182     3 C    0.982
     5   6 C    3.960 --     6 C    1.475     4 C    1.337    34 H    0.946
     6   6 C    3.672 --     5 C    1.475     7 O    1.142     9 C    0.936
     7   8 O    2.255 --     6 C    1.142     8 C    0.964
     8   6 C    3.920 --    36 H    0.977    35 H    0.974    37 H    0.972
                             7 O    0.964
     9   6 C    3.911 --    12 C    1.020    41 H    0.956     6 C    0.936
                            10 O    0.912
    10   8 O    2.018 --    11 C    0.992     9 C    0.912
    11   6 C    3.938 --    10 O    0.992    40 H    0.976    38 H    0.976
                            39 H    0.975
    12   6 C    2.900 --    13 C    1.709     9 C    1.020
    13   6 C    3.945 --    12 C    1.709     4 C    1.182    42 H    0.944
    14   6 C    3.968 --    15 C    0.988    44 H    0.971    43 H    0.969
                             3 C    0.948
    15   6 C    3.986 --    16 C    1.061    14 C    0.988    45 H    0.955
                            46 H    0.924
    16   6 C    3.613 --    17 N    1.428    15 C    1.061    48 H    0.956
    17   7 N    3.499 --    16 C    1.428    30 C    0.996    18 C    0.988
    18   6 C    3.955 --    17 N    0.988    50 H    0.968    19 C    0.965
                            49 H    0.964
    19   6 C    3.977 --    20 C    1.008    52 H    0.972    51 H    0.971
                            18 C    0.965
    20   6 C    3.944 --    21 C    1.408    29 C    1.381    19 C    1.008
    21   6 C    3.949 --    22 C    1.417    20 C    1.408    53 H    0.968
    22   6 C    3.959 --    21 C    1.417    23 C    1.383    54 H    0.963
    23   6 C    3.894 --    22 C    1.383    26 C    1.219    24 O    1.111
    24   8 O    2.255 --    23 C    1.111    25 C    0.976
    25   6 C    3.928 --    57 H    0.977    24 O    0.976    56 H    0.973
                            55 H    0.972
    26   6 C    3.898 --    29 C    1.394    23 C    1.219    27 O    1.105
    27   8 O    2.255 --    26 C    1.105    28 C    0.978
    28   6 C    3.931 --    27 O    0.978    58 H    0.977    59 H    0.973
                            60 H    0.973
    29   6 C    3.959 --    26 C    1.394    20 C    1.381    61 H    0.962
    30   6 C    3.948 --    17 N    0.996    64 H    0.978    62 H    0.964
                            63 H    0.951
    31   6 C    3.961 --    32 C    1.008    33 C    1.008    65 H    0.961
                             3 C    0.933
    32   6 C    3.980 --    31 C    1.008    68 H    0.982    67 H    0.981
                            66 H    0.976
    33   6 C    3.979 --    31 C    1.008    70 H    0.983    71 H    0.979
                            69 H    0.975
    34   1 H    0.987 --     5 C    0.946
    35   1 H    0.991 --     8 C    0.974
    36   1 H    0.992 --     8 C    0.977
    37   1 H    0.991 --     8 C    0.972
    38   1 H    0.994 --    11 C    0.976
    39   1 H    0.993 --    11 C    0.975
    40   1 H    0.995 --    11 C    0.976
    41   1 H    0.979 --     9 C    0.956
    42   1 H    0.981 --    13 C    0.944
    43   1 H    0.995 --    14 C    0.969
    44   1 H    0.995 --    14 C    0.971
    45   1 H    0.992 --    15 C    0.955
    46   1 H    0.970 --    15 C    0.924
    47   1 H    0.987 --     2 C    0.909
    48   1 H    0.995 --    16 C    0.956
    49   1 H    0.991 --    18 C    0.964
    50   1 H    0.994 --    18 C    0.968
    51   1 H    0.996 --    19 C    0.971
    52   1 H    0.996 --    19 C    0.972
    53   1 H    0.997 --    21 C    0.968
    54   1 H    0.995 --    22 C    0.963
    55   1 H    0.992 --    25 C    0.972
    56   1 H    0.992 --    25 C    0.973
    57   1 H    0.992 --    25 C    0.977
    58   1 H    0.993 --    28 C    0.977
    59   1 H    0.993 --    28 C    0.973
    60   1 H    0.993 --    28 C    0.973
    61   1 H    0.996 --    29 C    0.962
    62   1 H    0.984 --    30 C    0.964
    63   1 H    0.982 --    30 C    0.951
    64   1 H    0.993 --    30 C    0.978
    65   1 H    0.994 --    31 C    0.961
    66   1 H    0.992 --    32 C    0.976
    67   1 H    0.997 --    32 C    0.981
    68   1 H    0.995 --    32 C    0.982
    69   1 H    0.992 --    33 C    0.975
    70   1 H    0.997 --    33 C    0.983
    71   1 H    0.993 --    33 C    0.979
    72   1 H    0.970 --     1 N    0.942
 ---------------------------------------------------------------------------

molecular dipole:
                 x           y           z       tot (Debye)
 q only:        0.129      -0.079      -1.064
   full:        0.127      -0.255      -1.354       3.517

           -------------------------------------------------
          | TOTAL ENERGY              -99.858130841851 Eh   |
          | GRADIENT NORM               0.002390833103 Eh/α |
          | HOMO-LUMO GAP               0.549748172850 eV   |
           -------------------------------------------------

 * finished run on 2024/04/06 at 11:16:19.719
