   * xtb version 6.6.1 (8d0f1dd) compiled by 'conda@1efc2f54142f' on 2023-08-01
          program call               : xtb xtbopt.xyz --opt crude --input .xc2 --gfn2

   ID    Z sym.   atoms
    1    7 N      1, 17
    2    6 C      2-6, 8, 9, 11-16, 18-23, 25, 26, 28-33
    3    8 O      7, 10, 24, 27
    4    1 H      34-72
########################################################################
[WARNING] Please study the warnings concerning your input carefully
-1- readin_getIntValue: could not parse ''
########################################################################

          :  Hamiltonian                  GFN2-xTB          :
 * total energy  :   -99.2349821 Eh     change       -0.5400125E-11 Eh
 * total energy  :   -99.2953824 Eh     change       -0.6040030E-01 Eh
 * total energy  :   -99.2968124 Eh     change       -0.1430035E-02 Eh
 * total energy  :   -99.2975017 Eh     change       -0.6893369E-03 Eh
 * total energy  :   -99.2975621 Eh     change       -0.6034118E-04 Eh
   *** GEOMETRY OPTIMIZATION CONVERGED AFTER 5 ITERATIONS ***

 final structure:
================
72
 xtb: 6.6.1 (8d0f1dd)
N           -1.76176965923055        3.24518211215907        2.00604743803774
C           -1.84060474582415        2.30211968663207        1.19016690672485
C           -3.01431516196994        2.06251519378855        0.27849038421838
C           -3.58075096013421        0.68836264812978        0.55071643038884
C           -4.49406745428300        0.09528259252017       -0.33115994244774
C           -4.88456971783175       -1.21212152032867       -0.19945734996058
O           -5.87304253248269       -1.82988318526751       -0.85256122870676
C           -6.69618255286759       -1.08884970649693       -1.73051049123482
C           -4.14760561146613       -2.13763454429631        0.74847057415879
O           -3.17298363430549       -2.85361750601358       -0.03101444323332
C           -2.97136309882097       -4.18699527813503        0.37326072107975
C           -3.46201411664056       -1.35192381152926        1.78414147448453
C           -3.19277608561105       -0.04719640893735        1.71289276229065
C           -2.45226625804465        2.11678124586221       -1.16956457522067
C           -1.62123859818410        0.88948085913679       -1.57983950296575
C           -0.28767955804044        0.84441400447454       -0.94302328918651
N            0.33082225454349       -0.25478453280720       -0.54334945144889
C            1.70754238353031       -0.19161661543851       -0.11133040377219
C            2.67640447125545       -0.56788498619462       -1.24981907770557
C            4.09492645475006       -0.31224081531204       -0.82447836471747
C            4.66892089397708        0.93491272644813       -1.01205635699002
C            5.96911143546187        1.18747089851174       -0.60379617123256
C            6.72206714570639        0.19501307143653        0.00710649529989
O            7.99054033082254        0.32468396217149        0.43694210914473
C            8.65886232336197        1.55061259814296        0.24686769037129
C            6.13889211451956       -1.08655199628866        0.21132065446192
O            6.93924570993182       -1.98984097065441        0.81034434571886
C            6.46174789036613       -3.29526734320418        1.03283007175342
C            4.83642196338266       -1.31487521038522       -0.20470198421063
C           -0.26383019148131       -1.56384583032081       -0.66329081139155
C           -4.15927970189119        3.10843570284724        0.44368648143889
C           -4.77455894065651        3.03320791140478        1.83898210645609
C           -3.71786561018172        4.53834181106642        0.14714729948869
H           -4.92060007648467        0.69819671087804       -1.11821964608157
H           -7.15247555317546       -0.23794179107516       -1.21784393148862
H           -7.47152258351828       -1.77692359337286       -2.06104054667792
H           -6.13000921819108       -0.73629381397078       -2.59717854350915
H           -3.88416557156302       -4.77878390296496        0.24771517497130
H           -2.19081798256022       -4.58395893496702       -0.27370874425115
H           -2.64645766365376       -4.24126169114885        1.41758666882464
H           -4.86493374736150       -2.85865940191691        1.16604976143647
H           -2.65667184038488        0.46219017884062        2.49950218672164
H           -3.28984565839073        2.20556572070038       -1.86109461982296
H           -1.84173352347398        3.01471839497051       -1.27339387386191
H           -2.18286807196697       -0.02451062648971       -1.38770155145993
H           -1.46814216996314        0.95556108675065       -2.66565026936906
H           -1.03675891813432        1.56161291918310        1.02274071662075
H            0.27956870430841        1.76290042704596       -0.89995214867259
H            1.85071491636304       -0.87076828696622        0.73241623000303
H            1.93568648420883        0.82259925598994        0.22366668673482
H            2.43889790134389        0.04188651347421       -2.12368002599149
H            2.54312713399221       -1.61735172384412       -1.51406180405403
H            4.10766970569090        1.72115053669821       -1.49401494127102
H            6.39075362931440        2.16481900885486       -0.77157098118883
H            8.16543156272805        2.36408553702730        0.78746436453898
H            8.73050393596490        1.80699522566797       -0.81435943427120
H            9.65856128174929        1.40368914669127        0.65092533035172
H            7.28321811327437       -3.82967348931792        1.50595233940340
H            5.59614568656997       -3.29730150819951        1.70296401274637
H            6.20013526717451       -3.79237107250363        0.09360119544207
H            4.38812226703375       -2.28568490320986       -0.06271537809765
H           -0.37394864305043       -1.84926133920694       -1.71163409232711
H           -1.25117715835163       -1.60016519118973       -0.19747972566777
H            0.37260274071261       -2.29279448975572       -0.16883891579141
H           -4.93365679759854        2.83495089915844       -0.28268373498130
H           -4.04305814977938        3.32575041094462        2.58558345369946
H           -5.12356133793670        2.02701880969916        2.06052131775124
H           -5.62164600373029        3.71101813675852        1.90224047621763
H           -2.92371323114894        4.83486626100580        0.82474862523305
H           -3.37921722083876        4.65504524484982       -0.87880634938061
H           -4.56179770061627        5.20676731585242        0.29705870143548
H           -0.91258609321386        3.32477077842794        2.55669635759240

          :  Hamiltonian                  GFN2-xTB          :
         :: total energy             -99.297562073297 Eh    ::
         :: gradient norm              0.002125358278 Eh/a0 ::
         :: HOMO-LUMO gap              0.576668279345 eV    ::
         :: SCC energy              -100.650904516827 Eh    ::
         :: -> dispersion             -0.075521203989 Eh    ::
         :: repulsion energy           1.351907768807 Eh    ::

    * Orbital Energies and Occupations

         #    Occupation            Energy/Eh            Energy/eV
      -------------------------------------------------------------
         1        2.0000           -0.8245918             -22.4383
       ...           ...                  ...                  ...
        78        1.9986           -0.5315589             -14.4645
        79        1.9984           -0.5297630             -14.4156
        80        1.9982           -0.5281370             -14.3713
        81        1.9970           -0.5197575             -14.1433
        82        1.9962           -0.5158661             -14.0374
        83        1.9960           -0.5151744             -14.0186
        84        1.9957           -0.5140614             -13.9883
        85        1.9881           -0.4977481             -13.5444
        86        1.9783           -0.4881503             -13.2832
        87        1.9779           -0.4878678             -13.2756
        88        1.9407           -0.4719363             -12.8420
        89        1.8411           -0.4555017             -12.3948
        90        1.2760           -0.4256818             -11.5834 (HOMO)
        91        0.6322           -0.4044896             -11.0067 (LUMO)
        92        0.3723           -0.3933489             -10.7036
        93        0.0146           -0.3388696              -9.2211
        94        0.0027           -0.3119962              -8.4898
        95        0.0023           -0.3098248              -8.4308
        96        0.0014           -0.3020401              -8.2189
        97        0.0000           -0.2477180              -6.7407
        98        0.0000           -0.1871678              -5.0931
        99                         -0.1326163              -3.6087
       100                         -0.0789305              -2.1478
       101                         -0.0693382              -1.8868
       ...                                ...                  ...
       171                          0.5766214              15.6907
      -------------------------------------------------------------
                  HL-Gap            0.0211922 Eh            0.5767 eV

     #   Z          covCN         q      C6AA      α(0)
     1   7 N        1.774    -0.271    27.861     7.816
     2   6 C        2.827     0.102    25.729     8.312
     3   6 C        3.907     0.010    20.358     6.413
     4   6 C        2.983     0.013    27.724     8.637
     5   6 C        2.904    -0.082    30.051     8.989
     6   6 C        2.855     0.138    24.992     8.194
     7   8 O        1.705    -0.216    17.594     5.663
     8   6 C        3.646     0.022    20.532     6.512
     9   6 C        3.752     0.120    18.680     6.164
    10   8 O        1.699    -0.317    19.302     5.932
    11   6 C        3.641     0.035    20.333     6.484
    12   6 C        1.989    -0.105    33.941     9.408
    13   6 C        2.903    -0.039    28.970     8.825
    14   6 C        3.812    -0.064    21.716     6.633
    15   6 C        3.802    -0.070    21.846     6.654
    16   6 C        2.846     0.009    27.814     8.643
    17   7 N        2.729     0.020    20.896     6.789
    18   6 C        3.758    -0.018    20.940     6.524
    19   6 C        3.808    -0.070    21.837     6.652
    20   6 C        2.969    -0.000    28.028     8.684
    21   6 C        2.922    -0.049    29.217     8.864
    22   6 C        2.914    -0.068    29.683     8.934
    23   6 C        2.865     0.134    25.077     8.209
    24   8 O        1.706    -0.221    17.674     5.676
    25   6 C        3.645     0.025    20.489     6.505
    26   6 C        2.863     0.133    25.080     8.209
    27   8 O        1.706    -0.224    17.714     5.682
    28   6 C        3.645     0.027    20.461     6.501
    29   6 C        2.919    -0.079    29.979     8.979
    30   6 C        3.700    -0.078    22.158     6.732
    31   6 C        3.853    -0.005    20.635     6.461
    32   6 C        3.756    -0.117    22.795     6.808
    33   6 C        3.755    -0.121    22.866     6.818
    34   1 H        0.926     0.055     2.253     2.347
    35   1 H        0.924     0.061     2.189     2.314
    36   1 H        0.925     0.086     1.914     2.164
    37   1 H        0.924     0.059     2.215     2.328
    38   1 H        0.924     0.048     2.342     2.393
    39   1 H        0.925     0.063     2.163     2.300
    40   1 H        0.924     0.046     2.366     2.405
    41   1 H        0.923     0.067     2.120     2.277
    42   1 H        0.926     0.053     2.278     2.360
    43   1 H        0.925     0.060     2.198     2.318
    44   1 H        0.924     0.055     2.254     2.348
    45   1 H        0.925     0.075     2.037     2.232
    46   1 H        0.923     0.081     1.970     2.195
    47   1 H        0.922     0.006     2.958     2.690
    48   1 H        0.926     0.070     2.082     2.256
    49   1 H        0.924     0.071     2.077     2.254
    50   1 H        0.924     0.067     2.118     2.276
    51   1 H        0.924     0.054     2.267     2.355
    52   1 H        0.924     0.057     2.237     2.339
    53   1 H        0.926     0.044     2.394     2.420
    54   1 H        0.926     0.058     2.218     2.329
    55   1 H        0.924     0.054     2.266     2.354
    56   1 H        0.924     0.056     2.248     2.345
    57   1 H        0.925     0.083     1.953     2.185
    58   1 H        0.925     0.082     1.957     2.187
    59   1 H        0.924     0.050     2.324     2.384
    60   1 H        0.924     0.053     2.285     2.364
    61   1 H        0.926     0.048     2.339     2.391
    62   1 H        0.924     0.078     1.998     2.211
    63   1 H        0.924     0.102     1.766     2.078
    64   1 H        0.925     0.080     1.978     2.199
    65   1 H        0.924     0.035     2.519     2.482
    66   1 H        0.925     0.067     2.119     2.277
    67   1 H        0.925     0.036     2.509     2.477
    68   1 H        0.925     0.051     2.303     2.373
    69   1 H        0.925     0.067     2.121     2.278
    70   1 H        0.925     0.035     2.511     2.478
    71   1 H        0.925     0.056     2.252     2.347
    72   1 H        0.860     0.157     1.356     1.824

Wiberg/Mayer (AO) data.
largest (>0.10) Wiberg bond orders for each atom

     #   Z sym  total        # sym  WBO       # sym  WBO       # sym  WBO
 ---------------------------------------------------------------------------
     1   7 N    3.030 --     2 C    1.953    72 H    0.942
     2   6 C    3.931 --     1 N    1.953     3 C    0.992    47 H    0.909
     3   6 C    3.967 --     2 C    0.992     4 C    0.982    14 C    0.948
                            31 C    0.933
     4   6 C    3.631 --     5 C    1.336    13 C    1.184     3 C    0.982
     5   6 C    3.959 --     6 C    1.472     4 C    1.336    34 H    0.947
     6   6 C    3.678 --     5 C    1.472     7 O    1.143     9 C    0.943
     7   8 O    2.259 --     6 C    1.143     8 C    0.964
     8   6 C    3.920 --    36 H    0.977    35 H    0.974    37 H    0.972
                             7 O    0.964
     9   6 C    3.915 --    12 C    1.023     6 C    0.943    41 H    0.932
                            10 O    0.931
    10   8 O    2.037 --    11 C    0.989     9 C    0.931
    11   6 C    3.936 --    10 O    0.989    40 H    0.976    39 H    0.976
                            38 H    0.974
    12   6 C    2.900 --    13 C    1.703     9 C    1.023
    13   6 C    3.944 --    12 C    1.703     4 C    1.184    42 H    0.945
    14   6 C    3.968 --    15 C    0.988    44 H    0.971    43 H    0.969
                             3 C    0.948
    15   6 C    3.986 --    16 C    1.061    14 C    0.988    45 H    0.955
                            46 H    0.924
    16   6 C    3.612 --    17 N    1.426    15 C    1.061    48 H    0.956
    17   7 N    3.498 --    16 C    1.426    30 C    0.997    18 C    0.988
    18   6 C    3.955 --    17 N    0.988    50 H    0.968    19 C    0.966
                            49 H    0.964
    19   6 C    3.977 --    20 C    1.008    52 H    0.972    51 H    0.971
                            18 C    0.966
    20   6 C    3.944 --    21 C    1.408    29 C    1.381    19 C    1.008
    21   6 C    3.949 --    22 C    1.417    20 C    1.408    53 H    0.968
    22   6 C    3.959 --    21 C    1.417    23 C    1.383    54 H    0.963
    23   6 C    3.894 --    22 C    1.383    26 C    1.219    24 O    1.111
    24   8 O    2.255 --    23 C    1.111    25 C    0.976
    25   6 C    3.928 --    57 H    0.977    24 O    0.976    56 H    0.973
                            55 H    0.972
    26   6 C    3.898 --    29 C    1.394    23 C    1.219    27 O    1.105
    27   8 O    2.255 --    26 C    1.105    28 C    0.978
    28   6 C    3.931 --    27 O    0.978    58 H    0.977    59 H    0.973
                            60 H    0.973
    29   6 C    3.959 --    26 C    1.394    20 C    1.381    61 H    0.962
    30   6 C    3.949 --    17 N    0.997    64 H    0.978    62 H    0.964
                            63 H    0.952
    31   6 C    3.961 --    32 C    1.008    33 C    1.008    65 H    0.961
                             3 C    0.933
    32   6 C    3.980 --    31 C    1.008    68 H    0.982    67 H    0.981
                            66 H    0.976
    33   6 C    3.979 --    31 C    1.008    70 H    0.983    71 H    0.979
                            69 H    0.975
    34   1 H    0.987 --     5 C    0.947
    35   1 H    0.991 --     8 C    0.974
    36   1 H    0.992 --     8 C    0.977
    37   1 H    0.991 --     8 C    0.972
    38   1 H    0.994 --    11 C    0.974
    39   1 H    0.994 --    11 C    0.976
    40   1 H    0.994 --    11 C    0.976
    41   1 H    0.973 --     9 C    0.932
    42   1 H    0.981 --    13 C    0.945
    43   1 H    0.995 --    14 C    0.969
    44   1 H    0.995 --    14 C    0.971
    45   1 H    0.992 --    15 C    0.955
    46   1 H    0.969 --    15 C    0.924
    47   1 H    0.987 --     2 C    0.909
    48   1 H    0.995 --    16 C    0.956
    49   1 H    0.991 --    18 C    0.964
    50   1 H    0.994 --    18 C    0.968
    51   1 H    0.996 --    19 C    0.971
    52   1 H    0.996 --    19 C    0.972
    53   1 H    0.997 --    21 C    0.968
    54   1 H    0.995 --    22 C    0.963
    55   1 H    0.992 --    25 C    0.972
    56   1 H    0.992 --    25 C    0.973
    57   1 H    0.992 --    25 C    0.977
    58   1 H    0.993 --    28 C    0.977
    59   1 H    0.993 --    28 C    0.973
    60   1 H    0.993 --    28 C    0.973
    61   1 H    0.996 --    29 C    0.962
    62   1 H    0.984 --    30 C    0.964
    63   1 H    0.983 --    30 C    0.952
    64   1 H    0.993 --    30 C    0.978
    65   1 H    0.994 --    31 C    0.961
    66   1 H    0.992 --    32 C    0.976
    67   1 H    0.997 --    32 C    0.981
    68   1 H    0.995 --    32 C    0.982
    69   1 H    0.992 --    33 C    0.975
    70   1 H    0.997 --    33 C    0.983
    71   1 H    0.993 --    33 C    0.979
    72   1 H    0.970 --     1 N    0.942
 ---------------------------------------------------------------------------

molecular dipole:
                 x           y           z       tot (Debye)
 q only:        0.166      -0.066      -1.083
   full:        0.153      -0.238      -1.361       3.534

           -------------------------------------------------
          | TOTAL ENERGY              -99.297562073297 Eh   |
          | GRADIENT NORM               0.002125358278 Eh/α |
          | HOMO-LUMO GAP               0.576668279345 eV   |
           -------------------------------------------------

 * finished run on 2024/04/06 at 11:16:20.846
