   * xtb version 6.6.1 (8d0f1dd) compiled by 'conda@1efc2f54142f' on 2023-08-01
          program call               : xtb struc.xyz --opt loose --input .xc1 --gfn2

   ID    Z sym.   atoms
    1    6 C      1, 3, 5-7, 10, 11, 14
    2    7 N      2, 4, 9, 13
    3    8 O      8, 12
    4    1 H      15-25
constraining bond 7 15 to    4.7133300 Å, actual value:    3.7773936 Å

          :  Hamiltonian                  GFN2-xTB          :
 * total energy  :   -43.8241352 Eh     change       -0.2401990E-09 Eh
 * total energy  :   -47.1397567 Eh     change       -0.3315621E+01 Eh
 * total energy  :   -52.3215306 Eh     change       -0.5181774E+01 Eh
 * total energy  :   -59.4859538 Eh     change       -0.7164423E+01 Eh
 * total energy  :   -68.5873100 Eh     change       -0.9101356E+01 Eh
 * total energy  :   -55.5844134 Eh     change        0.1300290E+02 Eh
 * total energy  :   -72.0577032 Eh     change       -0.1647329E+02 Eh
 * total energy  :   -72.2544965 Eh     change       -0.1967933E+00 Eh
 * total energy  :   -72.9678946 Eh     change       -0.7133981E+00 Eh
 * total energy  :   -73.1775107 Eh     change       -0.2096161E+00 Eh
 * total energy  :   -73.3450120 Eh     change       -0.6256785E-04 Eh
 * total energy  :   -73.3450910 Eh     change       -0.7895711E-04 Eh
 * total energy  :   -73.3451527 Eh     change       -0.6170232E-04 Eh
 * total energy  :   -73.3452052 Eh     change       -0.5245106E-04 Eh
 * total energy  :   -73.3452455 Eh     change       -0.4029675E-04 Eh
 * total energy  :   -73.3452784 Eh     change       -0.3290279E-04 Eh
 * total energy  :   -73.3452997 Eh     change       -0.2130493E-04 Eh
 * total energy  :   -73.3453182 Eh     change       -0.1853453E-04 Eh
 * total energy  :   -73.3453426 Eh     change       -0.2436218E-04 Eh
   *** GEOMETRY OPTIMIZATION CONVERGED AFTER 58 ITERATIONS ***

 final structure:
================
25
 xtb: 6.6.1 (8d0f1dd)
C            3.34771820102353        0.96606385279019       -0.07692149005483
N            2.42885265016455        0.00059488882233       -0.05977355864530
C            2.63014692533923       -1.32548020291678       -0.26822039288940
N            1.44310198193637       -1.97738342740515       -0.20456297070039
C            0.46262503087818       -1.05653092446147        0.04836965322708
C            1.07510558066377        0.17026411881989        0.17124069249493
C            0.32972981352550        1.52075184392257        0.42583007732075
O            0.66133787306692        2.34909954330246       -0.57060189608992
N           -1.19688124267601        1.06739974169354        0.19040244961067
C           -2.06635307169507        2.20743791992370        0.06271272901304
C           -1.74869510680792       -0.16403142254041        0.12654220223141
O           -2.94113423732145       -0.35733822370474        0.05885019244168
N           -0.86820512159485       -1.27484862452268        0.13268641613772
C           -1.42850536492816       -2.60467186775065        0.05709905427684
H            0.33856651805443        1.64851285082471        0.78736104257096
H            4.37209651902370        0.71459982935675       -0.27626405170148
H            3.03162509114832        1.98780285871793        0.02796454334830
H            3.57728034310561       -1.78279779263128       -0.46654919344063
H           -1.53727534762183        2.97364050444780       -0.51002637405331
H           -2.98598008576850        1.91783919961308       -0.44660646690345
H           -2.32094764334493        2.61143963475814        1.04860453941614
H           -1.02560454272446       -3.23142923946066        0.85407306788050
H           -1.22891300116126       -3.06111207328204       -0.91533788513944
H           -2.50828575693413       -2.51270606586027        0.18150849098181
H            1.31902550874621       -2.96887838085814       -0.34720925343100

          :  Hamiltonian                  GFN2-xTB          :
         :: total energy             -73.345342556871 Eh    ::
         :: gradient norm              0.002523756774 Eh/a0 ::
         :: HOMO-LUMO gap              0.690958105159 eV    ::
         :: SCC energy               -42.659548974548 Eh    ::
         :: -> dispersion             -0.022790534279 Eh    ::
         :: repulsion energy           2.787534913120 Eh    ::

    * Orbital Energies and Occupations

         #    Occupation            Energy/Eh            Energy/eV
      -------------------------------------------------------------
         1        2.0000           -0.9118248             -24.8120
       ...           ...                  ...                  ...
        25        1.9982           -0.6722277             -18.2922
        26        1.9978           -0.6664686             -18.1355
        27        1.9972           -0.6608577             -17.9829
        28        1.9929           -0.6390612             -17.3897
        29        1.9928           -0.6385878             -17.3769
        30        1.9897           -0.6301774             -17.1480
        31        1.9851           -0.6212678             -16.9056
        32        1.9740           -0.6079102             -16.5421
        33        1.9348           -0.5855574             -15.9338
        34        1.8586           -0.5662332             -15.4080
        35        1.7944           -0.5565002             -15.1431
        36        1.7066           -0.5468658             -14.8810
        37        1.5944           -0.5375615             -14.6278 (HOMO)
        38        1.1488           -0.5121693             -13.9368 (LUMO)
        39        0.0282           -0.4041691             -10.9980
        40        0.0100           -0.3793190             -10.3218
        41        0.0016           -0.3361619              -9.1474
        42        0.0001           -0.2735348              -7.4433
        43        0.0000           -0.2039384              -5.5494
        44        0.0000           -0.1765692              -4.8047
        45        0.0000           -0.1716431              -4.6706
        46                         -0.0939382              -2.5562
        47                         -0.0781898              -2.1277
        48                         -0.0433552              -1.1798
       ...                                ...                  ...
        67                         13.7548370             374.2882
      -------------------------------------------------------------
                  HL-Gap            0.0253922 Eh            0.6910 eV

     #   Z          covCN         q      C6AA      α(0)
     1   6 C        2.790    -0.062    29.525     8.901
     2   7 N        2.818     0.128    19.060     6.484
     3   6 C        3.034     0.029    27.322     8.574
     4   7 N        2.784    -0.059    22.389     7.028
     5   6 C        3.016     0.114    25.477     8.280
     6   6 C        3.096    -0.017    28.307     8.720
     7   6 C        3.639     0.149    18.511     6.188
     8   8 O        0.861    -0.429    22.276     6.328
     9   7 N        2.710    -0.119    23.593     7.214
    10   6 C        3.701    -0.055    21.730     6.666
    11   6 C        2.719     0.321    21.550     7.599
    12   8 O        0.860    -0.348    20.669     6.095
    13   7 N        2.738    -0.051    22.233     7.003
    14   6 C        3.697    -0.072    22.048     6.716
    15   1 H        0.943     0.189     1.156     1.681
    16   1 H        0.926     0.115     1.657     2.013
    17   1 H        0.926     0.138     1.472     1.897
    18   1 H        0.927     0.126     1.569     1.959
    19   1 H        0.924     0.130     1.534     1.937
    20   1 H        0.924     0.121     1.608     1.983
    21   1 H        0.924     0.109     1.702     2.040
    22   1 H        0.924     0.090     1.876     2.142
    23   1 H        0.924     0.091     1.869     2.138
    24   1 H        0.924     0.133     1.510     1.921
    25   1 H        0.860     0.230     0.964     1.538

Wiberg/Mayer (AO) data.
largest (>0.10) Wiberg bond orders for each atom

     #   Z sym  total        # sym  WBO       # sym  WBO       # sym  WBO
 ---------------------------------------------------------------------------
     1   6 C    3.327 --     2 N    1.305    16 H    0.963    17 H    0.954
     2   7 N    3.750 --     1 C    1.305     3 C    1.225     6 C    1.123
     3   6 C    3.617 --     4 N    1.260     2 N    1.225    18 H    0.953
     4   7 N    3.504 --     3 C    1.260     5 C    1.166    25 H    0.918
     5   6 C    3.900 --     6 C    1.397    13 N    1.184     4 N    1.166
     6   6 C    3.679 --     5 C    1.397     2 N    1.123     7 C    0.902
     7   6 C    3.873 --     8 O    1.218    15 H    0.910     6 C    0.902
                             9 N    0.774
     8   8 O    1.357 --     7 C    1.218
     9   7 N    3.264 --    11 C    1.219    10 C    1.011     7 C    0.774
                            12 O    0.133
    10   6 C    3.845 --     9 N    1.011    20 H    0.942    19 H    0.931
                            21 H    0.924
    11   6 C    3.939 --    12 O    1.626     9 N    1.219    13 N    1.014
    12   8 O    1.920 --    11 C    1.626     9 N    0.133
    13   7 N    3.421 --     5 C    1.184    11 C    1.014    14 C    0.985
    14   6 C    3.898 --    13 N    0.985    22 H    0.961    23 H    0.956
                            24 H    0.955
    15   1 H    0.934 --     7 C    0.910
    16   1 H    0.982 --     1 C    0.963
    17   1 H    0.977 --     1 C    0.954
    18   1 H    0.983 --     3 C    0.953
    19   1 H    0.951 --    10 C    0.931
    20   1 H    0.959 --    10 C    0.942
    21   1 H    0.938 --    10 C    0.924
    22   1 H    0.975 --    14 C    0.961
    23   1 H    0.971 --    14 C    0.956
    24   1 H    0.975 --    14 C    0.955
    25   1 H    0.946 --     4 N    0.918
 ---------------------------------------------------------------------------

molecular dipole:
                 x           y           z       tot (Debye)
 q only:        2.163      -1.988       0.549
   full:        2.369      -2.353       0.565       8.607

           -------------------------------------------------
          | TOTAL ENERGY              -73.345342556871 Eh   |
          | GRADIENT NORM               0.002523756774 Eh/α |
          | HOMO-LUMO GAP               0.690958105159 eV   |
           -------------------------------------------------

 * finished run on 2024/06/05 at 19:59:00.118
