   * xtb version 6.6.1 (8d0f1dd) compiled by 'conda@1efc2f54142f' on 2023-08-01
          program call               : xtb xtbopt.xyz --opt crude --input .xc2 --gfn2

   ID    Z sym.   atoms
    1    6 C      1, 3, 5-7, 10, 11, 14
    2    7 N      2, 4, 9, 13
    3    8 O      8, 12
    4    1 H      15-25
########################################################################
[WARNING] Please study the warnings concerning your input carefully
-1- readin_getIntValue: could not parse ''
########################################################################

          :  Hamiltonian                  GFN2-xTB          :
 * total energy  :   -39.8718816 Eh     change       -0.2273737E-12 Eh
 * total energy  :   -42.1458702 Eh     change       -0.2273989E+01 Eh
 * total energy  :   -42.1565053 Eh     change       -0.1063510E-01 Eh
 * total energy  :   -42.1620795 Eh     change       -0.5574171E-02 Eh
 * total energy  :   -42.1642511 Eh     change       -0.2171674E-02 Eh
 * total energy  :   -42.1651061 Eh     change       -0.8549762E-03 Eh
 * total energy  :   -42.1663361 Eh     change       -0.1230041E-02 Eh
 * total energy  :   -42.1673195 Eh     change       -0.9833305E-03 Eh
 * total energy  :   -42.1682807 Eh     change       -0.9612205E-03 Eh
 * total energy  :   -42.1686675 Eh     change       -0.3867817E-03 Eh
   *** GEOMETRY OPTIMIZATION CONVERGED AFTER 10 ITERATIONS ***

 final structure:
================
25
 xtb: 6.6.1 (8d0f1dd)
C            3.31124999000666        0.98561456040144       -0.12263304368156
N            2.41667651714203       -0.00143230910664       -0.07642841548558
C            2.63861087237978       -1.32902584981695       -0.26013868809807
N            1.45921271192520       -1.99848767852628       -0.20395030283583
C            0.46550349284320       -1.08603456176886        0.02438853305241
C            1.05984337041016        0.14926350416744        0.13630858258037
C            0.28800243857479        1.43403271547136        0.26800585766713
O            0.66724869363443        2.35708202178169       -0.56432059362872
N           -1.16168166417434        1.06412608941236        0.12041788691943
C           -2.03492368754470        2.20901650177826        0.03049425554183
C           -1.72888035421106       -0.16840313409161        0.10417904125541
O           -2.92575207779945       -0.34056299255450        0.08326414499282
N           -0.86903158907410       -1.29339378351975        0.09393422659757
C           -1.44904993366004       -2.61580959070717        0.04514333201725
H            0.35535825398070        1.79857244538685        1.33257284753787
H            4.34467973038400        0.75592101492114       -0.29779472129905
H            2.95325947962017        1.99733402515709       -0.05967742133158
H            3.59575582561736       -1.77727164205168       -0.42935727478726
H           -1.52086248035214        2.97574351507360       -0.55478119997094
H           -2.97086633494904        1.92108565290311       -0.44646108320201
H           -2.25161922482004        2.60991415682017        1.02517561325223
H           -1.05012813360602       -3.23677438709107        0.84823033447955
H           -1.26148212530543       -3.08989447124370       -0.92085676999697
H           -2.52622775749432       -2.50662980456978        0.17525528337719
H            1.35553550056996       -2.99574745662768       -0.31979880705085

          :  Hamiltonian                  GFN2-xTB          :
         :: total energy             -42.168667476164 Eh    ::
         :: gradient norm              0.004911335524 Eh/a0 ::
         :: HOMO-LUMO gap              0.595626304569 eV    ::
         :: SCC energy               -42.668278194094 Eh    ::
         :: -> dispersion             -0.022874809643 Eh    ::
         :: repulsion energy           0.499470174848 Eh    ::

    * Orbital Energies and Occupations

         #    Occupation            Energy/Eh            Energy/eV
      -------------------------------------------------------------
         1        2.0000           -0.9109750             -24.7889
       ...           ...                  ...                  ...
        25        1.9983           -0.6719690             -18.2852
        26        1.9980           -0.6673895             -18.1606
        27        1.9971           -0.6584899             -17.9184
        28        1.9933           -0.6385700             -17.3764
        29        1.9928           -0.6369320             -17.3318
        30        1.9904           -0.6299847             -17.1428
        31        1.9856           -0.6204114             -16.8823
        32        1.9750           -0.6071192             -16.5206
        33        1.9374           -0.5848965             -15.9158
        34        1.8576           -0.5643693             -15.3573
        35        1.8036           -0.5560380             -15.1306
        36        1.7271           -0.5471955             -14.8899
        37        1.5502           -0.5327572             -14.4971 (HOMO)
        38        1.1565           -0.5108683             -13.9014 (LUMO)
        39        0.0299           -0.4038936             -10.9905
        40        0.0104           -0.3785973             -10.3022
        41        0.0018           -0.3368611              -9.1665
        42        0.0000           -0.2120106              -5.7691
        43        0.0000           -0.1969497              -5.3593
        44        0.0000           -0.1624728              -4.4211
        45        0.0000           -0.1398583              -3.8057
        46                         -0.0898620              -2.4453
        47                         -0.0678408              -1.8460
        48                         -0.0422725              -1.1503
       ...                                ...                  ...
        67                          0.4929836              13.4148
      -------------------------------------------------------------
                  HL-Gap            0.0218889 Eh            0.5956 eV

     #   Z          covCN         q      C6AA      α(0)
     1   6 C        2.790    -0.063    29.559     8.906
     2   7 N        2.817     0.127    19.079     6.487
     3   6 C        3.039     0.028    27.345     8.577
     4   7 N        2.783    -0.059    22.384     7.027
     5   6 C        3.021     0.112    25.505     8.284
     6   6 C        3.104    -0.015    28.239     8.707
     7   6 C        3.664     0.215    17.462     5.994
     8   8 O        0.857    -0.413    21.942     6.280
     9   7 N        2.733    -0.092    23.028     7.127
    10   6 C        3.705    -0.059    21.783     6.672
    11   6 C        2.721     0.317    21.606     7.609
    12   8 O        0.860    -0.348    20.674     6.096
    13   7 N        2.738    -0.052    22.245     7.005
    14   6 C        3.696    -0.071    22.042     6.716
    15   1 H        0.918     0.086     1.918     2.166
    16   1 H        0.926     0.115     1.650     2.009
    17   1 H        0.926     0.141     1.451     1.884
    18   1 H        0.926     0.125     1.571     1.960
    19   1 H        0.924     0.131     1.529     1.934
    20   1 H        0.925     0.121     1.602     1.979
    21   1 H        0.924     0.107     1.719     2.051
    22   1 H        0.924     0.090     1.879     2.144
    23   1 H        0.924     0.092     1.861     2.133
    24   1 H        0.924     0.133     1.511     1.922
    25   1 H        0.860     0.230     0.966     1.540

Wiberg/Mayer (AO) data.
largest (>0.10) Wiberg bond orders for each atom

     #   Z sym  total        # sym  WBO       # sym  WBO       # sym  WBO
 ---------------------------------------------------------------------------
     1   6 C    3.325 --     2 N    1.304    16 H    0.963    17 H    0.951
     2   7 N    3.750 --     1 C    1.304     3 C    1.225     6 C    1.124
     3   6 C    3.613 --     4 N    1.256     2 N    1.225    18 H    0.954
     4   7 N    3.504 --     3 C    1.256     5 C    1.170    25 H    0.919
     5   6 C    3.900 --     6 C    1.394    13 N    1.181     4 N    1.170
     6   6 C    3.710 --     5 C    1.394     2 N    1.124     7 C    0.944
     7   6 C    3.928 --     8 O    1.212     6 C    0.944     9 N    0.871
                            15 H    0.844
     8   8 O    1.334 --     7 C    1.212
     9   7 N    3.313 --    11 C    1.204    10 C    0.999     7 C    0.871
                            12 O    0.134
    10   6 C    3.848 --     9 N    0.999    20 H    0.948    19 H    0.934
                            21 H    0.929
    11   6 C    3.941 --    12 O    1.634     9 N    1.204    13 N    1.020
    12   8 O    1.931 --    11 C    1.634     9 N    0.134
    13   7 N    3.425 --     5 C    1.181    11 C    1.020    14 C    0.984
    14   6 C    3.899 --    13 N    0.984    22 H    0.962    23 H    0.957
                            24 H    0.955
    15   1 H    0.869 --     7 C    0.844
    16   1 H    0.982 --     1 C    0.963
    17   1 H    0.975 --     1 C    0.951
    18   1 H    0.983 --     3 C    0.954
    19   1 H    0.954 --    10 C    0.934
    20   1 H    0.964 --    10 C    0.948
    21   1 H    0.943 --    10 C    0.929
    22   1 H    0.976 --    14 C    0.962
    23   1 H    0.972 --    14 C    0.957
    24   1 H    0.976 --    14 C    0.955
    25   1 H    0.946 --     4 N    0.919
 ---------------------------------------------------------------------------

molecular dipole:
                 x           y           z       tot (Debye)
 q only:        2.106      -2.024       0.417
   full:        2.339      -2.411       0.533       8.646

           -------------------------------------------------
          | TOTAL ENERGY              -42.168667476164 Eh   |
          | GRADIENT NORM               0.004911335524 Eh/α |
          | HOMO-LUMO GAP               0.595626304569 eV   |
           -------------------------------------------------

 * finished run on 2024/06/05 at 19:59:00.525
