   * xtb version 6.6.1 (8d0f1dd) compiled by 'conda@1efc2f54142f' on 2023-08-01
          program call               : xtb xtbopt.xyz --opt crude --input .xc2 --gfn2

   ID    Z sym.   atoms
    1    7 N      1, 17
    2    6 C      2-6, 8, 9, 11-16, 18-23, 25, 26, 28-33
    3    8 O      7, 10, 24, 27
    4    1 H      34-72

          :  Hamiltonian                  GFN2-xTB          :
 * total energy  :   -99.3876198 Eh     change       -0.1881517E-10 Eh
   *** GEOMETRY OPTIMIZATION CONVERGED AFTER 1 ITERATIONS ***

 final structure:
================
72
 xtb: 6.6.1 (8d0f1dd)
N           -1.80312311330449        2.38717568320079        1.75328851597724
C           -1.98749221381595        2.38983981780191        0.51397916670117
C           -3.32727588512236        2.06303085955295       -0.11832200251822
C           -3.66952538330614        0.58892580173910        0.03022898950522
C           -4.76953441743035        0.08337788911883       -0.66522238113971
C           -5.15582428801284       -1.24333332565121       -0.55143747651572
O           -6.19591295354632       -1.81098287422828       -1.18716732717942
C           -6.97742521175446       -1.04357237482340       -2.07337027931129
C           -4.42497148190893       -2.11342077261743        0.30874336837037
O           -4.88060143988195       -3.37545751572067        0.37880993335789
C           -4.27465325938914       -4.27955048078725        1.27433601196307
C           -3.32940397376094       -1.60323336367939        0.99166440776831
C           -2.95472195484314       -0.27602917715603        0.84997481705355
C           -3.10301744392752        2.39926167499069       -1.61141431438529
C           -1.61234375741695        2.17300457642202       -1.83769205765409
C           -0.97863082664284        2.70606850045595       -0.55904253526124
N            0.70873280249989       -0.71795411529369        0.30800390965185
C            2.09481581773386       -0.56884436631939        0.43762876228807
C            2.97427973861721       -0.91902822679689       -0.78478769115465
C            4.40203615415531       -0.56502858592076       -0.51650388681942
C            4.88105459041234        0.70553461252400       -0.81746627002692
C            6.19958257072695        1.04682338070786       -0.57407943087991
C            7.07660617026289        0.12454146054055       -0.01479276475633
O            8.37475504555057        0.33971270097505        0.24823049699569
C            8.95265738313281        1.58071257154565       -0.08632948222072
C            6.59270920733664       -1.17532658949263        0.31661389067231
O            7.50407497239698       -2.00208838613928        0.85568397037252
C            7.13482983714941       -3.31747295362964        1.19980157285887
C            5.26564493662393       -1.49195927297435        0.06152055782494
C            0.12884308294137       -1.43564053036149       -0.74732315637696
C           -4.46747821677183        2.91139704509813        0.52096152011019
C           -4.83937442897465        2.38540937502187        1.90410077174368
C           -4.10547511049408        4.39142706431142        0.63026247554925
H           -5.34924059550890        0.74324197868830       -1.29036362905094
H           -7.47231345284219       -0.21496090785517       -1.55810025722664
H           -7.73044029257757       -1.72588616525394       -2.46287507930947
H           -6.37748380601924       -0.65498589486239       -2.90224660740930
H           -4.33201581685422       -3.91769215361964        2.30528061802316
H           -4.84058163492715       -5.20459318058562        1.18269901562544
H           -3.22887749358807       -4.46584802498081        1.01056526301182
H           -2.75468542005214       -2.23619272885404        1.64821555265380
H           -2.10136197067543        0.07715559767784        1.40399315154881
H           -3.70939569733936        1.78539101770103       -2.27361030238771
H           -3.35072799818303        3.44313384745208       -1.80212004725484
H           -1.40893753745213        1.10509123431514       -1.92994154235334
H           -1.24649947047920        2.67597144950212       -2.73132048329281
H           -0.85520309652362        3.79179198791807       -0.60322071234655
H           -0.01004486131432        2.25933868388410       -0.33122495943859
H            2.42613019895873       -1.18210824306220        1.29398025250917
H            2.28771187100452        0.47150706513272        0.74117348655979
H            2.60930489443827       -0.35694105998687       -1.64659100266346
H            2.88157393525737       -1.98488546650642       -0.99881360497528
H            4.22075905894440        1.43539203928353       -1.26049127394524
H            6.54266850449868        2.03624762984627       -0.82859073434102
H            8.49518127780118        2.39997403529993        0.47632813948335
H            8.87076405871139        1.78292583381996       -1.15814917533176
H           10.00255491884429        1.49730460688705        0.18662209310821
H            8.03717896347412       -3.77916245700190        1.59592619452514
H            6.35611266987855       -3.32667720167475        1.96823475783781
H            6.79437303704165       -3.87940236647272        0.32499165220381
H            4.89319792772391       -2.47565539016802        0.30054963175781
H            0.29772431590722       -0.94662030165597       -1.72033625221816
H           -0.94572871095696       -1.49700532174584       -0.57232323767434
H            0.54056154654254       -2.45138602091434       -0.83897706289991
H           -5.33632620956489        2.81871610117507       -0.14084424198441
H           -3.94846305186458        2.34201047323464        2.52629898120096
H           -5.27307240596232        1.39044894502144        1.84860473721415
H           -5.56019035032770        3.05105321179597        2.37129253436971
H           -3.30654616746979        4.53501420644541        1.35340737632243
H           -3.79458490538528        4.81377509082331       -0.32194826080404
H           -4.97335356910308        4.95047483849259        0.97153368337851
H           -0.87704401631910        2.62086243089103        2.09477410561395

          :  Hamiltonian                  GFN2-xTB          :
         :: total energy             -99.387619823019 Eh    ::
         :: gradient norm              0.003094909035 Eh/a0 ::
         :: HOMO-LUMO gap              0.586224559837 eV    ::
         :: SCC energy              -100.752358900341 Eh    ::
         :: -> dispersion             -0.071709047873 Eh    ::
         :: repulsion energy           1.363561537242 Eh    ::

    * Orbital Energies and Occupations

         #    Occupation            Energy/Eh            Energy/eV
      -------------------------------------------------------------
         1        2.0000           -0.8162761             -22.2120
       ...           ...                  ...                  ...
        78        1.9958           -0.5306074             -14.4386
        79        1.9950           -0.5280061             -14.3678
        80        1.9940           -0.5251016             -14.2887
        81        1.9915           -0.5194887             -14.1360
        82        1.9893           -0.5158204             -14.0362
        83        1.9881           -0.5140914             -13.9891
        84        1.9829           -0.5083340             -13.8325
        85        1.9633           -0.4961071             -13.4998
        86        1.9526           -0.4919743             -13.3873
        87        1.8423           -0.4720059             -12.8439
        88        1.8261           -0.4703215             -12.7981
        89        1.7146           -0.4614801             -12.5575
        90        1.6645           -0.4584456             -12.4749 (HOMO)
        91        1.1199           -0.4369022             -11.8887 (LUMO)
        92        0.0030           -0.3302604              -8.9868
        93        0.0014           -0.3182908              -8.6611
        94        0.0014           -0.3180329              -8.6541
        95        0.0013           -0.3165387              -8.6135
        96        0.0011           -0.3146043              -8.5608
        97        0.0000           -0.1939622              -5.2780
        98        0.0000           -0.1930255              -5.2525
        99                         -0.0690282              -1.8784
       100                         -0.0673434              -1.8325
       101                         -0.0593149              -1.6140
       ...                                ...                  ...
       171                          0.5685752              15.4717
      -------------------------------------------------------------
                  HL-Gap            0.0215434 Eh            0.5862 eV

     #   Z          covCN         q      C6AA      α(0)
     1   7 N        1.776    -0.281    28.112     7.852
     2   6 C        2.903     0.140    24.944     8.189
     3   6 C        3.924     0.006    20.419     6.422
     4   6 C        2.971     0.021    27.544     8.609
     5   6 C        2.920    -0.073    29.826     8.956
     6   6 C        2.861     0.135    25.038     8.202
     7   8 O        1.706    -0.216    17.582     5.661
     8   6 C        3.644     0.024    20.513     6.510
     9   6 C        2.863     0.135    25.052     8.204
    10   8 O        1.706    -0.214    17.553     5.657
    11   6 C        3.645     0.023    20.523     6.511
    12   6 C        2.913    -0.067    29.657     8.930
    13   6 C        2.920    -0.041    29.014     8.833
    14   6 C        3.837    -0.067    21.764     6.637
    15   6 C        3.829    -0.058    21.592     6.612
    16   6 C        3.827    -0.075    21.916     6.661
    17   7 N        1.819    -0.240    27.109     7.715
    18   6 C        3.740     0.023    20.256     6.422
    19   6 C        3.807    -0.069    21.819     6.650
    20   6 C        2.968     0.010    27.782     8.646
    21   6 C        2.922    -0.042    29.054     8.839
    22   6 C        2.912    -0.064    29.599     8.921
    23   6 C        2.864     0.137    25.003     8.196
    24   8 O        1.706    -0.210    17.490     5.646
    25   6 C        3.646     0.022    20.535     6.513
    26   6 C        2.861     0.138    24.994     8.195
    27   8 O        1.706    -0.213    17.545     5.655
    28   6 C        3.644     0.024    20.513     6.510
    29   6 C        2.918    -0.075    29.871     8.963
    30   6 C        3.688    -0.019    21.113     6.577
    31   6 C        3.852    -0.005    20.640     6.462
    32   6 C        3.756    -0.121    22.864     6.818
    33   6 C        3.756    -0.112    22.691     6.792
    34   1 H        0.926     0.059     2.212     2.326
    35   1 H        0.924     0.059     2.211     2.325
    36   1 H        0.925     0.086     1.922     2.168
    37   1 H        0.924     0.056     2.250     2.346
    38   1 H        0.924     0.061     2.190     2.314
    39   1 H        0.925     0.085     1.923     2.169
    40   1 H        0.924     0.056     2.244     2.343
    41   1 H        0.926     0.062     2.175     2.306
    42   1 H        0.926     0.072     2.059     2.244
    43   1 H        0.925     0.045     2.383     2.414
    44   1 H        0.925     0.053     2.287     2.365
    45   1 H        0.924     0.039     2.459     2.452
    46   1 H        0.925     0.048     2.349     2.397
    47   1 H        0.924     0.069     2.101     2.267
    48   1 H        0.924     0.054     2.265     2.354
    49   1 H        0.923     0.075     2.035     2.231
    50   1 H        0.923     0.064     2.148     2.292
    51   1 H        0.924     0.055     2.260     2.351
    52   1 H        0.924     0.054     2.274     2.358
    53   1 H        0.926     0.053     2.281     2.362
    54   1 H        0.926     0.062     2.170     2.304
    55   1 H        0.924     0.060     2.197     2.318
    56   1 H        0.924     0.061     2.192     2.316
    57   1 H        0.925     0.087     1.911     2.162
    58   1 H        0.925     0.086     1.918     2.166
    59   1 H        0.924     0.057     2.234     2.337
    60   1 H        0.924     0.058     2.219     2.330
    61   1 H        0.926     0.056     2.245     2.343
    62   1 H        0.923     0.057     2.231     2.336
    63   1 H        0.924     0.058     2.223     2.332
    64   1 H        0.923     0.057     2.231     2.336
    65   1 H        0.924     0.044     2.391     2.418
    66   1 H        0.925     0.075     2.035     2.231
    67   1 H        0.925     0.039     2.459     2.452
    68   1 H        0.925     0.056     2.250     2.346
    69   1 H        0.925     0.050     2.325     2.384
    70   1 H        0.925     0.040     2.452     2.449
    71   1 H        0.925     0.054     2.270     2.356
    72   1 H        0.860     0.162     1.320     1.800

Wiberg/Mayer (AO) data.
largest (>0.10) Wiberg bond orders for each atom

     #   Z sym  total        # sym  WBO       # sym  WBO       # sym  WBO
 ---------------------------------------------------------------------------
     1   7 N    2.990 --     2 C    1.898    72 H    0.933
     2   6 C    3.930 --     1 N    1.898    16 C    0.979     3 C    0.971
     3   6 C    3.958 --     4 C    0.972     2 C    0.971    14 C    0.969
                            31 C    0.931
     4   6 C    3.909 --    13 C    1.387     5 C    1.375     3 C    0.972
     5   6 C    3.941 --     6 C    1.388     4 C    1.375    34 H    0.956
     6   6 C    3.871 --     5 C    1.388     9 C    1.201     7 O    1.115
     7   8 O    2.246 --     6 C    1.115     8 C    0.975
     8   6 C    3.924 --    36 H    0.976     7 O    0.975    37 H    0.971
                            35 H    0.970
     9   6 C    3.862 --    12 C    1.374     6 C    1.201    10 O    1.118
    10   8 O    2.244 --     9 C    1.118    11 C    0.975
    11   6 C    3.924 --    39 H    0.976    10 O    0.975    38 H    0.971
                            40 H    0.971
    12   6 C    3.943 --    13 C    1.419     9 C    1.374    41 H    0.961
    13   6 C    3.912 --    12 C    1.419     4 C    1.387    42 H    0.958
    14   6 C    3.980 --    15 C    1.006    43 H    0.972     3 C    0.969
                            44 H    0.967
    15   6 C    3.987 --    14 C    1.006    16 C    1.004    45 H    0.976
                            46 H    0.974
    16   6 C    3.954 --    15 C    1.004     2 C    0.979    48 H    0.963
                            47 H    0.945
    17   7 N    2.270 --    18 C    1.111    30 C    1.105
    18   6 C    3.935 --    17 N    1.111    19 C    0.945    50 H    0.928
                            49 H    0.903
    19   6 C    3.954 --    20 C    1.022    52 H    0.966    51 H    0.964
                            18 C    0.945
    20   6 C    3.918 --    29 C    1.382    21 C    1.376    19 C    1.022
    21   6 C    3.916 --    22 C    1.432    20 C    1.376    53 H    0.967
    22   6 C    3.944 --    21 C    1.432    23 C    1.366    54 H    0.962
    23   6 C    3.860 --    22 C    1.366    26 C    1.202    24 O    1.124
    24   8 O    2.248 --    23 C    1.124    25 C    0.974
    25   6 C    3.922 --    57 H    0.976    24 O    0.974    56 H    0.970
                            55 H    0.970
    26   6 C    3.872 --    29 C    1.384    23 C    1.202    27 O    1.119
    27   8 O    2.250 --    26 C    1.119    28 C    0.975
    28   6 C    3.924 --    58 H    0.976    27 O    0.975    59 H    0.971
                            60 H    0.971
    29   6 C    3.943 --    26 C    1.384    20 C    1.382    61 H    0.961
    30   6 C    3.947 --    17 N    1.105    63 H    0.966    64 H    0.926
                            62 H    0.920
    31   6 C    3.964 --    32 C    1.008    33 C    1.008    65 H    0.955
                             3 C    0.931
    32   6 C    3.964 --    31 C    1.008    67 H    0.979    68 H    0.978
                            66 H    0.965
    33   6 C    3.979 --    31 C    1.008    69 H    0.980    71 H    0.979
                            70 H    0.977
    34   1 H    0.994 --     5 C    0.956
    35   1 H    0.989 --     8 C    0.970
    36   1 H    0.992 --     8 C    0.976
    37   1 H    0.989 --     8 C    0.971
    38   1 H    0.988 --    11 C    0.971
    39   1 H    0.992 --    11 C    0.976
    40   1 H    0.989 --    11 C    0.971
    41   1 H    0.993 --    12 C    0.961
    42   1 H    0.992 --    13 C    0.958
    43   1 H    0.996 --    14 C    0.972
    44   1 H    0.994 --    14 C    0.967
    45   1 H    0.996 --    15 C    0.976
    46   1 H    0.993 --    15 C    0.974
    47   1 H    0.992 --    16 C    0.945
    48   1 H    0.995 --    16 C    0.963
    49   1 H    0.922 --    18 C    0.903
    50   1 H    0.952 --    18 C    0.928
    51   1 H    0.991 --    19 C    0.964
    52   1 H    0.992 --    19 C    0.966
    53   1 H    0.996 --    21 C    0.967
    54   1 H    0.994 --    22 C    0.962
    55   1 H    0.988 --    25 C    0.970
    56   1 H    0.988 --    25 C    0.970
    57   1 H    0.991 --    25 C    0.976
    58   1 H    0.992 --    28 C    0.976
    59   1 H    0.989 --    28 C    0.971
    60   1 H    0.989 --    28 C    0.971
    61   1 H    0.995 --    29 C    0.961
    62   1 H    0.933 --    30 C    0.920
    63   1 H    0.985 --    30 C    0.966
    64   1 H    0.938 --    30 C    0.926
    65   1 H    0.986 --    31 C    0.955
    66   1 H    0.986 --    32 C    0.965
    67   1 H    0.994 --    32 C    0.979
    68   1 H    0.992 --    32 C    0.978
    69   1 H    0.993 --    33 C    0.980
    70   1 H    0.995 --    33 C    0.977
    71   1 H    0.993 --    33 C    0.979
    72   1 H    0.962 --     1 N    0.933
 ---------------------------------------------------------------------------

molecular dipole:
                 x           y           z       tot (Debye)
 q only:        0.639      -0.101      -0.383
   full:        1.081      -0.055      -0.837       3.477

           -------------------------------------------------
          | TOTAL ENERGY              -99.387619823019 Eh   |
          | GRADIENT NORM               0.003094909035 Eh/α |
          | HOMO-LUMO GAP               0.586224559837 eV   |
           -------------------------------------------------

 * finished run on 2024/04/06 at 11:13:23.725
