   * xtb version 6.6.1 (8d0f1dd) compiled by 'conda@1efc2f54142f' on 2023-08-01
          program call               : xtb xtbopt.xyz --opt crude --input .xc2 --gfn2

   ID    Z sym.   atoms
    1    6 C      1, 3, 5-7, 10, 11, 14
    2    7 N      2, 4, 9, 13
    3    8 O      8, 12
    4    1 H      15-25

          :  Hamiltonian                  GFN2-xTB          :
 * total energy  :   -42.1362393 Eh     change       -0.6181722E-12 Eh
   *** GEOMETRY OPTIMIZATION CONVERGED AFTER 1 ITERATIONS ***

 final structure:
================
25
 xtb: 6.6.1 (8d0f1dd)
C            3.28547796723065        1.09648970071230        0.05540937112427
N            2.33327030282960        0.02089900988639        0.01292058003988
C            2.60395502028172       -1.28901493340523        0.04596319730798
N            1.44519200602447       -1.99719941860549        0.01222195657042
C            0.41062784087563       -1.11060768692856       -0.04392204112162
C            0.96327989128310        0.16768228950640       -0.04631644887885
C            0.16333035375528        1.34827125120823       -0.11168422307849
O            0.54136899309670        2.50298993424910       -0.12126388237281
N           -1.23973478415978        1.03249614937103       -0.17914860493847
C           -2.09376665704391        2.06389026276972       -0.27923527944190
C           -1.80440645056731       -0.27057958552496       -0.14050591832706
O           -2.99710275196449       -0.43389077262363       -0.16219234729104
N           -0.91943322321784       -1.34495912758052       -0.08167753023685
C           -1.45437660464283       -2.69224694335749       -0.04095388653583
H            3.81834963329853        1.09451799801187        1.00759321993416
H            4.01119259306034        0.99507437229658       -0.75180660348224
H            2.75132770741234        2.04009897185898       -0.05188571638305
H            3.58309700029061       -1.71979822588038        0.08917219605150
H           -1.67663508689968        3.05448575781886       -0.30310268644373
H           -3.14646945902774        1.86131848254191       -0.34503549368966
H           -3.98953182756693        3.47757683175118        1.53729561670376
H           -1.12497439258574       -3.20368491879578        0.86385223907479
H           -1.14439366514911       -3.25304021256561       -0.92360707195839
H           -2.54111365210978       -2.61826215886172       -0.03220362977771
H            1.38190075959601       -3.00426848625380        0.02128460505089

          :  Hamiltonian                  GFN2-xTB          :
         :: total energy             -42.136239260931 Eh    ::
         :: gradient norm              0.001828054851 Eh/a0 ::
         :: HOMO-LUMO gap              0.317887876643 eV    ::
         :: SCC energy               -42.651293861209 Eh    ::
         :: -> dispersion             -0.022687941937 Eh    ::
         :: repulsion energy           0.514964277357 Eh    ::

    * Orbital Energies and Occupations

         #    Occupation            Energy/Eh            Energy/eV
      -------------------------------------------------------------
         1        2.0000           -0.9060451             -24.6547
       ...           ...                  ...                  ...
        25        1.9994           -0.6723263             -18.2949
        26        1.9993           -0.6685520             -18.1922
        27        1.9992           -0.6636038             -18.0576
        28        1.9968           -0.6317648             -17.1912
        29        1.9966           -0.6297832             -17.1373
        30        1.9964           -0.6284514             -17.1010
        31        1.9943           -0.6176965             -16.8084
        32        1.9935           -0.6146789             -16.7263
        33        1.9929           -0.6126494             -16.6710
        34        1.9791           -0.5867453             -15.9662
        35        1.9549           -0.5682003             -15.4615
        36        1.9311           -0.5578253             -15.1792
        37        1.0506           -0.4810732             -13.0907 (HOMO)
        38        0.8072           -0.4693910             -12.7728 (LUMO)
        39        0.2190           -0.4288855             -11.6706
        40        0.0679           -0.3991548             -10.8616
        41        0.0230           -0.3728429             -10.1456
        42        0.0007           -0.2879559              -7.8357
        43        0.0000           -0.2081082              -5.6629
        44        0.0000           -0.1954015              -5.3171
        45        0.0000           -0.1501900              -4.0869
        46        0.0000           -0.1448640              -3.9419
        47                         -0.0763970              -2.0789
        48                         -0.0529227              -1.4401
       ...                                ...                  ...
        67                          0.5378148              14.6347
      -------------------------------------------------------------
                  HL-Gap            0.0116822 Eh            0.3179 eV

     #   Z          covCN         q      C6AA      α(0)
     1   6 C        3.690    -0.092    22.451     6.781
     2   7 N        2.823     0.070    20.025     6.646
     3   6 C        3.037     0.041    27.051     8.531
     4   7 N        2.783    -0.062    22.435     7.035
     5   6 C        3.033     0.102    25.701     8.315
     6   6 C        3.098    -0.019    28.363     8.728
     7   6 C        2.775     0.250    22.796     7.820
     8   8 O        0.857    -0.357    20.837     6.120
     9   7 N        2.740    -0.029    21.814     6.937
    10   6 C        2.814    -0.023    28.562     8.756
    11   6 C        2.737     0.305    21.812     7.646
    12   8 O        0.859    -0.348    20.678     6.097
    13   7 N        2.736    -0.045    22.121     6.985
    14   6 C        3.698    -0.073    22.070     6.719
    15   1 H        0.924     0.106     1.729     2.056
    16   1 H        0.925     0.105     1.737     2.061
    17   1 H        0.925     0.134     1.507     1.919
    18   1 H        0.926     0.121     1.607     1.982
    19   1 H        0.926     0.135     1.495     1.912
    20   1 H        0.926     0.132     1.519     1.927
    21   1 H        0.000     0.017     6.927     4.812
    22   1 H        0.924     0.086     1.915     2.164
    23   1 H        0.924     0.088     1.899     2.155
    24   1 H        0.925     0.129     1.545     1.944
    25   1 H        0.860     0.226     0.981     1.551

Wiberg/Mayer (AO) data.
largest (>0.10) Wiberg bond orders for each atom

     #   Z sym  total        # sym  WBO       # sym  WBO       # sym  WBO
 ---------------------------------------------------------------------------
     1   6 C    3.910 --     2 N    0.989    16 H    0.959    17 H    0.959
                            15 H    0.956
     2   7 N    3.601 --     3 C    1.341     6 C    1.144     1 C    0.989
     3   6 C    3.735 --     2 N    1.341     4 N    1.248    18 H    0.954
     4   7 N    3.542 --     3 C    1.248     5 C    1.190    25 H    0.920
     5   6 C    3.858 --     6 C    1.310     4 N    1.190    13 N    1.183
     6   6 C    3.868 --     5 C    1.310     2 N    1.144     7 C    1.126
     7   6 C    3.838 --     8 O    1.647     6 C    1.126     9 N    0.980
     8   8 O    1.905 --     7 C    1.647
     9   7 N    3.584 --    10 C    1.330    11 C    1.022     7 C    0.980
    10   6 C    3.323 --     9 N    1.330    19 H    0.955    20 H    0.955
    11   6 C    3.880 --    12 O    1.683    13 N    1.085     9 N    1.022
    12   8 O    1.975 --    11 C    1.683    13 N    0.124
    13   7 N    3.526 --     5 C    1.183    11 C    1.085    14 C    0.974
                            12 O    0.124
    14   6 C    3.915 --    13 N    0.974    22 H    0.968    23 H    0.967
                            24 H    0.962
    15   1 H    0.979 --     1 C    0.956
    16   1 H    0.981 --     1 C    0.959
    17   1 H    0.979 --     1 C    0.959
    18   1 H    0.984 --     3 C    0.954
    19   1 H    0.978 --    10 C    0.955
    20   1 H    0.979 --    10 C    0.955
    21   1 H    0.017
    22   1 H    0.985 --    14 C    0.968
    23   1 H    0.985 --    14 C    0.967
    24   1 H    0.981 --    14 C    0.962
    25   1 H    0.948 --     4 N    0.920
 ---------------------------------------------------------------------------

molecular dipole:
                 x           y           z       tot (Debye)
 q only:        2.232      -1.941       0.011
   full:        2.445      -2.378       0.029       8.670

           -------------------------------------------------
          | TOTAL ENERGY              -42.136239260931 Eh   |
          | GRADIENT NORM               0.001828054851 Eh/α |
          | HOMO-LUMO GAP               0.317887876643 eV   |
           -------------------------------------------------

 * finished run on 2024/06/05 at 19:58:52.388
