   * xtb version 6.6.1 (8d0f1dd) compiled by 'conda@1efc2f54142f' on 2023-08-01
          program call               : xtb struc.xyz --opt loose --input .xc1 --gfn2

   ID    Z sym.   atoms
    1    6 C      1, 3, 5-7, 10, 11, 14
    2    7 N      2, 4, 9, 13
    3    8 O      8, 12
    4    1 H      15-25
constraining bond 4 7 to    5.9200000 Å, actual value:    3.5994291 Å

          :  Hamiltonian                  GFN2-xTB          :
 * total energy  :   -32.6301049 Eh     change       -0.6633627E-10 Eh
 * total energy  :   -36.3665535 Eh     change       -0.3736449E+01 Eh
 * total energy  :   -39.0598659 Eh     change       -0.2693312E+01 Eh
 * total energy  :   -40.8905994 Eh     change       -0.1830734E+01 Eh
 * total energy  :   -41.6617023 Eh     change       -0.7711028E+00 Eh
 * total energy  :   -41.7706787 Eh     change       -0.1089764E+00 Eh
 * total energy  :   -41.7956132 Eh     change       -0.2493454E-01 Eh
 * total energy  :   -41.8575549 Eh     change       -0.6194163E-01 Eh
 * total energy  :   -41.8810238 Eh     change       -0.2346889E-01 Eh
 * total energy  :   -41.9011835 Eh     change       -0.2015972E-01 Eh
 * total energy  :   -42.1217495 Eh     change        0.1198199E-04 Eh
 * total energy  :   -42.1221295 Eh     change       -0.3799924E-03 Eh
 * total energy  :   -42.1222951 Eh     change       -0.1656372E-03 Eh
 * total energy  :   -42.1225207 Eh     change       -0.2255884E-03 Eh
 * total energy  :   -42.1226574 Eh     change       -0.1367380E-03 Eh
 * total energy  :   -42.1227290 Eh     change       -0.7151597E-04 Eh
 * total energy  :   -42.1227922 Eh     change       -0.6321668E-04 Eh
 * total energy  :   -42.1228482 Eh     change       -0.5601976E-04 Eh
 * total energy  :   -42.1228951 Eh     change       -0.4693050E-04 Eh
   *** GEOMETRY OPTIMIZATION CONVERGED AFTER 97 ITERATIONS ***

 final structure:
================
25
 xtb: 6.6.1 (8d0f1dd)
C            3.12777797833584       -0.44864129465734        1.09199540070182
N            2.31409698518451       -0.68149731491108       -0.09016315760155
C            2.94461316642302       -1.43916388394544       -1.18378632380587
N            4.02224193677439       -2.03473303577443       -1.15015919289581
C           -0.12583391869158        0.09824884869546       -0.10338099924538
C            1.09891487542335       -0.33113270777143       -0.13787663116206
C           -0.62491871757050        1.56077325718388       -0.46192518029888
O            0.07364527149247        2.47007857807710       -0.77316499410077
N           -1.95673504045553        1.47849609945836       -0.29675025234859
C           -2.86844056531022        2.57916261403839       -0.53805758475855
C           -2.39604870519866        0.22027672139321        0.12774682157293
O           -3.51336322527530       -0.10658331984845        0.36883744576449
N           -1.26038374270102       -0.57845229242998        0.22913498699487
C           -1.31572864223599       -1.95360689819871        0.66161063258780
H            3.34137469611092       -1.39540843658652        1.59132340083052
H            4.06767169524858        0.01858925807798        0.79343467563289
H            2.60866906965150        0.20886873295593        1.78427223764979
H            2.33300049788844       -1.45401480784675       -2.07880050328123
H           -2.35578645866568        3.51766543214021       -0.33767450995876
H           -3.20981524330992        2.56590512100180       -1.57377655384694
H           -3.72558545861257        2.46217841706974        0.12282836740045
H           -0.76985369699783       -2.08771439249213        1.59635712089673
H           -0.90145668406983       -2.61259389191499       -0.10259707913229
H           -2.36450523123293       -2.20033015828945        0.82122517137162
H            4.61688067190803       -2.03813210382468       -0.32948168106096

          :  Hamiltonian                  GFN2-xTB          :
         :: total energy             -42.122895120575 Eh    ::
         :: gradient norm              0.002184329705 Eh/a0 ::
         :: HOMO-LUMO gap              2.021082466101 eV    ::
         :: SCC energy               -42.690607947264 Eh    ::
         :: -> dispersion             -0.020227279143 Eh    ::
         :: repulsion energy           0.567620413900 Eh    ::

    * Orbital Energies and Occupations

         #    Occupation            Energy/Eh            Energy/eV
      -------------------------------------------------------------
         1        2.0000           -0.8971142             -24.4117
       ...           ...                  ...                  ...
        25        2.0000           -0.6645516             -18.0834
        26        2.0000           -0.6615039             -18.0004
        27        2.0000           -0.6601029             -17.9623
        28        2.0000           -0.6465588             -17.5938
        29        2.0000           -0.6437551             -17.5175
        30        2.0000           -0.6393329             -17.3971
        31        2.0000           -0.6318800             -17.1943
        32        2.0000           -0.6166565             -16.7801
        33        1.9999           -0.5976789             -16.2637
        34        1.9992           -0.5820035             -15.8371
        35        1.9989           -0.5801621             -15.7870
        36        1.9975           -0.5734260             -15.6037
        37        1.9838           -0.5585468             -15.1988 (HOMO)
        38        0.0204           -0.4842734             -13.1778 (LUMO)
        39        0.0003           -0.4506528             -12.2629
        40        0.0000           -0.3978880             -10.8271
        41                         -0.3441520              -9.3649
        42                         -0.3381660              -9.2020
        43                         -0.2277747              -6.1981
        44                         -0.1789116              -4.8684
        45                         -0.1668702              -4.5408
        46                         -0.0857712              -2.3340
        47                         -0.0697181              -1.8971
        48                         -0.0547140              -1.4888
       ...                                ...                  ...
        67                          0.8297795              22.5794
      -------------------------------------------------------------
                  HL-Gap            0.0742734 Eh            2.0211 eV

     #   Z          covCN         q      C6AA      α(0)
     1   6 C        3.708    -0.080    22.182     6.732
     2   7 N        2.726     0.085    19.769     6.604
     3   6 C        2.765     0.120    25.338     8.244
     4   7 N        1.772    -0.207    26.299     7.594
     5   6 C        2.951     0.043    27.025     8.526
     6   6 C        1.939     0.060    29.573     8.782
     7   6 C        2.812     0.291    22.064     7.696
     8   8 O        0.857    -0.297    19.735     5.956
     9   7 N        2.780    -0.067    22.529     7.050
    10   6 C        3.692    -0.061    21.861     6.690
    11   6 C        2.803     0.328    21.435     7.585
    12   8 O        0.857    -0.325    20.243     6.032
    13   7 N        2.777    -0.051    22.234     7.003
    14   6 C        3.691    -0.067    21.972     6.708
    15   1 H        0.924     0.109     1.708     2.044
    16   1 H        0.924     0.114     1.662     2.016
    17   1 H        0.925     0.102     1.763     2.076
    18   1 H        0.925     0.110     1.699     2.038
    19   1 H        0.925     0.103     1.759     2.074
    20   1 H        0.924     0.097     1.811     2.105
    21   1 H        0.925     0.110     1.698     2.038
    22   1 H        0.924     0.079     1.992     2.207
    23   1 H        0.924     0.079     1.991     2.206
    24   1 H        0.925     0.119     1.618     1.989
    25   1 H        0.860     0.206     1.076     1.625

Wiberg/Mayer (AO) data.
largest (>0.10) Wiberg bond orders for each atom

     #   Z sym  total        # sym  WBO       # sym  WBO       # sym  WBO
 ---------------------------------------------------------------------------
     1   6 C    3.926 --    17 H    0.975     2 N    0.960    16 H    0.957
                            15 H    0.955
     2   7 N    3.716 --     6 C    1.637     1 C    0.960     3 C    0.912
     3   6 C    3.935 --     4 N    2.031    18 H    0.939     2 N    0.912
     4   7 N    3.124 --     3 C    2.031    25 H    0.919
     5   6 C    3.969 --     6 C    1.790    13 N    1.150     7 C    0.798
     6   6 C    3.871 --     5 C    1.790     2 N    1.637    13 N    0.112
     7   6 C    3.950 --     8 O    1.792     9 N    1.222     5 C    0.798
     8   8 O    2.194 --     7 C    1.792     9 N    0.168
     9   7 N    3.580 --     7 C    1.222    11 C    1.044    10 C    0.961
                             8 O    0.168    12 O    0.107
    10   6 C    3.914 --    19 H    0.973    21 H    0.969    20 H    0.966
                             9 N    0.961
    11   6 C    3.957 --    12 O    1.756    13 N    1.066     9 N    1.044
    12   8 O    2.121 --    11 C    1.756    13 N    0.125     9 N    0.107
    13   7 N    3.534 --     5 C    1.150    11 C    1.066    14 C    0.980
                            12 O    0.125     6 C    0.112
    14   6 C    3.933 --    13 N    0.980    23 H    0.972    22 H    0.972
                            24 H    0.967
    15   1 H    0.984 --     1 C    0.955
    16   1 H    0.985 --     1 C    0.957
    17   1 H    0.989 --     1 C    0.975
    18   1 H    0.987 --     3 C    0.939
    19   1 H    0.989 --    10 C    0.973
    20   1 H    0.989 --    10 C    0.966
    21   1 H    0.985 --    10 C    0.969
    22   1 H    0.992 --    14 C    0.972
    23   1 H    0.993 --    14 C    0.972
    24   1 H    0.985 --    14 C    0.967
    25   1 H    0.957 --     4 N    0.919
 ---------------------------------------------------------------------------

molecular dipole:
                 x           y           z       tot (Debye)
 q only:        2.008      -0.977       0.365
   full:        1.982      -0.867       0.629       5.728

           -------------------------------------------------
          | TOTAL ENERGY              -42.122895120575 Eh   |
          | GRADIENT NORM               0.002184329705 Eh/α |
          | HOMO-LUMO GAP               2.021082466101 eV   |
           -------------------------------------------------

 * finished run on 2024/06/05 at 19:57:59.716
