   * xtb version 6.6.1 (8d0f1dd) compiled by 'conda@1efc2f54142f' on 2023-08-01
          program call               : xtb xtbopt.xyz --opt crude --input .xc2 --gfn2

   ID    Z sym.   atoms
    1    6 C      1, 3, 5-7, 10, 11, 14
    2    7 N      2, 4, 9, 13
    3    8 O      8, 12
    4    1 H      15-25
########################################################################
[WARNING] Please study the warnings concerning your input carefully
-1- readin_getIntValue: could not parse ''
########################################################################

          :  Hamiltonian                  GFN2-xTB          :
 * total energy  :   -42.1229257 Eh     change       -0.1278977E-12 Eh
 * total energy  :   -42.1235564 Eh     change       -0.6307071E-03 Eh
 * total energy  :   -42.1241089 Eh     change       -0.5524991E-03 Eh
 * total energy  :   -42.1244301 Eh     change       -0.3211713E-03 Eh
   *** GEOMETRY OPTIMIZATION CONVERGED AFTER 4 ITERATIONS ***

 final structure:
================
25
 xtb: 6.6.1 (8d0f1dd)
C            3.13864581339901       -0.43913652139585        1.11215175926001
N            2.30218309131195       -0.67299663870093       -0.05233294279394
C            2.89979777043861       -1.35582695941693       -1.19719039040287
N            3.99746468304059       -1.90770722403612       -1.21637734838342
C           -0.14771509844543        0.03629722521417       -0.06989439783007
C            1.07428622236168       -0.38709996973752       -0.06515683576535
C           -0.57518305650877        1.48131056066514       -0.48323932352203
O            0.15162667642907        2.36070973940791       -0.82118853433354
N           -1.91551062315621        1.45454096656674       -0.31836778169008
C           -2.80310510348300        2.57487877733196       -0.55978884651115
C           -2.40401703445687        0.21789677079714        0.12263206294825
O           -3.53482183135258       -0.06845946106226        0.35342847743761
N           -1.29645819664028       -0.61392062024905        0.25306850957658
C           -1.36910077092951       -1.98631054859300        0.68855147620943
H            3.38546889227531       -1.38949894559889        1.59116537361266
H            4.05765497833602        0.05861565691323        0.79848812550994
H            2.61443217055305        0.19322271336616        1.82602971100882
H            2.25981939139915       -1.36189323104392       -2.06942599804012
H           -2.27659401251606        3.50410187849799       -0.35318673364748
H           -3.14680375748133        2.57267116862301       -1.59457824393245
H           -3.66269570045587        2.46842225557687        0.10100595864901
H           -0.82531310087853       -2.12109270890800        1.62460577155722
H           -0.95505415741307       -2.64842670629006       -0.07316908392822
H           -2.41978807120421       -2.22421010888987        0.84401455468121
H            4.61121233949231       -1.92784952743561       -0.41007370176339

          :  Hamiltonian                  GFN2-xTB          :
         :: total energy             -42.124430051502 Eh    ::
         :: gradient norm              0.005370516808 Eh/a0 ::
         :: HOMO-LUMO gap              2.028018732873 eV    ::
         :: SCC energy               -42.698005878676 Eh    ::
         :: -> dispersion             -0.020314091948 Eh    ::
         :: repulsion energy           0.573508551054 Eh    ::

    * Orbital Energies and Occupations

         #    Occupation            Energy/Eh            Energy/eV
      -------------------------------------------------------------
         1        2.0000           -0.8977453             -24.4289
       ...           ...                  ...                  ...
        25        2.0000           -0.6658396             -18.1184
        26        2.0000           -0.6623481             -18.0234
        27        2.0000           -0.6611016             -17.9895
        28        2.0000           -0.6461287             -17.5821
        29        2.0000           -0.6438147             -17.5191
        30        2.0000           -0.6406192             -17.4321
        31        2.0000           -0.6326897             -17.2164
        32        2.0000           -0.6160614             -16.7639
        33        1.9999           -0.5974802             -16.2583
        34        1.9992           -0.5821477             -15.8410
        35        1.9989           -0.5800380             -15.7836
        36        1.9973           -0.5727943             -15.5865
        37        1.9841           -0.5585928             -15.2001 (HOMO)
        38        0.0202           -0.4840645             -13.1721 (LUMO)
        39        0.0003           -0.4517463             -12.2926
        40        0.0000           -0.3963426             -10.7850
        41                         -0.3431102              -9.3365
        42                         -0.3372570              -9.1772
        43                         -0.2197796              -5.9805
        44                         -0.1789445              -4.8693
        45                         -0.1563755              -4.2552
        46                         -0.0859519              -2.3389
        47                         -0.0671428              -1.8270
        48                         -0.0521127              -1.4181
       ...                                ...                  ...
        67                          0.8490522              23.1039
      -------------------------------------------------------------
                  HL-Gap            0.0745283 Eh            2.0280 eV

     #   Z          covCN         q      C6AA      α(0)
     1   6 C        3.707    -0.081    22.196     6.734
     2   7 N        2.727     0.090    19.695     6.591
     3   6 C        2.776     0.121    25.327     8.243
     4   7 N        1.773    -0.210    26.362     7.603
     5   6 C        2.972     0.046    26.954     8.516
     6   6 C        1.951     0.058    29.598     8.786
     7   6 C        2.812     0.291    22.078     7.698
     8   8 O        0.857    -0.303    19.831     5.971
     9   7 N        2.787    -0.070    22.592     7.059
    10   6 C        3.691    -0.061    21.860     6.690
    11   6 C        2.809     0.328    21.441     7.586
    12   8 O        0.857    -0.325    20.240     6.032
    13   7 N        2.777    -0.051    22.224     7.002
    14   6 C        3.691    -0.066    21.959     6.706
    15   1 H        0.924     0.110     1.695     2.036
    16   1 H        0.924     0.116     1.650     2.009
    17   1 H        0.925     0.104     1.749     2.068
    18   1 H        0.925     0.110     1.696     2.037
    19   1 H        0.925     0.102     1.768     2.079
    20   1 H        0.924     0.097     1.810     2.104
    21   1 H        0.925     0.110     1.698     2.038
    22   1 H        0.924     0.079     1.987     2.204
    23   1 H        0.924     0.079     1.987     2.204
    24   1 H        0.925     0.119     1.622     1.992
    25   1 H        0.860     0.206     1.074     1.624

Wiberg/Mayer (AO) data.
largest (>0.10) Wiberg bond orders for each atom

     #   Z sym  total        # sym  WBO       # sym  WBO       # sym  WBO
 ---------------------------------------------------------------------------
     1   6 C    3.924 --    17 H    0.974     2 N    0.959    16 H    0.958
                            15 H    0.954
     2   7 N    3.720 --     6 C    1.638     1 C    0.959     3 C    0.919
     3   6 C    3.936 --     4 N    2.024    18 H    0.939     2 N    0.919
     4   7 N    3.116 --     3 C    2.024    25 H    0.919
     5   6 C    3.972 --     6 C    1.784    13 N    1.152     7 C    0.812
     6   6 C    3.874 --     5 C    1.784     2 N    1.638    13 N    0.111
     7   6 C    3.950 --     8 O    1.784     9 N    1.214     5 C    0.812
     8   8 O    2.183 --     7 C    1.784     9 N    0.170
     9   7 N    3.576 --     7 C    1.214    11 C    1.043    10 C    0.963
                             8 O    0.170    12 O    0.108
    10   6 C    3.915 --    19 H    0.973    21 H    0.968    20 H    0.965
                             9 N    0.963
    11   6 C    3.957 --    12 O    1.757    13 N    1.067     9 N    1.043
    12   8 O    2.121 --    11 C    1.757    13 N    0.125     9 N    0.108
    13   7 N    3.534 --     5 C    1.152    11 C    1.067    14 C    0.980
                            12 O    0.125     6 C    0.111
    14   6 C    3.933 --    13 N    0.980    23 H    0.972    22 H    0.972
                            24 H    0.968
    15   1 H    0.984 --     1 C    0.954
    16   1 H    0.985 --     1 C    0.958
    17   1 H    0.989 --     1 C    0.974
    18   1 H    0.987 --     3 C    0.939
    19   1 H    0.989 --    10 C    0.973
    20   1 H    0.989 --    10 C    0.965
    21   1 H    0.985 --    10 C    0.968
    22   1 H    0.992 --    14 C    0.972
    23   1 H    0.993 --    14 C    0.972
    24   1 H    0.985 --    14 C    0.968
    25   1 H    0.957 --     4 N    0.919
 ---------------------------------------------------------------------------

molecular dipole:
                 x           y           z       tot (Debye)
 q only:        2.030      -1.008       0.431
   full:        1.991      -0.930       0.710       5.870

           -------------------------------------------------
          | TOTAL ENERGY              -42.124430051502 Eh   |
          | GRADIENT NORM               0.005370516808 Eh/α |
          | HOMO-LUMO GAP               2.028018732873 eV   |
           -------------------------------------------------

 * finished run on 2024/06/05 at 19:57:59.938
