   * xtb version 6.6.1 (8d0f1dd) compiled by 'conda@1efc2f54142f' on 2023-08-01
          program call               : xtb struc.xyz --opt loose --input .xc1 --gfn2

   ID    Z sym.   atoms
    1    6 C      1, 3, 5-7, 10, 11, 14
    2    7 N      2, 4, 9, 13
    3    8 O      8, 12
    4    1 H      15-25
constraining bond 8 9 to    4.6800000 Å, actual value:    2.2895399 Å

          :  Hamiltonian                  GFN2-xTB          :
 * total energy  :    -1.4355971 Eh     change       -0.6650680E-10 Eh
 * total energy  :   -21.0811079 Eh     change       -0.1964551E+02 Eh
 * total energy  :   -32.4434427 Eh     change       -0.1136233E+02 Eh
 * total energy  :   -38.8341198 Eh     change       -0.6390677E+01 Eh
 * total energy  :   -41.3272487 Eh     change       -0.2493129E+01 Eh
 * total energy  :   -41.6228399 Eh     change       -0.2955912E+00 Eh
 * total energy  :   -41.6442290 Eh     change       -0.2138905E-01 Eh
 * total energy  :   -41.6669856 Eh     change       -0.2275668E-01 Eh
 * total energy  :   -41.6837321 Eh     change       -0.1674642E-01 Eh
 * total energy  :   -41.6907434 Eh     change       -0.7011354E-02 Eh
 * total energy  :   -42.1507876 Eh     change       -0.2831774E-03 Eh
 * total energy  :   -42.1508209 Eh     change       -0.3325922E-04 Eh
 * total energy  :   -42.1509514 Eh     change       -0.1305283E-03 Eh
 * total energy  :   -42.1510103 Eh     change       -0.5883564E-04 Eh
 * total energy  :   -42.1511322 Eh     change       -0.1219492E-03 Eh
 * total energy  :   -42.1511918 Eh     change       -0.5958924E-04 Eh
 * total energy  :   -42.1512382 Eh     change       -0.4638859E-04 Eh
 * total energy  :   -42.1512561 Eh     change       -0.1790424E-04 Eh
 * total energy  :   -42.1512840 Eh     change       -0.2791207E-04 Eh
   *** GEOMETRY OPTIMIZATION CONVERGED AFTER 118 ITERATIONS ***

 final structure:
================
25
 xtb: 6.6.1 (8d0f1dd)
C            3.88886047011240        0.63535596630070       -0.58471841192397
N            2.80726368569978       -0.26837977033415       -0.31551724335776
C            2.71027498690379       -1.53174191067803       -0.67477436819502
N            1.56107568862004       -2.06480197753713       -0.24955401923493
C            0.80368373875360       -1.10172363736527        0.46070784248167
C            1.64952252593269        0.09156433435103        0.39545981678083
C            1.36396455776729        1.31248083828669        0.83418908339658
O            1.13081029539194        2.35975056446671        1.25472450855539
N           -3.12489370874518        1.37480716446963       -0.42563229635999
C           -4.37938326827320        2.00106445925476       -0.31638066670995
C           -1.95943348702911        1.36586661241979       -0.60829093160430
O           -0.82479216285069        1.16260105149840       -0.77579056556480
N           -0.30431192631677       -1.20565605669373        1.03928923082928
C           -1.12990252306682       -2.36276915226118        1.10160623305536
H            4.25269176694100        1.07145476047805        0.34745473350787
H            4.70296691166596        0.10068342033056       -1.07069977941883
H            3.55196917840127        1.44403078218620       -1.23669683516572
H            3.46008725561359       -2.06104519414857       -1.23491834809254
H           -4.30074014144309        2.94908259581168        0.22046780026660
H           -4.79223706229230        2.17873126772722       -1.31130681366584
H           -5.04323670015267        1.33002334952391        0.22968697072709
H           -0.58383392212927       -3.31063809190538        1.05258775458514
H           -1.85672869607004       -2.32796883874767        0.28638531169452
H           -1.68153615092245       -2.31505714556822        2.04015780016449
H            1.25829020160111       -3.00947685028068       -0.42726518884833

          :  Hamiltonian                  GFN2-xTB          :
         :: total energy             -42.151284001999 Eh    ::
         :: gradient norm              0.003898959080 Eh/a0 ::
         :: HOMO-LUMO gap              2.432937035571 eV    ::
         :: SCC energy               -42.775662358812 Eh    ::
         :: -> dispersion             -0.019139440659 Eh    ::
         :: repulsion energy           0.624279557490 Eh    ::

    * Orbital Energies and Occupations

         #    Occupation            Energy/Eh            Energy/eV
      -------------------------------------------------------------
         1        2.0000           -0.9067325             -24.6734
       ...           ...                  ...                  ...
        25        2.0000           -0.6494083             -17.6713
        26        2.0000           -0.6446337             -17.5414
        27        2.0000           -0.6406262             -17.4323
        28        1.9999           -0.6372677             -17.3409
        29        1.9998           -0.6176327             -16.8066
        30        1.9998           -0.6145535             -16.7229
        31        1.9997           -0.6085433             -16.5593
        32        1.9996           -0.6073224             -16.5261
        33        1.9991           -0.5926223             -16.1261
        34        1.9593           -0.5322139             -14.4823
        35        1.9493           -0.5286636             -14.3857
        36        1.9165           -0.5204862             -14.1632
        37        1.9076           -0.5188093             -14.1175 (HOMO)
        38        0.1358           -0.4294005             -11.6846 (LUMO)
        39        0.1311           -0.4287991             -11.6682
        40        0.0027           -0.3660001              -9.9594
        41        0.0000           -0.2945113              -8.0141
        42        0.0000           -0.2833310              -7.7098
        43        0.0000           -0.2759549              -7.5091
        44                         -0.1753804              -4.7723
        45                         -0.1419085              -3.8615
        46                         -0.0836318              -2.2757
        47                         -0.0709640              -1.9310
        48                         -0.0425075              -1.1567
       ...                                ...                  ...
        67                          1.2464013              33.9163
      -------------------------------------------------------------
                  HL-Gap            0.0894088 Eh            2.4329 eV

     #   Z          covCN         q      C6AA      α(0)
     1   6 C        3.691    -0.085    22.315     6.760
     2   7 N        2.803     0.065    20.115     6.661
     3   6 C        2.960     0.080    26.216     8.398
     4   7 N        2.773    -0.091    23.008     7.124
     5   6 C        2.924     0.163    24.492     8.116
     6   6 C        3.044    -0.012    28.269     8.720
     7   6 C        1.844     0.272    24.934     8.066
     8   8 O        0.856    -0.102    16.544     5.453
     9   7 N        1.820    -0.137    24.738     7.370
    10   6 C        3.685    -0.033    21.362     6.617
    11   6 C        1.769     0.310    24.249     7.961
    12   8 O        0.856    -0.313    20.027     6.000
    13   7 N        1.824    -0.208    26.344     7.605
    14   6 C        3.699    -0.036    21.388     6.614
    15   1 H        0.924     0.101     1.772     2.082
    16   1 H        0.925     0.103     1.761     2.075
    17   1 H        0.924     0.104     1.747     2.067
    18   1 H        0.926     0.114     1.661     2.016
    19   1 H        0.924     0.085     1.926     2.170
    20   1 H        0.924     0.090     1.879     2.144
    21   1 H        0.924     0.096     1.820     2.110
    22   1 H        0.924     0.045     2.381     2.413
    23   1 H        0.924     0.080     1.977     2.199
    24   1 H        0.925     0.091     1.870     2.139
    25   1 H        0.860     0.217     1.023     1.585

Wiberg/Mayer (AO) data.
largest (>0.10) Wiberg bond orders for each atom

     #   Z sym  total        # sym  WBO       # sym  WBO       # sym  WBO
 ---------------------------------------------------------------------------
     1   6 C    3.934 --     2 N    0.994    16 H    0.974    15 H    0.964
                            17 H    0.961
     2   7 N    3.630 --     3 C    1.407     6 C    1.046     1 C    0.994
                             4 N    0.113
     3   6 C    3.853 --     2 N    1.407     4 N    1.319    18 H    0.949
     4   7 N    3.537 --     3 C    1.319     5 C    1.029    25 H    0.924
                             2 N    0.113
     5   6 C    3.933 --    13 N    1.709     6 C    1.047     4 N    1.029
     6   6 C    3.867 --     7 C    1.465     5 C    1.047     2 N    1.046
                             8 O    0.147
     7   6 C    3.727 --     8 O    2.113     6 C    1.465
     8   8 O    2.389 --     7 C    2.113     6 C    0.147
     9   7 N    3.420 --    11 C    2.038    10 C    1.020    12 O    0.359
    10   6 C    3.927 --     9 N    1.020    21 H    0.960    19 H    0.955
                            20 H    0.953
    11   6 C    3.940 --     9 N    2.038    12 O    1.827
    12   8 O    2.235 --    11 C    1.827     9 N    0.359
    13   7 N    3.022 --     5 C    1.709    14 C    1.035
    14   6 C    3.951 --    13 N    1.035    22 H    0.963    24 H    0.962
                            23 H    0.947
    15   1 H    0.987 --     1 C    0.964
    16   1 H    0.989 --     1 C    0.974
    17   1 H    0.986 --     1 C    0.961
    18   1 H    0.984 --     3 C    0.949
    19   1 H    0.982 --    10 C    0.955
    20   1 H    0.980 --    10 C    0.953
    21   1 H    0.982 --    10 C    0.960
    22   1 H    0.982 --    14 C    0.963
    23   1 H    0.980 --    14 C    0.947
    24   1 H    0.980 --    14 C    0.962
    25   1 H    0.951 --     4 N    0.924
 ---------------------------------------------------------------------------

molecular dipole:
                 x           y           z       tot (Debye)
 q only:        1.810      -0.980      -0.424
   full:        1.983      -1.344      -0.739       6.372

           -------------------------------------------------
          | TOTAL ENERGY              -42.151284001999 Eh   |
          | GRADIENT NORM               0.003898959080 Eh/α |
          | HOMO-LUMO GAP               2.432937035571 eV   |
           -------------------------------------------------

 * finished run on 2024/06/05 at 20:00:16.871
