   * xtb version 6.6.1 (8d0f1dd) compiled by 'conda@1efc2f54142f' on 2023-08-01
          program call               : xtb struc.xyz --opt loose --input .xc1 --gfn2

   ID    Z sym.   atoms
    1    6 C      1, 3, 5-7, 10, 11, 14
    2    7 N      2, 4, 9, 13
    3    8 O      8, 12
    4    1 H      15-25
constraining bond 5 23 to    3.7133300 Å, actual value:    2.7817644 Å

          :  Hamiltonian                  GFN2-xTB          :
 * total energy  :   -43.7947940 Eh     change       -0.6633627E-10 Eh
 * total energy  :   -47.0611133 Eh     change       -0.3266319E+01 Eh
 * total energy  :   -52.1015802 Eh     change       -0.5040467E+01 Eh
 * total energy  :   -58.6367425 Eh     change       -0.6535162E+01 Eh
 * total energy  :   -46.0301992 Eh     change        0.1260654E+02 Eh
 * total energy  :   -56.2208976 Eh     change       -0.1019070E+02 Eh
 * total energy  :   -56.5903670 Eh     change       -0.3694694E+00 Eh
 * total energy  :   -59.0986813 Eh     change       -0.2508314E+01 Eh
 * total energy  :   -57.1248473 Eh     change        0.1973834E+01 Eh
 * total energy  :   -59.3759342 Eh     change       -0.2251087E+01 Eh
 * total energy  :   -59.7381947 Eh     change       -0.5421153E-04 Eh
 * total energy  :   -59.7382405 Eh     change       -0.4588554E-04 Eh
 * total energy  :   -59.7382876 Eh     change       -0.4710706E-04 Eh
 * total energy  :   -59.7383176 Eh     change       -0.2992958E-04 Eh
 * total energy  :   -59.7383324 Eh     change       -0.1481040E-04 Eh
 * total energy  :   -59.7383435 Eh     change       -0.1111329E-04 Eh
 * total energy  :   -59.7380759 Eh     change        0.2676097E-03 Eh
 * total energy  :   -59.7383520 Eh     change       -0.2760868E-03 Eh
 * total energy  :   -59.7383573 Eh     change       -0.5345378E-05 Eh
   *** GEOMETRY OPTIMIZATION CONVERGED AFTER 96 ITERATIONS ***

 final structure:
================
25
 xtb: 6.6.1 (8d0f1dd)
C            2.84524190527267        0.74277005424945        0.42604686904334
N            1.83110323172855       -0.22609846038436        0.06843086077403
C            2.13413938960270       -1.38611101574136       -0.43391432938849
N            1.19763795577862       -2.28937637588437       -0.81685714901385
C           -0.25254844392653       -2.11279979321771       -0.64749087419490
C            0.50984273130863        0.14413594799748        0.31359450602412
C           -0.03765860649925        1.43158372562676        0.10174838896304
O            0.45467142201938        2.53048104552400        0.09686942015475
N           -1.45750524329963        1.21813849432415       -0.08236990367667
C           -2.37359689432509        2.32735029150125       -0.24531301083513
C           -1.81394922744068       -0.04931214841249       -0.13928122026908
O           -2.82738049810069       -0.64730667789542       -0.28330864725070
N           -0.50414571472224       -0.84369966184717        0.10225035980050
C           -0.64122489225371       -2.08820474893147        0.82635258732673
H            3.00853648057410        0.72723163082181        1.50419948355917
H            3.77651772577872        0.52032021294193       -0.08724925375686
H            2.49707867852667        1.73992939436790        0.15354110322274
H            3.16819209343430       -1.65208428895895       -0.57861302656507
H           -1.77234635080306        3.23544988298651       -0.22226785428351
H           -2.89948350127507        2.24885121434335       -1.19539634688080
H           -3.09771200905736        2.33952176205628        0.56797782380145
H            0.09591906363760       -2.29304969105870        1.59114128289340
H           -0.51377838109147       -2.24029105323759       -0.95664052113366
H           -1.66402149974611       -2.35281011229330        1.07744560175371
H            1.49690209898033       -3.20638108728162       -1.10972453216794

          :  Hamiltonian                  GFN2-xTB          :
         :: total energy             -59.738357319638 Eh    ::
         :: gradient norm              0.001356378790 Eh/a0 ::
         :: HOMO-LUMO gap              2.501431519560 eV    ::
         :: SCC energy               -42.678051815713 Eh    ::
         :: -> dispersion             -0.023324914037 Eh    ::
         :: repulsion energy           2.254364356306 Eh    ::

    * Orbital Energies and Occupations

         #    Occupation            Energy/Eh            Energy/eV
      -------------------------------------------------------------
         1        2.0000           -0.9296903             -25.2982
       ...           ...                  ...                  ...
        25        2.0000           -0.6764311             -18.4066
        26        2.0000           -0.6741169             -18.3437
        27        2.0000           -0.6669114             -18.1476
        28        2.0000           -0.6544879             -17.8095
        29        2.0000           -0.6416533             -17.4603
        30        2.0000           -0.6372807             -17.3413
        31        2.0000           -0.6341672             -17.2566
        32        2.0000           -0.6150697             -16.7369
        33        2.0000           -0.6040221             -16.4363
        34        2.0000           -0.5950713             -16.1927
        35        2.0000           -0.5685031             -15.4698
        36        2.0000           -0.5563888             -15.1401
        37        1.9936           -0.5136276             -13.9765 (HOMO)
        38        0.0056           -0.4217017             -11.4751 (LUMO)
        39        0.0008           -0.4064003             -11.0587
        40                         -0.3263029              -8.8792
        41                         -0.3038203              -8.2674
        42                         -0.2720187              -7.4020
        43                         -0.2393337              -6.5126
        44                         -0.1807775              -4.9192
        45                         -0.1723889              -4.6909
        46                         -0.1433554              -3.9009
        47                         -0.1004740              -2.7340
        48                         -0.0705769              -1.9205
       ...                                ...                  ...
        67                         10.6209677             289.0112
      -------------------------------------------------------------
                  HL-Gap            0.0919259 Eh            2.5014 eV

     #   Z          covCN         q      C6AA      α(0)
     1   6 C        3.711    -0.095    22.461     6.773
     2   7 N        2.737     0.068    20.068     6.653
     3   6 C        2.795     0.065    26.531     8.438
     4   7 N        2.690    -0.156    24.375     7.333
     5   6 C        3.721     0.057    19.731     6.344
     6   6 C        2.900    -0.073    29.825     8.954
     7   6 C        2.807     0.253    22.748     7.814
     8   8 O        0.857    -0.381    21.314     6.190
     9   7 N        2.775    -0.080    22.785     7.089
    10   6 C        3.693    -0.060    21.832     6.685
    11   6 C        2.738     0.308    21.775     7.640
    12   8 O        0.857    -0.330    20.331     6.045
    13   7 N        3.655     0.057    20.248     6.683
    14   6 C        3.741    -0.034    21.249     6.577
    15   1 H        0.924     0.107     1.724     2.053
    16   1 H        0.925     0.096     1.822     2.111
    17   1 H        0.924     0.137     1.483     1.905
    18   1 H        0.926     0.111     1.689     2.032
    19   1 H        0.925     0.119     1.619     1.990
    20   1 H        0.925     0.093     1.854     2.130
    21   1 H        0.925     0.094     1.841     2.122
    22   1 H        0.925     0.115     1.654     2.011
    23   1 H        0.938     0.177     1.224     1.730
    24   1 H        0.925     0.134     1.507     1.920
    25   1 H        0.860     0.220     1.010     1.574

Wiberg/Mayer (AO) data.
largest (>0.10) Wiberg bond orders for each atom

     #   Z sym  total        # sym  WBO       # sym  WBO       # sym  WBO
 ---------------------------------------------------------------------------
     1   6 C    3.917 --    16 H    0.975     2 N    0.974    15 H    0.959
                            17 H    0.950
     2   7 N    3.708 --     3 C    1.477     6 C    1.063     1 C    0.974
                             4 N    0.126
     3   6 C    3.948 --     2 N    1.477     4 N    1.232    18 H    0.945
                             6 C    0.114
     4   7 N    3.423 --     3 C    1.232     5 C    0.997    25 H    0.924
                             2 N    0.126
     5   6 C    3.875 --     4 N    0.997    23 H    0.953    14 C    0.948
                            13 N    0.877
     6   6 C    3.672 --     7 C    1.221     2 N    1.063    13 N    0.955
                             8 O    0.156     3 C    0.114
     7   6 C    3.957 --     8 O    1.676     6 C    1.221     9 N    0.941
     8   8 O    2.083 --     7 C    1.676     6 C    0.156
     9   7 N    3.585 --    11 C    1.315    10 C    0.965     7 C    0.941
                            12 O    0.203
    10   6 C    3.919 --    20 H    0.970    21 H    0.968    19 H    0.967
                             9 N    0.965
    11   6 C    3.955 --    12 O    1.765     9 N    1.315    13 N    0.765
    12   8 O    2.167 --    11 C    1.765     9 N    0.203    13 N    0.106
    13   7 N    3.714 --     6 C    0.955    14 C    0.917     5 C    0.877
                            11 C    0.765    12 O    0.106
    14   6 C    3.893 --    22 H    0.965    24 H    0.956     5 C    0.948
                            13 N    0.917
    15   1 H    0.988 --     1 C    0.959
    16   1 H    0.990 --     1 C    0.975
    17   1 H    0.981 --     1 C    0.950
    18   1 H    0.987 --     3 C    0.945
    19   1 H    0.985 --    10 C    0.967
    20   1 H    0.991 --    10 C    0.970
    21   1 H    0.990 --    10 C    0.968
    22   1 H    0.986 --    14 C    0.965
    23   1 H    0.969 --     5 C    0.953
    24   1 H    0.981 --    14 C    0.956
    25   1 H    0.951 --     4 N    0.924
 ---------------------------------------------------------------------------

molecular dipole:
                 x           y           z       tot (Debye)
 q only:        1.565      -2.362      -0.034
   full:        1.692      -2.783      -0.135       8.286

           -------------------------------------------------
          | TOTAL ENERGY              -59.738357319638 Eh   |
          | GRADIENT NORM               0.001356378790 Eh/α |
          | HOMO-LUMO GAP               2.501431519560 eV   |
           -------------------------------------------------

 * finished run on 2024/06/05 at 19:58:13.839
