   * xtb version 6.6.1 (8d0f1dd) compiled by 'conda@1efc2f54142f' on 2023-08-01
          program call               : xtb xtbopt.xyz --opt crude --input .xc2 --gfn2

   ID    Z sym.   atoms
    1    6 C      1, 3, 5-7, 10, 11, 14
    2    7 N      2, 4, 9, 13
    3    8 O      8, 12
    4    1 H      15-25
########################################################################
[WARNING] Please study the warnings concerning your input carefully
-1- readin_getIntValue: could not parse ''
########################################################################

          :  Hamiltonian                  GFN2-xTB          :
 * total energy  :   -40.4235022 Eh     change        0.4263256E-13 Eh
 * total energy  :   -42.1265750 Eh     change       -0.1703073E+01 Eh
 * total energy  :   -42.1486762 Eh     change       -0.2210124E-01 Eh
 * total energy  :   -42.1532934 Eh     change       -0.4617143E-02 Eh
 * total energy  :   -42.1540192 Eh     change       -0.7258058E-03 Eh
 * total energy  :   -42.1545679 Eh     change       -0.5487340E-03 Eh
 * total energy  :   -42.1550563 Eh     change       -0.4884027E-03 Eh
 * total energy  :   -42.1554165 Eh     change       -0.3601373E-03 Eh
 * total energy  :   -42.1556217 Eh     change       -0.2051918E-03 Eh
   *** GEOMETRY OPTIMIZATION CONVERGED AFTER 9 ITERATIONS ***

 final structure:
================
25
 xtb: 6.6.1 (8d0f1dd)
C            2.85909158386206        0.75289222074623        0.42592623504818
N            1.84312866074283       -0.21554509854907        0.07603375451034
C            2.13659058975351       -1.37684751062280       -0.43212761561988
N            1.19350199857482       -2.27041194781578       -0.83984897329809
C           -0.18462429677603       -2.09643887660822       -0.53183788609039
C            0.52687981902323        0.15664566771338        0.32920352964870
C           -0.03223551418835        1.44253112205214        0.14427214896169
O            0.45090774881568        2.54582071894751        0.16563743139510
N           -1.44592770020393        1.21508904334256       -0.06487330085458
C           -2.37096090025606        2.31438154790623       -0.23926315306144
C           -1.77744603881207       -0.05953250428304       -0.17275415271848
O           -2.77946164449647       -0.65617883029253       -0.39696012681118
N           -0.48954336001259       -0.83397178734568        0.11116017947123
C           -0.61217628988636       -2.06510017850303        0.88668747939730
H            3.00766474677492        0.76092343447525        1.50642999099340
H            3.79568916237136        0.51344641175185       -0.07000391464479
H            2.52041681753353        1.74678306848991        0.12956608218593
H            3.16830002287356       -1.64755252022819       -0.58539123402136
H           -1.77986938922077        3.22902278856796       -0.21246599887538
H           -2.88781372247834        2.22683858616503       -1.19355927716815
H           -3.10269047694530        2.32166701505941        0.56748538154242
H            0.12463774271160       -2.21749959311422        1.66484037335523
H           -0.86802605117668       -2.42447432767220       -1.30137390869389
H           -1.62929894380307       -2.34061344307980        1.14346604836382
H            1.49369694932030       -3.20363646550656       -1.07907747511539

          :  Hamiltonian                  GFN2-xTB          :
         :: total energy             -42.155621660414 Eh    ::
         :: gradient norm              0.008018716574 Eh/a0 ::
         :: HOMO-LUMO gap              2.444361126238 eV    ::
         :: SCC energy               -42.668821650734 Eh    ::
         :: -> dispersion             -0.023328044895 Eh    ::
         :: repulsion energy           0.513009394723 Eh    ::

    * Orbital Energies and Occupations

         #    Occupation            Energy/Eh            Energy/eV
      -------------------------------------------------------------
         1        2.0000           -0.9183447             -24.9894
       ...           ...                  ...                  ...
        25        2.0000           -0.6751766             -18.3725
        26        2.0000           -0.6713666             -18.2688
        27        2.0000           -0.6641935             -18.0736
        28        2.0000           -0.6533571             -17.7788
        29        2.0000           -0.6408266             -17.4378
        30        2.0000           -0.6360292             -17.3072
        31        2.0000           -0.6341655             -17.2565
        32        2.0000           -0.6126622             -16.6714
        33        2.0000           -0.6033247             -16.4173
        34        2.0000           -0.5937262             -16.1561
        35        2.0000           -0.5663963             -15.4124
        36        2.0000           -0.5548225             -15.0975
        37        1.9929           -0.5119480             -13.9308 (HOMO)
        38        0.0066           -0.4221194             -11.4865 (LUMO)
        39        0.0005           -0.4016478             -10.9294
        40                         -0.3221552              -8.7663
        41                         -0.2837304              -7.7207
        42                         -0.2599140              -7.0726
        43                         -0.2052850              -5.5861
        44                         -0.1784416              -4.8556
        45                         -0.1675999              -4.5606
        46                         -0.1316893              -3.5834
        47                         -0.0868093              -2.3622
        48                         -0.0700858              -1.9071
       ...                                ...                  ...
        67                          0.6117330              16.6461
      -------------------------------------------------------------
                  HL-Gap            0.0898286 Eh            2.4444 eV

     #   Z          covCN         q      C6AA      α(0)
     1   6 C        3.711    -0.094    22.443     6.770
     2   7 N        2.736     0.072    19.997     6.642
     3   6 C        2.803     0.061    26.617     8.452
     4   7 N        2.687    -0.136    23.946     7.268
     5   6 C        3.734     0.095    19.088     6.235
     6   6 C        2.908    -0.071    29.776     8.948
     7   6 C        2.807     0.253    22.749     7.814
     8   8 O        0.857    -0.383    21.352     6.195
     9   7 N        2.778    -0.083    22.846     7.099
    10   6 C        3.693    -0.059    21.819     6.684
    11   6 C        2.744     0.308    21.762     7.638
    12   8 O        0.857    -0.339    20.503     6.071
    13   7 N        3.663     0.062    20.163     6.669
    14   6 C        3.740    -0.032    21.222     6.573
    15   1 H        0.924     0.108     1.715     2.048
    16   1 H        0.925     0.096     1.820     2.110
    17   1 H        0.924     0.136     1.488     1.907
    18   1 H        0.926     0.110     1.696     2.037
    19   1 H        0.925     0.118     1.627     1.994
    20   1 H        0.925     0.092     1.860     2.133
    21   1 H        0.925     0.093     1.848     2.126
    22   1 H        0.925     0.116     1.650     2.009
    23   1 H        0.926     0.123     1.586     1.970
    24   1 H        0.925     0.132     1.519     1.927
    25   1 H        0.860     0.221     1.006     1.571

Wiberg/Mayer (AO) data.
largest (>0.10) Wiberg bond orders for each atom

     #   Z sym  total        # sym  WBO       # sym  WBO       # sym  WBO
 ---------------------------------------------------------------------------
     1   6 C    3.918 --     2 N    0.975    16 H    0.975    15 H    0.958
                            17 H    0.950
     2   7 N    3.712 --     3 C    1.476     6 C    1.073     1 C    0.975
                             4 N    0.119
     3   6 C    3.944 --     2 N    1.476     4 N    1.213    18 H    0.947
                             6 C    0.122
     4   7 N    3.422 --     3 C    1.213     5 C    1.022    25 H    0.922
                             2 N    0.119
     5   6 C    3.905 --     4 N    1.022    14 C    0.964    23 H    0.946
                            13 N    0.897
     6   6 C    3.674 --     7 C    1.223     2 N    1.073    13 N    0.941
                             8 O    0.156     3 C    0.122
     7   6 C    3.958 --     8 O    1.673     6 C    1.223     9 N    0.944
     8   8 O    2.078 --     7 C    1.673     6 C    0.156
     9   7 N    3.582 --    11 C    1.306    10 C    0.966     7 C    0.944
                            12 O    0.202
    10   6 C    3.920 --    20 H    0.970    21 H    0.968    19 H    0.967
                             9 N    0.966
    11   6 C    3.955 --    12 O    1.752     9 N    1.306    13 N    0.789
    12   8 O    2.150 --    11 C    1.752     9 N    0.202    13 N    0.100
    13   7 N    3.713 --     6 C    0.941     5 C    0.897    14 C    0.889
                            11 C    0.789    12 O    0.100
    14   6 C    3.886 --     5 C    0.964    22 H    0.964    24 H    0.958
                            13 N    0.889
    15   1 H    0.988 --     1 C    0.958
    16   1 H    0.990 --     1 C    0.975
    17   1 H    0.981 --     1 C    0.950
    18   1 H    0.987 --     3 C    0.947
    19   1 H    0.985 --    10 C    0.967
    20   1 H    0.991 --    10 C    0.970
    21   1 H    0.990 --    10 C    0.968
    22   1 H    0.986 --    14 C    0.964
    23   1 H    0.984 --     5 C    0.946
    24   1 H    0.982 --    14 C    0.958
    25   1 H    0.950 --     4 N    0.922
 ---------------------------------------------------------------------------

molecular dipole:
                 x           y           z       tot (Debye)
 q only:        1.654      -2.422       0.005
   full:        1.712      -2.852      -0.074       8.457

           -------------------------------------------------
          | TOTAL ENERGY              -42.155621660414 Eh   |
          | GRADIENT NORM               0.008018716574 Eh/α |
          | HOMO-LUMO GAP               2.444361126238 eV   |
           -------------------------------------------------

 * finished run on 2024/06/05 at 19:58:14.313
