   * xtb version 6.6.1 (8d0f1dd) compiled by 'conda@1efc2f54142f' on 2023-08-01
          program call               : xtb struc.xyz --opt loose --input .xc1 --gfn2

   ID    Z sym.   atoms
    1    7 N      1, 17
    2    6 C      2-6, 8, 9, 11-16, 18-23, 25, 26, 28-33
    3    8 O      7, 10, 24, 27
    4    1 H      34-72
constraining bond 1 47 to    4.0600000 Å, actual value:    2.0968291 Å

          :  Hamiltonian                  GFN2-xTB          :
 * total energy  :   -98.7159797 Eh     change       -0.4035485E-08 Eh
 * total energy  :   -98.9171675 Eh     change       -0.2011877E+00 Eh
 * total energy  :   -99.0842313 Eh     change       -0.1670638E+00 Eh
 * total energy  :   -99.1667230 Eh     change       -0.8249169E-01 Eh
 * total energy  :   -99.2163497 Eh     change       -0.4962666E-01 Eh
 * total energy  :   -99.2473848 Eh     change       -0.3103520E-01 Eh
 * total energy  :   -99.2816737 Eh     change       -0.3428889E-01 Eh
 * total energy  :   -99.2972720 Eh     change       -0.1559821E-01 Eh
 * total energy  :   -99.3100303 Eh     change       -0.1275837E-01 Eh
 * total energy  :   -99.3240306 Eh     change       -0.1400022E-01 Eh
 * total energy  :   -99.3872225 Eh     change       -0.1227094E-03 Eh
 * total energy  :   -99.3873324 Eh     change       -0.1098587E-03 Eh
 * total energy  :   -99.3874160 Eh     change       -0.8360061E-04 Eh
 * total energy  :   -99.3875155 Eh     change       -0.9952069E-04 Eh
 * total energy  :   -99.3875928 Eh     change       -0.7731934E-04 Eh
 * total energy  :   -99.3876694 Eh     change       -0.7658604E-04 Eh
 * total energy  :   -99.3877335 Eh     change       -0.6409869E-04 Eh
 * total energy  :   -99.3877833 Eh     change       -0.4982466E-04 Eh
 * total energy  :   -99.3878289 Eh     change       -0.4562037E-04 Eh
   *** GEOMETRY OPTIMIZATION CONVERGED AFTER 44 ITERATIONS ***

 final structure:
================
72
 xtb: 6.6.1 (8d0f1dd)
N           -2.05857725552885        3.33073298010977        2.37576215186296
C           -2.32514398991723        2.43304158067464        1.61428168793002
C           -3.13458794809798        2.07387176769963        0.47631485428762
C           -3.57590624998795        0.62154355979047        0.56211205009042
C           -4.35685563628857        0.06481794707143       -0.44983916986027
C           -4.75305413901193       -1.26181255217116       -0.40105924174544
O           -5.50751320221794       -1.88297379949228       -1.32999625694312
C           -6.01958248900023       -1.13928609903064       -2.41072714793283
C           -4.34994212531430       -2.07291058715649        0.69486101237380
O           -4.76313308897297       -3.35428422350958        0.64731282578273
C           -4.43001117191276       -4.22275310323369        1.70526275456321
C           -3.58565634316421       -1.50479797624660        1.70187855298801
C           -3.20568238153329       -0.17173831127471        1.63489557435008
C           -2.26323638574330        2.32207183172546       -0.79666778961720
C           -1.46090756642711        1.12955352357468       -1.31956978078092
C           -0.40346591306799        0.58564291141071       -0.35325886328907
N            0.57286655615830       -0.21101629124210       -1.06349982394634
C            1.89851832062497       -0.28272811473088       -0.49209288542963
C            2.96174106252333       -0.36669532190461       -1.60441510783756
C            4.34110647804417       -0.14629017070968       -1.05898937836388
C            4.97007790469905        1.08301099112609       -1.19380817592190
C            6.24710196000115        1.28970159607351       -0.69739603786092
C            6.92348630955597        0.26878281721215       -0.04415361432007
O            8.16582910453268        0.35272698443113        0.46822066360930
C            8.90358993417856        1.53926830787281        0.28802799716717
C            6.28329091423715       -0.99265805529838        0.11380471630326
O            7.00987193316471       -1.92491210465699        0.76054878239361
C            6.47550389114313       -3.21507401695903        0.93851128722783
C            5.00692451348281       -1.17523816372749       -0.39642198047963
C            0.04901749188338       -1.46883916846173       -1.53945926651081
C           -4.41449742006388        2.99648521742247        0.45145179243119
C           -5.30352388942592        2.72620106794310        1.66086459602338
C           -4.08380196256156        4.48060171731367        0.36254377086931
H           -4.65655206228719        0.67656777167694       -1.28507444594552
H           -6.64871432923535       -0.31277371107330       -2.06590389944597
H           -6.62643772709123       -1.83717669937571       -2.98411255153003
H           -5.21899905658273       -0.75067102249653       -3.04831355556281
H           -4.84807945538016       -3.87691391308103        2.65527613185892
H           -4.87206488493156       -5.18261499841072        1.44525492619674
H           -3.34593317975149       -4.33866012583361        1.80325204254718
H           -3.28016405792158       -2.09269319529087        2.55199700641411
H           -2.61463809181124        0.25044343930881        2.43614562718133
H           -2.93613277087936        2.63669790927036       -1.59524339246957
H           -1.58293968703077        3.15155595932924       -0.59555293856306
H           -2.14129964707948        0.32710127024660       -1.60172297760385
H           -0.94086750138748        1.46181500839992       -2.22055171918321
H           -0.88912049479026       -0.01898366414746        0.43011080416927
H            0.11348097467331        1.42585718907938        0.11691435950469
H            2.00661618208826       -1.14141619429293        0.18714783806479
H            2.08136782200111        0.62576657619757        0.08514982700093
H            2.72963003364023        0.39699352467583       -2.34660220472143
H            2.91145174032489       -1.34166692926922       -2.09054586517569
H            4.46573832957760        1.88916205405027       -1.70433092788945
H            6.71213771059287        2.25296005661471       -0.82911354164057
H            8.43692690902643        2.38405610770215        0.80445969006005
H            9.02129016071683        1.77952712006429       -0.77291315835195
H            9.88140540291580        1.34566010856332        0.72528565970341
H            7.24506228170261       -3.78061508482265        1.46037255489261
H            5.56676828822077       -3.19189398407966        1.54853880718005
H            6.26028099553668       -3.69585448681049       -0.02072436815834
H            4.51803906355952       -2.13159790003822       -0.29684783280803
H           -0.66611457000855       -1.29023193239915       -2.34037677472188
H           -0.45844134423756       -2.03072304396687       -0.74127100272269
H            0.85488654714793       -2.07993013270317       -1.93495532917724
H           -4.96173399137409        2.70896339765661       -0.45118524205532
H           -4.79588836310672        3.00057577539406        2.58222760315848
H           -5.58515656648457        1.67765861419228        1.71759218998653
H           -6.21097245810193        3.31970799899002        1.58599873341161
H           -3.56699942741231        4.81743267958340        1.25722793034532
H           -3.47010724545873        4.70999262765342       -0.50368675687784
H           -5.00856064222112        5.04578635967202        0.27706759093832
H           -1.38649650614690        3.37022825062483        3.12497345517658

          :  Hamiltonian                  GFN2-xTB          :
         :: total energy             -99.387828944226 Eh    ::
         :: gradient norm              0.001699501752 Eh/a0 ::
         :: HOMO-LUMO gap              1.306356787652 eV    ::
         :: SCC energy              -100.769072316797 Eh    ::
         :: -> dispersion             -0.072952334518 Eh    ::
         :: repulsion energy           1.379921919350 Eh    ::

    * Orbital Energies and Occupations

         #    Occupation            Energy/Eh            Energy/eV
      -------------------------------------------------------------
         1        2.0000           -0.8100218             -22.0418
       ...           ...                  ...                  ...
        78        1.9985           -0.5307445             -14.4423
        79        1.9984           -0.5300733             -14.4240
        80        1.9983           -0.5292065             -14.4004
        81        1.9982           -0.5276393             -14.3578
        82        1.9976           -0.5232727             -14.2390
        83        1.9973           -0.5214871             -14.1904
        84        1.9972           -0.5207974             -14.1716
        85        1.9953           -0.5126150             -13.9490
        86        1.9834           -0.4926035             -13.4044
        87        1.9678           -0.4819780             -13.1153
        88        1.8891           -0.4617434             -12.5647
        89        1.8418           -0.4557114             -12.4005
        90        1.7614           -0.4485046             -12.2044 (HOMO)
        91        0.5251           -0.4004969             -10.8981 (LUMO)
        92        0.0482           -0.3582560              -9.7486
        93        0.0040           -0.3186717              -8.6715
        94        0.0034           -0.3157647              -8.5924
        95        0.0018           -0.3060327              -8.3276
        96        0.0015           -0.3032331              -8.2514
        97        0.0000           -0.1929937              -5.2516
        98        0.0000           -0.1809412              -4.9237
        99                         -0.1012611              -2.7555
       100                         -0.0863895              -2.3508
       101                         -0.0759889              -2.0678
       ...                                ...                  ...
       171                          0.6858516              18.6630
      -------------------------------------------------------------
                  HL-Gap            0.0480077 Eh            1.3064 eV

     #   Z          covCN         q      C6AA      α(0)
     1   7 N        1.772    -0.158    25.182     7.431
     2   6 C        1.921     0.093    28.787     8.665
     3   6 C        3.903     0.028    20.051     6.365
     4   6 C        2.977     0.006    27.887     8.662
     5   6 C        2.919    -0.077    29.931     8.972
     6   6 C        2.863     0.131    25.129     8.217
     7   8 O        1.706    -0.229    17.790     5.695
     8   6 C        3.645     0.027    20.449     6.500
     9   6 C        2.864     0.131    25.124     8.216
    10   8 O        1.706    -0.227    17.759     5.690
    11   6 C        3.645     0.027    20.458     6.501
    12   6 C        2.914    -0.071    29.764     8.946
    13   6 C        2.921    -0.048    29.191     8.860
    14   6 C        3.812    -0.059    21.629     6.620
    15   6 C        3.801    -0.071    21.862     6.657
    16   6 C        3.750     0.000    20.637     6.479
    17   7 N        2.728    -0.122    23.658     7.224
    18   6 C        3.749     0.004    20.576     6.469
    19   6 C        3.809    -0.072    21.877     6.658
    20   6 C        2.967     0.009    27.824     8.652
    21   6 C        2.922    -0.045    29.129     8.851
    22   6 C        2.913    -0.066    29.651     8.929
    23   6 C        2.865     0.133    25.082     8.209
    24   8 O        1.706    -0.220    17.655     5.673
    25   6 C        3.645     0.025    20.488     6.505
    26   6 C        2.862     0.134    25.069     8.207
    27   8 O        1.706    -0.222    17.690     5.679
    28   6 C        3.645     0.027    20.460     6.501
    29   6 C        2.919    -0.077    29.916     8.969
    30   6 C        3.705    -0.047    21.575     6.640
    31   6 C        3.854    -0.008    20.676     6.467
    32   6 C        3.755    -0.115    22.756     6.802
    33   6 C        3.755    -0.121    22.879     6.820
    34   1 H        0.926     0.053     2.287     2.365
    35   1 H        0.924     0.052     2.292     2.368
    36   1 H        0.925     0.082     1.959     2.189
    37   1 H        0.924     0.049     2.337     2.391
    38   1 H        0.924     0.055     2.264     2.353
    39   1 H        0.925     0.082     1.963     2.191
    40   1 H        0.924     0.050     2.324     2.384
    41   1 H        0.926     0.055     2.260     2.351
    42   1 H        0.925     0.038     2.479     2.462
    43   1 H        0.924     0.065     2.145     2.290
    44   1 H        0.924     0.052     2.292     2.368
    45   1 H        0.925     0.051     2.305     2.374
    46   1 H        0.924     0.063     2.162     2.299
    47   1 H        0.923     0.028     2.611     2.527
    48   1 H        0.924     0.041     2.430     2.438
    49   1 H        0.923     0.034     2.534     2.490
    50   1 H        0.924     0.045     2.386     2.416
    51   1 H        0.925     0.062     2.182     2.310
    52   1 H        0.924     0.054     2.276     2.359
    53   1 H        0.926     0.051     2.303     2.373
    54   1 H        0.926     0.058     2.217     2.328
    55   1 H        0.924     0.055     2.257     2.349
    56   1 H        0.924     0.057     2.239     2.340
    57   1 H        0.925     0.082     1.957     2.188
    58   1 H        0.925     0.082     1.963     2.191
    59   1 H        0.924     0.051     2.311     2.377
    60   1 H        0.924     0.054     2.266     2.354
    61   1 H        0.926     0.051     2.308     2.376
    62   1 H        0.925     0.056     2.247     2.344
    63   1 H        0.923     0.033     2.545     2.495
    64   1 H        0.925     0.060     2.200     2.320
    65   1 H        0.924     0.055     2.254     2.348
    66   1 H        0.925     0.046     2.371     2.408
    67   1 H        0.925     0.043     2.409     2.427
    68   1 H        0.925     0.059     2.210     2.325
    69   1 H        0.925     0.055     2.254     2.348
    70   1 H        0.925     0.045     2.384     2.415
    71   1 H        0.925     0.061     2.191     2.315
    72   1 H        0.860     0.219     1.013     1.577

Wiberg/Mayer (AO) data.
largest (>0.10) Wiberg bond orders for each atom

     #   Z sym  total        # sym  WBO       # sym  WBO       # sym  WBO
 ---------------------------------------------------------------------------
     1   7 N    3.215 --     2 C    2.177    72 H    0.901
     2   6 C    3.369 --     1 N    2.177     3 C    1.072
     3   6 C    3.960 --     2 C    1.072     4 C    0.963    14 C    0.923
                            31 C    0.881
     4   6 C    3.941 --    13 C    1.416     5 C    1.371     3 C    0.963
     5   6 C    3.964 --     6 C    1.399     4 C    1.371    34 H    0.958
     6   6 C    3.908 --     5 C    1.399     9 C    1.223     7 O    1.101
     7   8 O    2.258 --     6 C    1.101     8 C    0.978
     8   6 C    3.932 --     7 O    0.978    36 H    0.977    35 H    0.974
                            37 H    0.973
     9   6 C    3.906 --    12 C    1.391     6 C    1.223    10 O    1.105
    10   8 O    2.258 --     9 C    1.105    11 C    0.977
    11   6 C    3.931 --    10 O    0.977    39 H    0.977    40 H    0.974
                            38 H    0.973
    12   6 C    3.964 --    13 C    1.406     9 C    1.391    41 H    0.963
    13   6 C    3.953 --     4 C    1.416    12 C    1.406    42 H    0.957
    14   6 C    3.980 --    15 C    1.009    44 H    0.973    43 H    0.965
                             3 C    0.923
    15   6 C    3.985 --    14 C    1.009    16 C    0.996    45 H    0.969
                            46 H    0.969
    16   6 C    3.975 --    17 N    1.006    15 C    0.996    48 H    0.970
                            47 H    0.953
    17   7 N    3.100 --    30 C    1.017    18 C    1.007    16 C    1.006
    18   6 C    3.967 --    17 N    1.007    19 C    0.973    50 H    0.971
                            49 H    0.959
    19   6 C    3.980 --    20 C    1.015    18 C    0.973    51 H    0.972
                            52 H    0.964
    20   6 C    3.931 --    21 C    1.397    29 C    1.381    19 C    1.015
    21   6 C    3.932 --    22 C    1.421    20 C    1.397    53 H    0.967
    22   6 C    3.952 --    21 C    1.421    23 C    1.378    54 H    0.963
    23   6 C    3.877 --    22 C    1.378    26 C    1.214    24 O    1.110
    24   8 O    2.244 --    23 C    1.110    25 C    0.976
    25   6 C    3.927 --    57 H    0.977    24 O    0.976    56 H    0.972
                            55 H    0.972
    26   6 C    3.884 --    29 C    1.392    23 C    1.214    27 O    1.106
    27   8 O    2.247 --    26 C    1.106    28 C    0.978
    28   6 C    3.930 --    27 O    0.978    58 H    0.977    59 H    0.973
                            60 H    0.972
    29   6 C    3.953 --    26 C    1.392    20 C    1.381    61 H    0.962
    30   6 C    3.971 --    17 N    1.017    64 H    0.978    62 H    0.975
                            63 H    0.966
    31   6 C    3.937 --    33 C    1.015    32 C    1.013    65 H    0.951
                             3 C    0.881
    32   6 C    3.990 --    31 C    1.013    66 H    0.984    67 H    0.982
                            68 H    0.980
    33   6 C    3.988 --    31 C    1.015    70 H    0.983    69 H    0.978
                            71 H    0.978
    34   1 H    0.996 --     5 C    0.958
    35   1 H    0.994 --     8 C    0.974
    36   1 H    0.993 --     8 C    0.977
    37   1 H    0.994 --     8 C    0.973
    38   1 H    0.993 --    11 C    0.973
    39   1 H    0.993 --    11 C    0.977
    40   1 H    0.993 --    11 C    0.974
    41   1 H    0.995 --    12 C    0.963
    42   1 H    0.998 --    13 C    0.957
    43   1 H    0.994 --    14 C    0.965
    44   1 H    0.996 --    14 C    0.973
    45   1 H    0.997 --    15 C    0.969
    46   1 H    0.994 --    15 C    0.969
    47   1 H    0.982 --    16 C    0.953
    48   1 H    0.998 --    16 C    0.970
    49   1 H    0.981 --    18 C    0.959
    50   1 H    0.998 --    18 C    0.971
    51   1 H    0.994 --    19 C    0.972
    52   1 H    0.994 --    19 C    0.964
    53   1 H    0.996 --    21 C    0.967
    54   1 H    0.995 --    22 C    0.963
    55   1 H    0.990 --    25 C    0.972
    56   1 H    0.990 --    25 C    0.972
    57   1 H    0.992 --    25 C    0.977
    58   1 H    0.993 --    28 C    0.977
    59   1 H    0.992 --    28 C    0.973
    60   1 H    0.991 --    28 C    0.972
    61   1 H    0.996 --    29 C    0.962
    62   1 H    0.990 --    30 C    0.975
    63   1 H    0.981 --    30 C    0.966
    64   1 H    0.996 --    30 C    0.978
    65   1 H    0.989 --    31 C    0.951
    66   1 H    0.997 --    32 C    0.984
    67   1 H    0.998 --    32 C    0.982
    68   1 H    0.994 --    32 C    0.980
    69   1 H    0.996 --    33 C    0.978
    70   1 H    0.997 --    33 C    0.983
    71   1 H    0.994 --    33 C    0.978
    72   1 H    0.926 --     1 N    0.901
 ---------------------------------------------------------------------------

molecular dipole:
                 x           y           z       tot (Debye)
 q only:       -0.310       1.119       0.355
   full:       -0.272       1.036       0.656       3.193

           -------------------------------------------------
          | TOTAL ENERGY              -99.387828944226 Eh   |
          | GRADIENT NORM               0.001699501752 Eh/α |
          | HOMO-LUMO GAP               1.306356787652 eV   |
           -------------------------------------------------

 * finished run on 2024/04/06 at 11:11:37.958
