   * xtb version 6.6.1 (8d0f1dd) compiled by 'conda@1efc2f54142f' on 2023-08-01
          program call               : xtb struc.xyz --opt loose --input .xc1 --gfn2

   ID    Z sym.   atoms
    1    7 N      1, 17
    2    6 C      2-6, 8, 9, 11-16, 18-23, 25, 26, 28-33
    3    8 O      7, 10, 24, 27
    4    1 H      34-72
constraining bond 6 38 to    4.7133300 Å, actual value:    3.9891516 Å

          :  Hamiltonian                  GFN2-xTB          :
 * total energy  :   -99.4977703 Eh     change       -0.4035485E-08 Eh
 * total energy  :   -99.6824893 Eh     change       -0.1847190E+00 Eh
 * total energy  :   -99.9269103 Eh     change       -0.2444210E+00 Eh
 * total energy  :  -100.2450942 Eh     change       -0.3181838E+00 Eh
 * total energy  :  -100.7198661 Eh     change       -0.4747720E+00 Eh
 * total energy  :  -101.3379835 Eh     change       -0.6181173E+00 Eh
 * total energy  :  -101.1439181 Eh     change        0.1940654E+00 Eh
 * total energy  :  -101.6745845 Eh     change       -0.5306664E+00 Eh
 * total energy  :  -101.7646870 Eh     change       -0.9010249E-01 Eh
 * total energy  :  -101.8551667 Eh     change       -0.9047973E-01 Eh
 * total energy  :  -101.9750930 Eh     change       -0.2069102E-03 Eh
 * total energy  :  -101.9753222 Eh     change       -0.2291451E-03 Eh
 * total energy  :  -101.9754896 Eh     change       -0.1674758E-03 Eh
 * total energy  :  -101.9757064 Eh     change       -0.2168074E-03 Eh
 * total energy  :  -101.9758375 Eh     change       -0.1310865E-03 Eh
 * total energy  :  -101.9759517 Eh     change       -0.1141729E-03 Eh
 * total energy  :  -101.9760266 Eh     change       -0.7490793E-04 Eh
 * total energy  :  -101.9760603 Eh     change       -0.3371554E-04 Eh
 * total energy  :  -101.9761019 Eh     change       -0.4153584E-04 Eh
   *** GEOMETRY OPTIMIZATION CONVERGED AFTER 70 ITERATIONS ***

 final structure:
================
72
 xtb: 6.6.1 (8d0f1dd)
N           -1.67155541749639        2.98925845674466        2.35222591583639
C           -1.75297639027264        2.20819744199019        1.38097071373834
C           -2.96225074641970        2.06634212259364        0.49901015925716
C           -3.44439586624581        0.62252826741668        0.52505375069315
C           -4.32371246295338        0.17851390610582       -0.40517402528486
C           -4.69175363102807       -1.27076376099532       -0.57542255796893
O           -3.71731638483543       -1.76782569884960       -1.59239724167227
C           -4.33590554413529       -2.31322621337412       -2.73315241139992
C           -4.39161593869312       -2.03757608262903        0.69936982275334
O           -5.00742281356187       -3.21551725025892        0.73492894327004
C           -4.93277737697976       -4.12486714289060        1.65994012821582
C           -3.51076638012266       -1.53705104135143        1.65395702366484
C           -3.01011180181444       -0.25733751579667        1.55430704031750
C           -2.48067928538753        2.43907688020727       -0.93029077914411
C           -1.66010662491556        1.35098829039123       -1.64874128941405
C           -0.32326067946383        1.14020367936588       -1.05679043430667
N            0.22337956519980       -0.03460824708921       -0.78887729346386
C            1.59394033491160       -0.10957891566619       -0.34031727155742
C            2.55605960557276       -0.48268798895950       -1.48581892425563
C            3.97639793972304       -0.25726262800026       -1.04810164951400
C            4.57789728942246        0.97625132399849       -1.23809596013589
C            5.87415248628877        1.20934971790468       -0.80615587912541
C            6.59493903957109        0.21067261135502       -0.16780899892833
O            7.85478526750258        0.32453897105517        0.29307940290526
C            8.54194588178993        1.54213941258576        0.11795758012448
C            5.98546431357908       -1.05851666962607        0.03418007282146
O            6.75770808529835       -1.97027001598041        0.65851059697793
C            6.25480757578774       -3.26646369545988        0.87714502576941
C            4.68755898497591       -1.26760276092920       -0.40537061604583
C           -0.46761142294216       -1.27943946372518       -1.02759779823300
C           -4.14846781811780        2.98243596010713        0.91462214549223
C           -4.64985681705048        2.63888098149264        2.31538130106414
C           -3.81864063005359        4.47047345728115        0.83551025586580
H           -4.70456526360768        0.83022833706944       -1.17463606969454
H           -4.96946832384887       -3.16967105570233       -2.47995938925169
H           -3.52581963465988       -2.64514378488619       -3.38090148400750
H           -4.93505771231368       -1.56509332779931       -3.26376021680561
H           -5.38350434059035       -1.38745392265832       -0.82314977636336
H           -5.51905075680236       -5.00618630634233        1.48373461608576
H           -4.33884313992627       -4.01516964210371        2.54869715384129
H           -3.22763600947316       -2.14752678989678        2.49776985673837
H           -2.33458908273859        0.10221578184897        2.31267513155141
H           -3.35469606430015        2.65479365691438       -1.54308212807268
H           -1.88745245288598        3.35209976903852       -0.86892198560734
H           -2.22932363157270        0.42380164690127       -1.69421013553068
H           -1.51263241005399        1.70408878031115       -2.67785415010261
H           -0.91733277505703        1.57255423324290        1.03139192372275
H            0.30304242362729        2.00957142862011       -0.91311280313792
H            1.67054210144388       -0.85026901045733        0.45980159070329
H            1.89353129749365        0.86058298306596        0.06296710174222
H            2.33345721881889        0.15067601196053       -2.34649726662300
H            2.40472933389089       -1.52322100333171       -1.77391343094116
H            4.04101962298012        1.76752104044596       -1.73922135431444
H            6.31725100596281        2.17670106051449       -0.97641935022735
H            8.03763868066726        2.36482786423113        0.63396540392834
H            8.65454038200649        1.78950731782527       -0.94182861784717
H            9.52480699447890        1.38862547348871        0.55901154727894
H            7.05963500340692       -3.81316295069901        1.36483267622080
H            5.37877111072817       -3.25170277845108        1.53370782128429
H            5.99940512895340       -3.76233436314854       -0.06454173291946
H            4.21826915671879       -2.22829866733651       -0.26230825841975
H           -0.60976632736396       -1.45006574980932       -2.09647366482943
H           -1.45090058269336       -1.28016049086019       -0.55463993750112
H            0.11741153995689       -2.09912720653133       -0.61894842467439
H           -4.95877938963435        2.77228442281960        0.20673793066371
H           -3.89152852704234        2.88472566392717        3.05279230674016
H           -4.89463521109717        1.58183825357988        2.39668866809145
H           -5.54547980360639        3.21474994249104        2.53422784628443
H           -2.97339915903715        4.70232795834242        1.47622290068770
H           -3.59567726227235        4.78306770556612       -0.18133482274328
H           -4.67515947663934        5.04405228957716        1.18081984784629
H           -0.79009040406887        3.02862856172372        2.85489877047778

          :  Hamiltonian                  GFN2-xTB          :
         :: total energy            -101.976101862155 Eh    ::
         :: gradient norm              0.003905167024 Eh/a0 ::
         :: HOMO-LUMO gap              1.317903910457 eV    ::
         :: SCC energy              -100.715505421354 Eh    ::
         :: -> dispersion             -0.076364452906 Eh    ::
         :: repulsion energy           1.551179119065 Eh    ::

    * Orbital Energies and Occupations

         #    Occupation            Energy/Eh            Energy/eV
      -------------------------------------------------------------
         1        2.0000           -0.8517869             -23.1783
       ...           ...                  ...                  ...
        78        1.9984           -0.5265276             -14.3275
        79        1.9983           -0.5255020             -14.2996
        80        1.9979           -0.5225593             -14.2196
        81        1.9972           -0.5180762             -14.0976
        82        1.9971           -0.5172759             -14.0758
        83        1.9952           -0.5095582             -13.8658
        84        1.9950           -0.5087683             -13.8443
        85        1.9892           -0.4966304             -13.5140
        86        1.9822           -0.4886293             -13.2963
        87        1.9795           -0.4863710             -13.2348
        88        1.9351           -0.4677411             -12.7279
        89        1.8506           -0.4538225             -12.3491
        90        1.6548           -0.4387905             -11.9401 (HOMO)
        91        0.3674           -0.3903584             -10.6222 (LUMO)
        92        0.2490           -0.3830870             -10.4243
        93        0.0136           -0.3350620              -9.1175
        94        0.0029           -0.3102298              -8.4418
        95        0.0025           -0.3079734              -8.3804
        96        0.0021           -0.3051333              -8.3031
        97        0.0000           -0.2422575              -6.5922
        98        0.0000           -0.1853488              -5.0436
        99                         -0.1306293              -3.5546
       100                         -0.0895562              -2.4369
       101                         -0.0643184              -1.7502
       ...                                ...                  ...
       171                          1.4251364              38.7799
      -------------------------------------------------------------
                  HL-Gap            0.0484321 Eh            1.3179 eV

     #   Z          covCN         q      C6AA      α(0)
     1   7 N        1.774    -0.272    27.872     7.818
     2   6 C        2.827     0.103    25.717     8.310
     3   6 C        3.909     0.005    20.441     6.426
     4   6 C        2.962     0.010    27.787     8.646
     5   6 C        2.911    -0.067    29.680     8.933
     6   6 C        3.737     0.079    19.344     6.276
     7   8 O        1.688    -0.356    20.001     6.038
     8   6 C        3.635     0.041    20.264     6.478
     9   6 C        2.858     0.089    26.017     8.360
    10   8 O        1.710    -0.094    15.749     5.358
    11   6 C        2.735     0.014    27.683     8.614
    12   6 C        2.899    -0.058    29.435     8.896
    13   6 C        2.919    -0.052    29.301     8.877
    14   6 C        3.813    -0.065    21.734     6.636
    15   6 C        3.802    -0.076    21.946     6.670
    16   6 C        2.846     0.012    27.735     8.631
    17   7 N        2.729     0.020    20.909     6.791
    18   6 C        3.758    -0.017    20.932     6.523
    19   6 C        3.808    -0.070    21.841     6.653
    20   6 C        2.969    -0.001    28.041     8.686
    21   6 C        2.922    -0.050    29.232     8.866
    22   6 C        2.914    -0.068    29.692     8.935
    23   6 C        2.865     0.133    25.090     8.211
    24   8 O        1.706    -0.223    17.701     5.680
    25   6 C        3.645     0.025    20.481     6.504
    26   6 C        2.863     0.133    25.094     8.211
    27   8 O        1.706    -0.226    17.741     5.687
    28   6 C        3.645     0.027    20.451     6.500
    29   6 C        2.919    -0.080    29.987     8.980
    30   6 C        3.700    -0.077    22.133     6.728
    31   6 C        3.853    -0.009    20.695     6.470
    32   6 C        3.756    -0.118    22.810     6.810
    33   6 C        3.755    -0.120    22.855     6.817
    34   1 H        0.926     0.048     2.339     2.391
    35   1 H        0.924     0.040     2.451     2.448
    36   1 H        0.925     0.060     2.203     2.321
    37   1 H        0.924     0.037     2.486     2.466
    38   1 H        0.930     0.102     1.765     2.078
    39   1 H        0.926     0.087     1.911     2.162
    40   1 H        0.926     0.060     2.196     2.318
    41   1 H        0.926     0.049     2.334     2.389
    42   1 H        0.926     0.041     2.440     2.443
    43   1 H        0.925     0.063     2.160     2.298
    44   1 H        0.924     0.054     2.269     2.355
    45   1 H        0.925     0.085     1.932     2.174
    46   1 H        0.923     0.082     1.958     2.188
    47   1 H        0.922     0.004     2.996     2.707
    48   1 H        0.926     0.070     2.089     2.260
    49   1 H        0.924     0.068     2.105     2.269
    50   1 H        0.924     0.067     2.124     2.279
    51   1 H        0.924     0.055     2.257     2.350
    52   1 H        0.924     0.056     2.241     2.341
    53   1 H        0.926     0.044     2.396     2.421
    54   1 H        0.926     0.058     2.226     2.333
    55   1 H        0.924     0.053     2.277     2.360
    56   1 H        0.924     0.055     2.253     2.347
    57   1 H        0.925     0.082     1.960     2.189
    58   1 H        0.925     0.081     1.965     2.192
    59   1 H        0.924     0.048     2.339     2.392
    60   1 H        0.924     0.052     2.292     2.368
    61   1 H        0.926     0.048     2.351     2.398
    62   1 H        0.924     0.082     1.954     2.186
    63   1 H        0.924     0.097     1.811     2.105
    64   1 H        0.925     0.078     1.996     2.209
    65   1 H        0.924     0.038     2.473     2.459
    66   1 H        0.925     0.067     2.117     2.275
    67   1 H        0.925     0.033     2.539     2.492
    68   1 H        0.925     0.051     2.310     2.377
    69   1 H        0.925     0.064     2.157     2.297
    70   1 H        0.925     0.036     2.505     2.475
    71   1 H        0.925     0.055     2.264     2.353
    72   1 H        0.860     0.155     1.368     1.832

Wiberg/Mayer (AO) data.
largest (>0.10) Wiberg bond orders for each atom

     #   Z sym  total        # sym  WBO       # sym  WBO       # sym  WBO
 ---------------------------------------------------------------------------
     1   7 N    3.033 --     2 C    1.953    72 H    0.942
     2   6 C    3.933 --     1 N    1.953     3 C    0.995    47 H    0.908
     3   6 C    3.975 --     2 C    0.995     4 C    0.967    14 C    0.954
                            31 C    0.946
     4   6 C    3.960 --     5 C    1.640    13 C    1.223     3 C    0.967
     5   6 C    3.809 --     4 C    1.640     6 C    1.012    34 H    0.964
     6   6 C    3.941 --     5 C    1.012     9 C    0.987    38 H    0.969
                             7 O    0.883
     7   8 O    2.002 --     8 C    0.999     6 C    0.883
     8   6 C    3.944 --     7 O    0.999    35 H    0.978    37 H    0.977
                            36 H    0.974
     9   6 C    3.763 --    12 C    1.354    10 O    1.134     6 C    0.987
                            11 C    0.185
    10   8 O    2.517 --    11 C    1.278     9 C    1.134
    11   6 C    3.543 --    10 O    1.278    40 H    0.968    39 H    0.968
                             9 C    0.185
    12   6 C    3.927 --    13 C    1.469     9 C    1.354    41 H    0.959
    13   6 C    3.811 --    12 C    1.469     4 C    1.223    42 H    0.963
    14   6 C    3.973 --    15 C    0.979    44 H    0.973    43 H    0.967
                             3 C    0.954
    15   6 C    3.982 --    16 C    1.064    14 C    0.979    45 H    0.955
                            46 H    0.925
    16   6 C    3.614 --    17 N    1.426    15 C    1.064    48 H    0.956
    17   7 N    3.500 --    16 C    1.426    30 C    0.996    18 C    0.989
    18   6 C    3.956 --    17 N    0.989    50 H    0.968    19 C    0.966
                            49 H    0.964
    19   6 C    3.977 --    20 C    1.008    52 H    0.972    51 H    0.972
                            18 C    0.966
    20   6 C    3.946 --    21 C    1.410    29 C    1.380    19 C    1.008
    21   6 C    3.951 --    22 C    1.416    20 C    1.410    53 H    0.968
    22   6 C    3.961 --    21 C    1.416    23 C    1.384    54 H    0.963
    23   6 C    3.897 --    22 C    1.384    26 C    1.221    24 O    1.109
    24   8 O    2.255 --    23 C    1.109    25 C    0.976
    25   6 C    3.929 --    57 H    0.977    24 O    0.976    55 H    0.973
                            56 H    0.973
    26   6 C    3.900 --    29 C    1.395    23 C    1.221    27 O    1.103
    27   8 O    2.254 --    26 C    1.103    28 C    0.979
    28   6 C    3.932 --    27 O    0.979    58 H    0.977    59 H    0.973
                            60 H    0.973
    29   6 C    3.960 --    26 C    1.395    20 C    1.380    61 H    0.963
    30   6 C    3.951 --    17 N    0.996    64 H    0.978    62 H    0.964
                            63 H    0.958
    31   6 C    3.974 --    33 C    1.008    32 C    1.008    65 H    0.961
                             3 C    0.946
    32   6 C    3.980 --    31 C    1.008    68 H    0.982    67 H    0.981
                            66 H    0.975
    33   6 C    3.981 --    31 C    1.008    70 H    0.983    71 H    0.980
                            69 H    0.975
    34   1 H    0.996 --     5 C    0.964
    35   1 H    0.996 --     8 C    0.978
    36   1 H    0.992 --     8 C    0.974
    37   1 H    0.996 --     8 C    0.977
    38   1 H    0.985 --     6 C    0.969
    39   1 H    0.992 --    11 C    0.968
    40   1 H    0.996 --    11 C    0.968
    41   1 H    0.996 --    12 C    0.959
    42   1 H    0.998 --    13 C    0.963
    43   1 H    0.994 --    14 C    0.967
    44   1 H    0.996 --    14 C    0.973
    45   1 H    0.992 --    15 C    0.955
    46   1 H    0.971 --    15 C    0.925
    47   1 H    0.986 --     2 C    0.908
    48   1 H    0.995 --    16 C    0.956
    49   1 H    0.991 --    18 C    0.964
    50   1 H    0.995 --    18 C    0.968
    51   1 H    0.996 --    19 C    0.972
    52   1 H    0.996 --    19 C    0.972
    53   1 H    0.997 --    21 C    0.968
    54   1 H    0.995 --    22 C    0.963
    55   1 H    0.992 --    25 C    0.973
    56   1 H    0.992 --    25 C    0.973
    57   1 H    0.993 --    25 C    0.977
    58   1 H    0.993 --    28 C    0.977
    59   1 H    0.993 --    28 C    0.973
    60   1 H    0.993 --    28 C    0.973
    61   1 H    0.997 --    29 C    0.963
    62   1 H    0.984 --    30 C    0.964
    63   1 H    0.984 --    30 C    0.958
    64   1 H    0.994 --    30 C    0.978
    65   1 H    0.992 --    31 C    0.961
    66   1 H    0.992 --    32 C    0.975
    67   1 H    0.997 --    32 C    0.981
    68   1 H    0.994 --    32 C    0.982
    69   1 H    0.992 --    33 C    0.975
    70   1 H    0.997 --    33 C    0.983
    71   1 H    0.994 --    33 C    0.980
    72   1 H    0.971 --     1 N    0.942
 ---------------------------------------------------------------------------

molecular dipole:
                 x           y           z       tot (Debye)
 q only:       -0.109      -0.607      -0.616
   full:       -0.031      -0.935      -0.837       3.191

           -------------------------------------------------
          | TOTAL ENERGY             -101.976101862155 Eh   |
          | GRADIENT NORM               0.003905167024 Eh/α |
          | HOMO-LUMO GAP               1.317903910457 eV   |
           -------------------------------------------------

 * finished run on 2024/04/06 at 11:16:07.310
