   * xtb version 6.6.1 (8d0f1dd) compiled by 'conda@1efc2f54142f' on 2023-08-01
          program call               : xtb xtbopt.xyz --opt crude --input .xc2 --gfn2

   ID    Z sym.   atoms
    1    7 N      1, 17
    2    6 C      2-6, 8, 9, 11-16, 18-23, 25, 26, 28-33
    3    8 O      7, 10, 24, 27
    4    1 H      34-72
########################################################################
[WARNING] Please study the warnings concerning your input carefully
-1- readin_getIntValue: could not parse ''
########################################################################

          :  Hamiltonian                  GFN2-xTB          :
 * total energy  :   -99.1628624 Eh     change       -0.5258016E-11 Eh
 * total energy  :   -99.3228969 Eh     change       -0.1600345E+00 Eh
 * total energy  :   -99.3250704 Eh     change       -0.2173417E-02 Eh
 * total energy  :   -99.3259537 Eh     change       -0.8832984E-03 Eh
 * total energy  :   -99.3261844 Eh     change       -0.2307171E-03 Eh
   *** GEOMETRY OPTIMIZATION CONVERGED AFTER 5 ITERATIONS ***

 final structure:
================
72
 xtb: 6.6.1 (8d0f1dd)
N           -1.67303662142469        2.99936700277804        2.36110998647680
C           -1.75016402641038        2.21911066480394        1.38803967226135
C           -2.95831682316788        2.07216050067899        0.50491329263001
C           -3.43422676947408        0.62587007610472        0.52819598186190
C           -4.30059116337083        0.17413450350745       -0.41412315475640
C           -4.62374913751026       -1.27581403994339       -0.57361182547010
O           -3.70833813204847       -1.77915035454658       -1.59477539188734
C           -4.32629148348398       -2.33564846765891       -2.72808924782385
C           -4.36940076690276       -2.04260281376963        0.69654075161384
O           -4.98608883627628       -3.21840264326685        0.72873117808888
C           -4.92340588354200       -4.12377833865200        1.66035590508377
C           -3.50784434922903       -1.53130227572680        1.66462819430616
C           -3.00872045029476       -0.25078615112077        1.56383009811485
C           -2.47643498086448        2.44689357066666       -0.92408813035620
C           -1.65578253754144        1.36080380290483       -1.64616410763546
C           -0.32053508010456        1.14569063370176       -1.05359655203744
N            0.22514241211602       -0.03022441088396       -0.78901525251877
C            1.59602267917301       -0.10666900341113       -0.34214019603888
C            2.55694930631957       -0.48051106428441       -1.48836403563426
C            3.97750831133561       -0.25677280862242       -1.05057178325828
C            4.58004677832864        0.97641382382308       -1.23923487520319
C            5.87645085941922        1.20792885712307       -0.80690399719917
C            6.59632700233946        0.20805879846295       -0.16941924352791
O            7.85622344047524        0.32035691849212        0.29155700757332
C            8.54456670144886        1.53748161068573        0.11745501336025
C            5.98567609276849       -1.06071804185896        0.03136662666758
O            6.75686137744035       -1.97372525729866        0.65524117777383
C            6.25235126059809       -3.26940380694900        0.87338220993917
C            4.68773201126431       -1.26833419588618       -0.40874713391306
C           -0.46344083005146       -1.27491054928795       -1.03383482908743
C           -4.14801126086697        2.98491963348952        0.91823473359157
C           -4.65246128453544        2.64004616577396        2.31746741126798
C           -3.82134865601457        4.47382991221503        0.84031183949372
H           -4.68294995241100        0.82186402277992       -1.18566629821267
H           -4.95622347029835       -3.19048909845797       -2.46303469611427
H           -3.52245333096310       -2.67220017306701       -3.38065534880168
H           -4.93231185824782       -1.59203732398707       -3.25726066652356
H           -5.63966215629870       -1.43950846586697       -0.92724594553169
H           -5.51472405484505       -5.00172151203831        1.48420434674510
H           -4.33852484065331       -4.01145505695507        2.55561654985896
H           -3.24103670861484       -2.13069735759328        2.52194801199848
H           -2.34531862154366        0.11556760498989        2.33069808835008
H           -3.35116172875231        2.66366291654372       -1.53613244793728
H           -1.88300294452884        3.36024887089522       -0.86127595055334
H           -2.22575773440828        0.43467938414275       -1.69750809039627
H           -1.50684644251540        1.71786590152828       -2.67329032694155
H           -0.91354745263660        1.58473114409016        1.04245494451716
H            0.30585832559297        2.01386531036570       -0.90601866215747
H            1.67298058227336       -0.84723367906251        0.45802584477043
H            1.89626636711753        0.86321084180656        0.06077396808187
H            2.33481650661224        0.15347148890673       -2.34865709110511
H            2.40447224774088       -1.52080713853886       -1.77669557554370
H            4.04388629283694        1.76869232165908       -1.73955336437048
H            6.32040542439675        2.17507849761882       -0.97612315767763
H            8.04151668985469        2.36005570165447        0.63504766960783
H            8.65663209300606        1.78609169761911       -0.94215039545156
H            9.52769083047463        1.38244207230142        0.55754000677051
H            7.05567967464641       -3.81669425407505        1.36270818980624
H            5.37515545909751       -3.25370940972558        1.52827159331859
H            5.99825258339544       -3.76528905864121       -0.06852659487427
H            4.21773566947323       -2.22884916991929       -0.26680108298899
H           -0.59177934981173       -1.44857258967203       -2.10384432149927
H           -1.45248126135034       -1.27485620571503       -0.57326818324410
H            0.11630045695190       -2.09325971678846       -0.61543847509131
H           -4.95564317946319        2.77218303512008        0.20812099349979
H           -3.89540901115450        2.88180248216536        3.05665475280270
H           -4.90093198269061        1.58421656622758        2.39553999039582
H           -5.54604468805886        3.21840516447541        2.53611744240161
H           -2.98106058456217        4.70812554944805        1.48629168318049
H           -3.59300826464446        4.78662880445577       -0.17491295871077
H           -4.68120985582342        5.04546674759195        1.17924727785585
H           -0.79371329212561        3.03885135417983        2.86738179860033

          :  Hamiltonian                  GFN2-xTB          :
         :: total energy             -99.326184382225 Eh    ::
         :: gradient norm              0.009194359288 Eh/a0 ::
         :: HOMO-LUMO gap              1.305349127716 eV    ::
         :: SCC energy              -100.690377751568 Eh    ::
         :: -> dispersion             -0.076335756986 Eh    ::
         :: repulsion energy           1.362732026736 Eh    ::

    * Orbital Energies and Occupations

         #    Occupation            Energy/Eh            Energy/eV
      -------------------------------------------------------------
         1        2.0000           -0.8514509             -23.1692
       ...           ...                  ...                  ...
        78        1.9984           -0.5265363             -14.3278
        79        1.9983           -0.5254290             -14.2977
        80        1.9979           -0.5222636             -14.2115
        81        1.9972           -0.5180563             -14.0970
        82        1.9971           -0.5170966             -14.0709
        83        1.9952           -0.5095008             -13.8642
        84        1.9950           -0.5087752             -13.8445
        85        1.9884           -0.4953916             -13.4803
        86        1.9824           -0.4887392             -13.2993
        87        1.9796           -0.4863614             -13.2346
        88        1.9352           -0.4676870             -12.7264
        89        1.8512           -0.4538105             -12.3488
        90        1.6496           -0.4384240             -11.9301 (HOMO)
        91        0.3707           -0.3904533             -10.6248 (LUMO)
        92        0.2504           -0.3831126             -10.4250
        93        0.0138           -0.3352512              -9.1226
        94        0.0029           -0.3102121              -8.4413
        95        0.0025           -0.3079559              -8.3799
        96        0.0021           -0.3053284              -8.3084
        97        0.0000           -0.2410793              -6.5601
        98        0.0000           -0.1853238              -5.0429
        99                         -0.1304835              -3.5506
       100                         -0.0720411              -1.9603
       101                         -0.0642308              -1.7478
       ...                                ...                  ...
       171                          0.5784138              15.7394
      -------------------------------------------------------------
                  HL-Gap            0.0479707 Eh            1.3053 eV

     #   Z          covCN         q      C6AA      α(0)
     1   7 N        1.774    -0.272    27.881     7.819
     2   6 C        2.827     0.103    25.718     8.310
     3   6 C        3.908     0.005    20.438     6.426
     4   6 C        2.962     0.010    27.794     8.647
     5   6 C        2.911    -0.065    29.609     8.923
     6   6 C        3.743     0.103    18.952     6.211
     7   8 O        1.695    -0.339    19.684     5.990
     8   6 C        3.636     0.040    20.280     6.480
     9   6 C        2.859     0.093    25.938     8.348
    10   8 O        1.710    -0.093    15.736     5.356
    11   6 C        2.735     0.013    27.698     8.617
    12   6 C        2.899    -0.058    29.436     8.896
    13   6 C        2.918    -0.052    29.294     8.876
    14   6 C        3.813    -0.065    21.733     6.636
    15   6 C        3.802    -0.075    21.938     6.668
    16   6 C        2.846     0.012    27.744     8.632
    17   7 N        2.729     0.019    20.916     6.792
    18   6 C        3.758    -0.017    20.929     6.522
    19   6 C        3.808    -0.070    21.840     6.653
    20   6 C        2.969    -0.001    28.042     8.686
    21   6 C        2.922    -0.050    29.232     8.866
    22   6 C        2.914    -0.068    29.693     8.935
    23   6 C        2.865     0.133    25.090     8.211
    24   8 O        1.706    -0.223    17.701     5.680
    25   6 C        3.645     0.025    20.481     6.504
    26   6 C        2.863     0.133    25.094     8.211
    27   8 O        1.706    -0.226    17.742     5.687
    28   6 C        3.645     0.027    20.450     6.500
    29   6 C        2.919    -0.080    29.988     8.980
    30   6 C        3.700    -0.076    22.122     6.726
    31   6 C        3.853    -0.009    20.693     6.470
    32   6 C        3.756    -0.118    22.809     6.810
    33   6 C        3.755    -0.120    22.856     6.817
    34   1 H        0.926     0.050     2.321     2.383
    35   1 H        0.924     0.041     2.429     2.437
    36   1 H        0.925     0.061     2.187     2.313
    37   1 H        0.924     0.039     2.465     2.456
    38   1 H        0.925     0.052     2.297     2.370
    39   1 H        0.926     0.087     1.907     2.159
    40   1 H        0.926     0.061     2.192     2.315
    41   1 H        0.926     0.049     2.330     2.387
    42   1 H        0.926     0.041     2.439     2.442
    43   1 H        0.925     0.063     2.162     2.299
    44   1 H        0.924     0.054     2.268     2.355
    45   1 H        0.925     0.083     1.945     2.181
    46   1 H        0.924     0.082     1.960     2.189
    47   1 H        0.922     0.004     2.998     2.708
    48   1 H        0.926     0.070     2.090     2.261
    49   1 H        0.924     0.068     2.107     2.270
    50   1 H        0.924     0.067     2.124     2.279
    51   1 H        0.924     0.055     2.258     2.350
    52   1 H        0.924     0.056     2.242     2.342
    53   1 H        0.926     0.044     2.397     2.421
    54   1 H        0.926     0.058     2.226     2.333
    55   1 H        0.924     0.053     2.278     2.360
    56   1 H        0.924     0.055     2.254     2.348
    57   1 H        0.925     0.082     1.961     2.190
    58   1 H        0.925     0.081     1.965     2.192
    59   1 H        0.924     0.048     2.340     2.392
    60   1 H        0.924     0.052     2.292     2.368
    61   1 H        0.926     0.047     2.352     2.398
    62   1 H        0.924     0.082     1.959     2.189
    63   1 H        0.924     0.097     1.817     2.108
    64   1 H        0.925     0.078     1.998     2.211
    65   1 H        0.924     0.038     2.474     2.460
    66   1 H        0.925     0.067     2.118     2.276
    67   1 H        0.925     0.033     2.540     2.492
    68   1 H        0.925     0.051     2.308     2.376
    69   1 H        0.925     0.064     2.155     2.295
    70   1 H        0.925     0.036     2.505     2.475
    71   1 H        0.925     0.055     2.264     2.353
    72   1 H        0.860     0.155     1.368     1.832

Wiberg/Mayer (AO) data.
largest (>0.10) Wiberg bond orders for each atom

     #   Z sym  total        # sym  WBO       # sym  WBO       # sym  WBO
 ---------------------------------------------------------------------------
     1   7 N    3.031 --     2 C    1.952    72 H    0.943
     2   6 C    3.933 --     1 N    1.952     3 C    0.995    47 H    0.909
     3   6 C    3.975 --     2 C    0.995     4 C    0.967    14 C    0.954
                            31 C    0.946
     4   6 C    3.959 --     5 C    1.636    13 C    1.224     3 C    0.967
     5   6 C    3.806 --     4 C    1.636     6 C    1.013    34 H    0.964
     6   6 C    3.948 --     5 C    1.013     9 C    0.989    38 H    0.953
                             7 O    0.908
     7   8 O    2.025 --     8 C    0.995     6 C    0.908
     8   6 C    3.943 --     7 O    0.995    35 H    0.977    37 H    0.977
                            36 H    0.975
     9   6 C    3.764 --    12 C    1.352    10 O    1.138     6 C    0.989
                            11 C    0.184
    10   8 O    2.517 --    11 C    1.275     9 C    1.138
    11   6 C    3.538 --    10 O    1.275    40 H    0.968    39 H    0.968
                             9 C    0.184
    12   6 C    3.926 --    13 C    1.468     9 C    1.352    41 H    0.960
    13   6 C    3.809 --    12 C    1.468     4 C    1.224    42 H    0.963
    14   6 C    3.972 --    15 C    0.979    44 H    0.973    43 H    0.967
                             3 C    0.954
    15   6 C    3.982 --    16 C    1.064    14 C    0.979    45 H    0.955
                            46 H    0.925
    16   6 C    3.611 --    17 N    1.425    15 C    1.064    48 H    0.956
    17   7 N    3.498 --    16 C    1.425    30 C    0.996    18 C    0.988
    18   6 C    3.956 --    17 N    0.988    50 H    0.968    19 C    0.966
                            49 H    0.964
    19   6 C    3.977 --    20 C    1.008    52 H    0.972    51 H    0.972
                            18 C    0.966
    20   6 C    3.946 --    21 C    1.410    29 C    1.380    19 C    1.008
    21   6 C    3.951 --    22 C    1.416    20 C    1.410    53 H    0.968
    22   6 C    3.961 --    21 C    1.416    23 C    1.384    54 H    0.963
    23   6 C    3.897 --    22 C    1.384    26 C    1.221    24 O    1.109
    24   8 O    2.255 --    23 C    1.109    25 C    0.976
    25   6 C    3.929 --    57 H    0.977    24 O    0.976    55 H    0.973
                            56 H    0.973
    26   6 C    3.900 --    29 C    1.395    23 C    1.221    27 O    1.103
    27   8 O    2.254 --    26 C    1.103    28 C    0.979
    28   6 C    3.932 --    27 O    0.979    58 H    0.977    59 H    0.973
                            60 H    0.973
    29   6 C    3.960 --    26 C    1.395    20 C    1.380    61 H    0.963
    30   6 C    3.952 --    17 N    0.996    64 H    0.978    62 H    0.964
                            63 H    0.958
    31   6 C    3.974 --    33 C    1.008    32 C    1.008    65 H    0.961
                             3 C    0.946
    32   6 C    3.980 --    31 C    1.008    68 H    0.982    67 H    0.982
                            66 H    0.975
    33   6 C    3.981 --    31 C    1.008    70 H    0.983    71 H    0.980
                            69 H    0.975
    34   1 H    0.996 --     5 C    0.964
    35   1 H    0.996 --     8 C    0.977
    36   1 H    0.993 --     8 C    0.975
    37   1 H    0.996 --     8 C    0.977
    38   1 H    0.987 --     6 C    0.953
    39   1 H    0.992 --    11 C    0.968
    40   1 H    0.996 --    11 C    0.968
    41   1 H    0.996 --    12 C    0.960
    42   1 H    0.998 --    13 C    0.963
    43   1 H    0.994 --    14 C    0.967
    44   1 H    0.996 --    14 C    0.973
    45   1 H    0.992 --    15 C    0.955
    46   1 H    0.971 --    15 C    0.925
    47   1 H    0.986 --     2 C    0.909
    48   1 H    0.995 --    16 C    0.956
    49   1 H    0.990 --    18 C    0.964
    50   1 H    0.995 --    18 C    0.968
    51   1 H    0.996 --    19 C    0.972
    52   1 H    0.996 --    19 C    0.972
    53   1 H    0.997 --    21 C    0.968
    54   1 H    0.995 --    22 C    0.963
    55   1 H    0.992 --    25 C    0.973
    56   1 H    0.992 --    25 C    0.973
    57   1 H    0.993 --    25 C    0.977
    58   1 H    0.993 --    28 C    0.977
    59   1 H    0.993 --    28 C    0.973
    60   1 H    0.993 --    28 C    0.973
    61   1 H    0.997 --    29 C    0.963
    62   1 H    0.984 --    30 C    0.964
    63   1 H    0.984 --    30 C    0.958
    64   1 H    0.994 --    30 C    0.978
    65   1 H    0.992 --    31 C    0.961
    66   1 H    0.992 --    32 C    0.975
    67   1 H    0.997 --    32 C    0.982
    68   1 H    0.994 --    32 C    0.982
    69   1 H    0.992 --    33 C    0.975
    70   1 H    0.997 --    33 C    0.983
    71   1 H    0.994 --    33 C    0.980
    72   1 H    0.971 --     1 N    0.943
 ---------------------------------------------------------------------------

molecular dipole:
                 x           y           z       tot (Debye)
 q only:       -0.053      -0.624      -0.630
   full:        0.000      -0.944      -0.848       3.226

           -------------------------------------------------
          | TOTAL ENERGY              -99.326184382225 Eh   |
          | GRADIENT NORM               0.009194359288 Eh/α |
          | HOMO-LUMO GAP               1.305349127716 eV   |
           -------------------------------------------------

 * finished run on 2024/04/06 at 11:16:08.447
