   * xtb version 6.6.1 (8d0f1dd) compiled by 'conda@1efc2f54142f' on 2023-08-01
          program call               : xtb struc.xyz --opt loose --input .xc1 --gfn2

   ID    Z sym.   atoms
    1    6 C      1, 3, 5-7, 10, 11, 14
    2    7 N      2, 4, 9, 13
    3    8 O      8, 12
    4    1 H      15-25
constraining bond 2 22 to    5.6866700 Å, actual value:    4.8337570 Å

          :  Hamiltonian                  GFN2-xTB          :
 * total energy  :   -43.5467627 Eh     change       -0.6650680E-10 Eh
 * total energy  :   -46.5879889 Eh     change       -0.3041226E+01 Eh
 * total energy  :   -51.3478738 Eh     change       -0.4759885E+01 Eh
 * total energy  :   -58.0194404 Eh     change       -0.6671567E+01 Eh
 * total energy  :   -66.6829067 Eh     change       -0.8663466E+01 Eh
 * total energy  :   -76.9983492 Eh     change       -0.1031544E+02 Eh
 * total energy  :   -87.8654231 Eh     change       -0.1086707E+02 Eh
 * total energy  :   -70.6372615 Eh     change        0.1722816E+02 Eh
 * total energy  :   -87.2603713 Eh     change       -0.1662311E+02 Eh
 * total energy  :   -84.2366403 Eh     change        0.3023731E+01 Eh
 * total energy  :   -89.9584813 Eh     change        0.1527010E-01 Eh
 * total energy  :   -89.9746168 Eh     change       -0.1613551E-01 Eh
 * total energy  :   -89.9753097 Eh     change       -0.6928208E-03 Eh
 * total energy  :   -89.9755402 Eh     change       -0.2305384E-03 Eh
 * total energy  :   -89.9757528 Eh     change       -0.2126129E-03 Eh
 * total energy  :   -89.9759057 Eh     change       -0.1528946E-03 Eh
 * total energy  :   -89.9759951 Eh     change       -0.8937710E-04 Eh
 * total energy  :   -89.9760462 Eh     change       -0.5115844E-04 Eh
 * total energy  :   -89.9760795 Eh     change       -0.3322245E-04 Eh
   *** GEOMETRY OPTIMIZATION CONVERGED AFTER 161 ITERATIONS ***

 final structure:
================
25
 xtb: 6.6.1 (8d0f1dd)
C            4.56412667307975        0.05842295445879        0.21559614505546
N            1.63977900286212        0.13708493301729        0.12577041984641
C            3.62369654181783       -1.03904878927073       -0.09838450815519
N            2.35614587184473       -1.02553110113390       -0.14222133108149
C           -0.33727333427543       -1.22712130848838       -0.31277039017246
C            0.26789352727261       -0.05350840394556        0.01824394615462
C           -0.52545060445036        1.15820320772553        0.30254391382590
O           -0.02711615095925        2.21600974421867        0.59865168538556
N           -1.90079937298079        0.97755630862884        0.20625157179686
C           -2.76502949842993        2.11699308561256        0.48943837529098
C           -2.54648661779250       -0.17326073513573       -0.13426950690545
O           -3.73427922842550       -0.28218549388074       -0.21231904463140
N           -1.69719257642641       -1.32985842620818       -0.41397510919080
C           -2.30513558413229       -2.44211797873788       -0.75993580951519
H            5.13576532605055       -0.21241828627027        1.10501548890845
H            5.28701878867589        0.15188198546648       -0.59597270957830
H            4.07443040845129        1.01570487493725        0.37942770056825
H            4.05727902646368       -2.00635406413043       -0.32377350360555
H           -2.13594669008126        2.96131742593698        0.76118525541264
H           -3.36008973355441        2.35812733260205       -0.39093890793152
H           -3.44211179013156        1.87049419325301        1.30693899299387
H            1.79603765574492        0.46554496061086        0.21467355804943
H           -1.73212542991175       -3.32613005861939       -0.97543726465163
H           -3.38117861918841       -2.44025736580416       -0.82013236125162
H            0.24847392258138       -2.11131045324957       -0.51243498870112

          :  Hamiltonian                  GFN2-xTB          :
         :: total energy             -89.976079470400 Eh    ::
         :: gradient norm              0.002485119895 Eh/a0 ::
         :: HOMO-LUMO gap              1.639871117531 eV    ::
         :: SCC energy               -42.697599228303 Eh    ::
         :: -> dispersion             -0.020637033852 Eh    ::
         :: repulsion energy           3.108887142431 Eh    ::

    * Orbital Energies and Occupations

         #    Occupation            Energy/Eh            Energy/eV
      -------------------------------------------------------------
         1        2.0000           -0.9013538             -24.5271
       ...           ...                  ...                  ...
        25        1.9998           -0.6658978             -18.1200
        26        1.9997           -0.6577882             -17.8993
        27        1.9995           -0.6477383             -17.6259
        28        1.9994           -0.6444917             -17.5375
        29        1.9992           -0.6399460             -17.4138
        30        1.9959           -0.6135493             -16.6955
        31        1.9929           -0.6049868             -16.4625
        32        1.9927           -0.6045375             -16.4503
        33        1.9904           -0.6001357             -16.3305
        34        1.9656           -0.5797836             -15.7767
        35        1.9653           -0.5796829             -15.7740
        36        1.8634           -0.5571221             -15.1601
        37        1.8345           -0.5538409             -15.0708 (HOMO)
        38        0.3956           -0.4935767             -13.4309 (LUMO)
        39        0.0046           -0.4194348             -11.4134
        40        0.0013           -0.3994176             -10.8687
        41        0.0004           -0.3821517             -10.3989
        42        0.0000           -0.3005789              -8.1792
        43                         -0.2073128              -5.6413
        44                         -0.1831512              -4.9838
        45                         -0.1251656              -3.4059
        46                         -0.1030857              -2.8051
        47                         -0.0533656              -1.4522
        48                         -0.0291054              -0.7920
       ...                                ...                  ...
        67                          8.1795097             222.5758
      -------------------------------------------------------------
                  HL-Gap            0.0602642 Eh            1.6399 eV

     #   Z          covCN         q      C6AA      α(0)
     1   6 C        3.753    -0.130    23.054     6.847
     2   7 N        2.779    -0.056    22.320     7.017
     3   6 C        2.833     0.077    26.276     8.400
     4   7 N        1.932    -0.145    24.920     7.402
     5   6 C        2.862    -0.018    28.463     8.745
     6   6 C        2.969     0.032    27.271     8.566
     7   6 C        2.772     0.267    22.502     7.769
     8   8 O        0.858    -0.331    20.358     6.049
     9   7 N        2.738    -0.058    22.367     7.024
    10   6 C        3.711    -0.068    21.939     6.694
    11   6 C        2.733     0.313    21.678     7.623
    12   8 O        0.859    -0.321    20.155     6.019
    13   7 N        2.738     0.063    20.147     6.666
    14   6 C        2.817    -0.021    28.514     8.749
    15   1 H        0.924     0.110     1.699     2.038
    16   1 H        0.924     0.108     1.718     2.050
    17   1 H        0.925     0.077     2.007     2.215
    18   1 H        0.925     0.105     1.737     2.061
    19   1 H        0.925     0.121     1.608     1.983
    20   1 H        0.925     0.106     1.730     2.057
    21   1 H        0.925     0.106     1.731     2.057
    22   1 H        0.947     0.262     0.831     1.425
    23   1 H        0.926     0.129     1.544     1.943
    24   1 H        0.926     0.150     1.388     1.843
    25   1 H        0.926     0.122     1.597     1.976

Wiberg/Mayer (AO) data.
largest (>0.10) Wiberg bond orders for each atom

     #   Z sym  total        # sym  WBO       # sym  WBO       # sym  WBO
 ---------------------------------------------------------------------------
     1   6 C    3.932 --     3 C    1.053    17 H    0.974    16 H    0.933
                            15 H    0.927
     2   7 N    3.370 --     6 C    1.171     4 N    1.070    22 H    0.907
     3   6 C    3.865 --     4 N    1.752     1 C    1.053    18 H    0.936
     4   7 N    2.964 --     3 C    1.752     2 N    1.070
     5   6 C    3.853 --     6 C    1.513    13 N    1.153    25 H    0.943
     6   6 C    3.892 --     5 C    1.513     2 N    1.171     7 C    1.015
     7   6 C    3.924 --     8 O    1.724     9 N    1.098     6 C    1.015
     8   8 O    2.009 --     7 C    1.724     9 N    0.132
     9   7 N    3.575 --    11 C    1.174     7 C    1.098    10 C    0.963
                            12 O    0.149     8 O    0.132
    10   6 C    3.897 --    19 H    0.965     9 N    0.963    21 H    0.960
                            20 H    0.959
    11   6 C    3.929 --    12 O    1.744     9 N    1.174    13 N    0.923
    12   8 O    2.068 --    11 C    1.744     9 N    0.149
    13   7 N    3.688 --    14 C    1.463     5 C    1.153    11 C    0.923
    14   6 C    3.559 --    13 N    1.463    23 H    0.960    24 H    0.952
    15   1 H    0.973 --     1 C    0.927
    16   1 H    0.975 --     1 C    0.933
    17   1 H    0.989 --     1 C    0.974
    18   1 H    0.975 --     3 C    0.936
    19   1 H    0.982 --    10 C    0.965
    20   1 H    0.980 --    10 C    0.959
    21   1 H    0.980 --    10 C    0.960
    22   1 H    0.929 --     2 N    0.907
    23   1 H    0.982 --    14 C    0.960
    24   1 H    0.977 --    14 C    0.952
    25   1 H    0.983 --     5 C    0.943
 ---------------------------------------------------------------------------

molecular dipole:
                 x           y           z       tot (Debye)
 q only:        0.828      -1.536      -0.334
   full:        1.194      -1.571      -0.329       5.085

           -------------------------------------------------
          | TOTAL ENERGY              -89.976079470400 Eh   |
          | GRADIENT NORM               0.002485119895 Eh/α |
          | HOMO-LUMO GAP               1.639871117531 eV   |
           -------------------------------------------------

 * finished run on 2024/06/05 at 19:58:08.978
