   * xtb version 6.6.1 (8d0f1dd) compiled by 'conda@1efc2f54142f' on 2023-08-01
          program call               : xtb xtbopt.xyz --opt crude --input .xc2 --gfn2

   ID    Z sym.   atoms
    1    6 C      1, 3, 5-7, 10, 11, 14
    2    7 N      2, 4, 9, 13
    3    8 O      8, 12
    4    1 H      15-25
########################################################################
[WARNING] Please study the warnings concerning your input carefully
-1- readin_getIntValue: could not parse ''
########################################################################

          :  Hamiltonian                  GFN2-xTB          :
 * total energy  :   -39.5887747 Eh     change       -0.3815614E-11 Eh
 * total energy  :   -42.1038863 Eh     change       -0.2515112E+01 Eh
 * total energy  :   -42.1298152 Eh     change       -0.2592886E-01 Eh
 * total energy  :   -42.1359648 Eh     change       -0.6149658E-02 Eh
 * total energy  :   -42.1373576 Eh     change       -0.1392733E-02 Eh
 * total energy  :   -42.1375996 Eh     change       -0.2420394E-03 Eh
 * total energy  :   -42.1377188 Eh     change       -0.1192452E-03 Eh
 * total energy  :   -42.1377669 Eh     change       -0.4810486E-04 Eh
 * total energy  :   -42.1378493 Eh     change       -0.8234229E-04 Eh
   *** GEOMETRY OPTIMIZATION CONVERGED AFTER 9 ITERATIONS ***

 final structure:
================
25
 xtb: 6.6.1 (8d0f1dd)
C            4.55048110997137        0.10975633638110        0.23330108774295
N            1.59278245785614       -0.02889779499155        0.08344022692495
C            3.65720681283878       -1.02540070444666       -0.09268700907525
N            2.38671261600223       -1.07106118590526       -0.15508440381909
C           -0.38788727735519       -1.30178977806290       -0.35170153817647
C            0.25221062498639       -0.14433724684115       -0.00863472212489
C           -0.50761655302705        1.08485485491053        0.29121247968683
O            0.03782346566547        2.12115034806569        0.59227936756524
N           -1.88268449276467        0.95056751858056        0.20043523251507
C           -2.71153758231592        2.11534409897059        0.48557591171716
C           -2.56269688797042       -0.18375198726685       -0.13736775117669
O           -3.75406425049343       -0.25621128260930       -0.20487495352106
N           -1.75064361266716       -1.36364032706881       -0.42801849161919
C           -2.39957304597636       -2.45843287597712       -0.75862811131956
H            5.12994398911754       -0.14185449751460        1.12298959838947
H            5.27052572723472        0.23813567286845       -0.57564824886829
H            4.03159652291598        1.05078834498301        0.40181442935153
H            4.13704214487904       -1.97105627073491       -0.31238935450545
H           -2.05604130781963        2.94110089153313        0.75104079020490
H           -3.30375286570983        2.37080917644551       -0.39259264622772
H           -3.39050666383488        1.89171812191697        1.30779001199350
H            1.99200081952135        0.87713065043804        0.33225807289883
H           -1.86012442177327       -3.36043021341154       -0.98452560338583
H           -3.47588415411545       -2.42412828330139       -0.79604046870095
H            0.16511833893911       -2.20212502536828       -0.57277228855318

          :  Hamiltonian                  GFN2-xTB          :
         :: total energy             -42.137849285559 Eh    ::
         :: gradient norm              0.009767025030 Eh/a0 ::
         :: HOMO-LUMO gap              1.541404031775 eV    ::
         :: SCC energy               -42.675505437162 Eh    ::
         :: -> dispersion             -0.020585912402 Eh    ::
         :: repulsion energy           0.537716746278 Eh    ::

    * Orbital Energies and Occupations

         #    Occupation            Energy/Eh            Energy/eV
      -------------------------------------------------------------
         1        2.0000           -0.8987518             -24.4563
       ...           ...                  ...                  ...
        25        1.9999           -0.6653333             -18.1046
        26        1.9998           -0.6541661             -17.8008
        27        1.9995           -0.6435857             -17.5129
        28        1.9995           -0.6428983             -17.4942
        29        1.9994           -0.6389815             -17.3876
        30        1.9968           -0.6126607             -16.6713
        31        1.9955           -0.6069507             -16.5160
        32        1.9944           -0.6035283             -16.4228
        33        1.9918           -0.5976010             -16.2616
        34        1.9750           -0.5797672             -15.7763
        35        1.9728           -0.5784593             -15.7407
        36        1.8785           -0.5539544             -15.0739
        37        1.7957           -0.5450126             -14.8305 (HOMO)
        38        0.3944           -0.4883670             -13.2891 (LUMO)
        39        0.0053           -0.4167991             -11.3417
        40        0.0016           -0.3977308             -10.8228
        41        0.0003           -0.3728036             -10.1445
        42        0.0000           -0.2942518              -8.0070
        43                         -0.2055492              -5.5933
        44                         -0.1724420              -4.6924
        45                         -0.1416084              -3.8534
        46                         -0.0612523              -1.6668
        47                         -0.0523925              -1.4257
        48                         -0.0433946              -1.1808
       ...                                ...                  ...
        67                          0.5495049              14.9528
      -------------------------------------------------------------
                  HL-Gap            0.0566456 Eh            1.5414 eV

     #   Z          covCN         q      C6AA      α(0)
     1   6 C        3.753    -0.129    23.035     6.844
     2   7 N        2.789     0.021    20.885     6.787
     3   6 C        2.839     0.066    26.525     8.440
     4   7 N        1.908    -0.116    24.300     7.309
     5   6 C        2.865    -0.020    28.507     8.752
     6   6 C        2.900     0.038    27.138     8.542
     7   6 C        2.774     0.265    22.531     7.774
     8   8 O        0.858    -0.348    20.670     6.096
     9   7 N        2.738    -0.057    22.342     7.020
    10   6 C        3.710    -0.067    21.927     6.692
    11   6 C        2.734     0.313    21.681     7.623
    12   8 O        0.859    -0.322    20.177     6.022
    13   7 N        2.738     0.062    20.165     6.669
    14   6 C        2.818    -0.025    28.611     8.764
    15   1 H        0.924     0.108     1.713     2.047
    16   1 H        0.924     0.107     1.725     2.054
    17   1 H        0.925     0.070     2.087     2.259
    18   1 H        0.925     0.105     1.741     2.063
    19   1 H        0.925     0.119     1.624     1.993
    20   1 H        0.925     0.104     1.745     2.066
    21   1 H        0.925     0.105     1.743     2.065
    22   1 H        0.860     0.212     1.048     1.604
    23   1 H        0.926     0.126     1.569     1.959
    24   1 H        0.926     0.147     1.410     1.857
    25   1 H        0.926     0.117     1.634     1.999

Wiberg/Mayer (AO) data.
largest (>0.10) Wiberg bond orders for each atom

     #   Z sym  total        # sym  WBO       # sym  WBO       # sym  WBO
 ---------------------------------------------------------------------------
     1   6 C    3.941 --     3 C    1.054    17 H    0.970    16 H    0.935
                            15 H    0.930
     2   7 N    3.481 --     6 C    1.228     4 N    1.143    22 H    0.892
     3   6 C    3.838 --     4 N    1.707     1 C    1.054    18 H    0.940
     4   7 N    3.001 --     3 C    1.707     2 N    1.143
     5   6 C    3.833 --     6 C    1.470    13 N    1.162    25 H    0.946
     6   6 C    3.902 --     5 C    1.470     2 N    1.228     7 C    1.013
     7   6 C    3.921 --     8 O    1.708     9 N    1.113     6 C    1.013
     8   8 O    2.004 --     7 C    1.708     9 N    0.133
     9   7 N    3.581 --    11 C    1.167     7 C    1.113    10 C    0.962
                            12 O    0.147     8 O    0.133
    10   6 C    3.901 --    19 H    0.967     9 N    0.962    21 H    0.962
                            20 H    0.961
    11   6 C    3.926 --    12 O    1.745     9 N    1.167    13 N    0.926
    12   8 O    2.067 --    11 C    1.745     9 N    0.147
    13   7 N    3.690 --    14 C    1.454     5 C    1.162    11 C    0.926
    14   6 C    3.556 --    13 N    1.454    23 H    0.961    24 H    0.953
    15   1 H    0.973 --     1 C    0.930
    16   1 H    0.974 --     1 C    0.935
    17   1 H    0.991 --     1 C    0.970
    18   1 H    0.977 --     3 C    0.940
    19   1 H    0.984 --    10 C    0.967
    20   1 H    0.982 --    10 C    0.961
    21   1 H    0.982 --    10 C    0.962
    22   1 H    0.944 --     2 N    0.892
    23   1 H    0.983 --    14 C    0.961
    24   1 H    0.978 --    14 C    0.953
    25   1 H    0.984 --     5 C    0.946
 ---------------------------------------------------------------------------

molecular dipole:
                 x           y           z       tot (Debye)
 q only:        0.962      -1.440      -0.311
   full:        1.303      -1.387      -0.288       4.891

           -------------------------------------------------
          | TOTAL ENERGY              -42.137849285559 Eh   |
          | GRADIENT NORM               0.009767025030 Eh/α |
          | HOMO-LUMO GAP               1.541404031775 eV   |
           -------------------------------------------------

 * finished run on 2024/06/05 at 19:58:09.349
