   * xtb version 6.6.1 (8d0f1dd) compiled by 'conda@1efc2f54142f' on 2023-08-01
          program call               : xtb struc.xyz --opt loose --input .xc1 --gfn2

   ID    Z sym.   atoms
    1    6 C      1, 3, 5-7, 10, 11, 14
    2    7 N      2, 4, 9, 13
    3    8 O      8, 12
    4    1 H      15-25
constraining bond 8 11 to    5.7600000 Å, actual value:    3.5880572 Å

          :  Hamiltonian                  GFN2-xTB          :
 * total energy  :   -33.8249048 Eh     change       -0.6650680E-10 Eh
 * total energy  :   -37.3181583 Eh     change       -0.3493254E+01 Eh
 * total energy  :   -39.8619977 Eh     change       -0.2543839E+01 Eh
 * total energy  :   -41.2921080 Eh     change       -0.1430110E+01 Eh
 * total energy  :   -41.7678835 Eh     change       -0.4757755E+00 Eh
 * total energy  :   -41.8186696 Eh     change       -0.5078606E-01 Eh
 * total energy  :   -41.8330761 Eh     change       -0.1440654E-01 Eh
 * total energy  :   -41.8567151 Eh     change       -0.2363896E-01 Eh
 * total energy  :   -41.8668017 Eh     change       -0.1008670E-01 Eh
 * total energy  :   -41.8804776 Eh     change       -0.1367587E-01 Eh
 * total energy  :   -42.1169866 Eh     change       -0.2966097E-03 Eh
 * total energy  :   -42.1172551 Eh     change       -0.2685057E-03 Eh
 * total energy  :   -42.1175451 Eh     change       -0.2900105E-03 Eh
 * total energy  :   -42.1179222 Eh     change       -0.3771119E-03 Eh
 * total energy  :   -42.1181391 Eh     change       -0.2168515E-03 Eh
 * total energy  :   -42.1182642 Eh     change       -0.1250863E-03 Eh
 * total energy  :   -42.1182996 Eh     change       -0.3546909E-04 Eh
 * total energy  :   -42.1182922 Eh     change        0.7387465E-05 Eh
 * total energy  :   -42.1183369 Eh     change       -0.4461053E-04 Eh
   *** GEOMETRY OPTIMIZATION CONVERGED AFTER 77 ITERATIONS ***

 final structure:
================
25
 xtb: 6.6.1 (8d0f1dd)
C            3.08242935927419        0.97071664440954        0.11715221382050
N            2.08476922834886       -0.05050658721288        0.32623994639742
C            2.36299917585384       -1.22973883740081        0.86591413042997
N            1.24745134800951       -1.96399486248152        0.91095399769263
C            0.21364582379336       -1.22327205125797        0.38675792900499
C            0.74197054829226        0.00810592353526        0.01938756483920
C            0.11035083192832        1.27778036898819       -0.50931710277528
O            0.82191457964152        2.17839425270725       -0.96183358125721
N           -1.19817225425692        1.28740877296107       -0.38671430757160
C           -1.96399657180202        2.43016399983639       -0.72930219258669
C           -1.45058532584258       -2.64089698807031        1.22222418429152
O           -1.29673271211366       -3.32346639633408        2.15941940947529
N           -1.07467004333570       -1.79897297289439        0.32288998953124
C           -1.96095461657994       -1.45027726244445       -0.78625947131997
H            3.60578416972065        1.17453596675673        1.04997886530978
H            3.80158116976878        0.63671354812120       -0.63097245058150
H            2.59528609096680        1.87637115958254       -0.24850554710506
H            3.32895546404965       -1.54399811811395        1.21072733813573
H           -1.34669638315146        3.23568431873093       -1.13882776875126
H           -2.72775011905963        2.14781154076460       -1.45818970312604
H           -2.47778552859056        2.78947231497576        0.16705571888314
H           -1.56230304935644       -1.85267776974783       -1.71736270513630
H           -2.00445331244160       -0.35509866056332       -0.84338559567420
H           -2.94973196446451       -1.86129825049214       -0.60241787063066
H            1.17712560545634       -2.90072151276709        1.28555862660626

          :  Hamiltonian                  GFN2-xTB          :
         :: total energy             -42.118336856978 Eh    ::
         :: gradient norm              0.002690354579 Eh/a0 ::
         :: HOMO-LUMO gap              1.168041583106 eV    ::
         :: SCC energy               -42.648468569569 Eh    ::
         :: -> dispersion             -0.021718008656 Eh    ::
         :: repulsion energy           0.529954937005 Eh    ::

    * Orbital Energies and Occupations

         #    Occupation            Energy/Eh            Energy/eV
      -------------------------------------------------------------
         1        2.0000           -0.9274496             -25.2372
       ...           ...                  ...                  ...
        25        2.0000           -0.6670056             -18.1501
        26        2.0000           -0.6654560             -18.1080
        27        1.9999           -0.6385674             -17.3763
        28        1.9999           -0.6370253             -17.3343
        29        1.9998           -0.6243856             -16.9904
        30        1.9996           -0.6174740             -16.8023
        31        1.9995           -0.6145746             -16.7234
        32        1.9992           -0.6051834             -16.4679
        33        1.9984           -0.5949735             -16.1901
        34        1.9951           -0.5772549             -15.7079
        35        1.9371           -0.5362532             -14.5922
        36        1.7303           -0.5114268             -13.9166
        37        1.6993           -0.5094151             -13.8619 (HOMO)
        38        0.5461           -0.4664904             -12.6938 (LUMO)
        39        0.0599           -0.4269204             -11.6171
        40        0.0342           -0.4178542             -11.3704
        41        0.0018           -0.3712603             -10.1025
        42        0.0000           -0.2948755              -8.0240
        43        0.0000           -0.2177289              -5.9247
        44                         -0.1918616              -5.2208
        45                         -0.1387987              -3.7769
        46                         -0.0769619              -2.0942
        47                         -0.0578665              -1.5746
        48                         -0.0460625              -1.2534
       ...                                ...                  ...
        67                          0.7670285              20.8719
      -------------------------------------------------------------
                  HL-Gap            0.0429247 Eh            1.1680 eV

     #   Z          covCN         q      C6AA      α(0)
     1   6 C        3.694    -0.100    22.602     6.802
     2   7 N        2.858     0.086    19.753     6.601
     3   6 C        3.028     0.056    26.717     8.478
     4   7 N        2.803    -0.057    22.342     7.020
     5   6 C        3.048     0.089    25.973     8.358
     6   6 C        3.073     0.011    27.698     8.629
     7   6 C        2.763     0.280    22.255     7.726
     8   8 O        0.858    -0.415    21.985     6.286
     9   7 N        1.832    -0.266    27.759     7.807
    10   6 C        3.702    -0.027    21.214     6.586
    11   6 C        1.820     0.259    25.197     8.110
    12   8 O        0.856    -0.168    17.548     5.616
    13   7 N        2.729     0.025    20.807     6.775
    14   6 C        3.704    -0.099    22.541     6.788
    15   1 H        0.925     0.101     1.774     2.083
    16   1 H        0.925     0.107     1.721     2.052
    17   1 H        0.924     0.156     1.351     1.817
    18   1 H        0.926     0.128     1.549     1.946
    19   1 H        0.924     0.089     1.890     2.150
    20   1 H        0.924     0.082     1.964     2.191
    21   1 H        0.924     0.088     1.895     2.153
    22   1 H        0.925     0.099     1.794     2.095
    23   1 H        0.924     0.139     1.469     1.896
    24   1 H        0.925     0.107     1.725     2.054
    25   1 H        0.860     0.229     0.971     1.544

Wiberg/Mayer (AO) data.
largest (>0.10) Wiberg bond orders for each atom

     #   Z sym  total        # sym  WBO       # sym  WBO       # sym  WBO
 ---------------------------------------------------------------------------
     1   6 C    3.893 --     2 N    0.979    15 H    0.963    16 H    0.956
                            17 H    0.937
     2   7 N    3.701 --     3 C    1.384     6 C    1.191     1 C    0.979
     3   6 C    3.884 --     2 N    1.384     4 N    1.317    18 H    0.951
     4   7 N    3.595 --     3 C    1.317     5 C    1.178    25 H    0.918
     5   6 C    3.854 --     6 C    1.444     4 N    1.178    13 N    1.010
     6   6 C    3.881 --     5 C    1.444     2 N    1.191     7 C    0.958
     7   6 C    3.928 --     8 O    1.529     9 N    1.377     6 C    0.958
     8   8 O    1.804 --     7 C    1.529     9 N    0.151
     9   7 N    2.723 --     7 C    1.377    10 C    1.064     8 O    0.151
    10   6 C    3.901 --     9 N    1.064    20 H    0.938    19 H    0.937
                            21 H    0.930
    11   6 C    3.452 --    12 O    1.964    13 N    1.401
    12   8 O    2.200 --    11 C    1.964    13 N    0.171
    13   7 N    3.586 --    11 C    1.401     5 C    1.010    14 C    0.937
                            12 O    0.171
    14   6 C    3.862 --    24 H    0.974    22 H    0.968    13 N    0.937
                            23 H    0.916
    15   1 H    0.987 --     1 C    0.963
    16   1 H    0.986 --     1 C    0.956
    17   1 H    0.974 --     1 C    0.937
    18   1 H    0.983 --     3 C    0.951
    19   1 H    0.943 --    10 C    0.937
    20   1 H    0.957 --    10 C    0.938
    21   1 H    0.951 --    10 C    0.930
    22   1 H    0.989 --    14 C    0.968
    23   1 H    0.979 --    14 C    0.916
    24   1 H    0.987 --    14 C    0.974
    25   1 H    0.947 --     4 N    0.918
 ---------------------------------------------------------------------------

molecular dipole:
                 x           y           z       tot (Debye)
 q only:        1.116      -2.371       0.679
   full:        1.238      -2.654       0.814       7.725

           -------------------------------------------------
          | TOTAL ENERGY              -42.118336856978 Eh   |
          | GRADIENT NORM               0.002690354579 Eh/α |
          | HOMO-LUMO GAP               1.168041583106 eV   |
           -------------------------------------------------

 * finished run on 2024/06/05 at 19:58:00.392
