   * xtb version 6.6.1 (8d0f1dd) compiled by 'conda@1efc2f54142f' on 2023-08-01
          program call               : xtb xtbopt.xyz --opt crude --input .xc2 --gfn2

   ID    Z sym.   atoms
    1    7 N      1, 17
    2    6 C      2-6, 8, 9, 11-16, 18-23, 25, 26, 28-33
    3    8 O      7, 10, 24, 27
    4    1 H      34-72

          :  Hamiltonian                  GFN2-xTB          :
 * total energy  :   -99.3114511 Eh     change       -0.1595879E-10 Eh
   *** GEOMETRY OPTIMIZATION CONVERGED AFTER 1 ITERATIONS ***

 final structure:
================
72
 xtb: 6.6.1 (8d0f1dd)
N           -2.06588104565066        2.03239147415781        2.24491969069539
C           -1.90578891716311        2.33679011738382        1.02027007658878
C           -2.63820362369977        1.69536747402080       -0.05810635415755
C           -3.32939548004532        0.41859151005216        0.16054761241936
C           -4.39834018943751        0.03077534901852       -0.65837394164500
C           -5.03365791106098       -1.18582767343240       -0.49140631074313
O           -6.07756636833698       -1.63056430673711       -1.22366119528911
C           -6.58067552905975       -0.83150101291386       -2.26754014195422
C           -4.59166591143062       -2.07585727387150        0.52687289978559
O           -5.25959209604068       -3.24262060073657        0.60853899698454
C           -4.91065561249532       -4.15928431203304        1.62045020993790
C           -3.53233870353621       -1.68783527868422        1.33470955660427
C           -2.91253289345660       -0.46261851310382        1.15567039005308
C           -2.60874276726825        2.29727923825987       -1.26960803002828
C           -0.82076175709364        0.83016687955688       -2.64794793617940
C            0.29348647944960        0.94146480658092       -1.90993303460752
N            0.72041643574474        0.08005460666080       -0.94791112410965
C            2.07332180514865        0.18845983077651       -0.47091319011844
C            3.08597590598444       -0.50652130033915       -1.40927762830407
C            4.48882057572437       -0.27378634833706       -0.93439064292351
C            5.13151852142589        0.92619520138081       -1.20580560101997
C            6.41550546916280        1.16668181930016       -0.74536911892944
C            7.08923635468074        0.20796488665548       -0.00067069518474
O            8.33363972099174        0.33196959857856        0.49777688770048
C            9.05688645141883        1.51636226970310        0.25519759966125
C            6.44245232532614       -1.02830328613607        0.27845266890117
O            7.17140049511860       -1.90678516427118        0.99441766124962
C            6.62915608557738       -3.17134595094642        1.29183939768305
C            5.15364681044653       -1.24191635163275       -0.18722354057284
C            0.03829296653293       -1.17412985605889       -0.75447119266803
C           -5.02500298305982        3.00997537038979        1.05238066968626
C           -4.99977607897887        2.31631061828789        2.32798189508967
C           -4.64629314001917        4.42271477653357        0.92046192530682
H           -4.74651797274086        0.70335835755607       -1.42467028002020
H           -6.96885319968921        0.12187563889931       -1.89473347012926
H           -7.39686825536855       -1.40315617910415       -2.70471859258826
H           -5.82092518930644       -0.64408663088283       -3.03267579669989
H           -5.02988534126692       -3.72052481243245        2.61545462626245
H           -5.59911120190170       -4.99450741589199        1.50902270594743
H           -3.88381029041615       -4.51711680687070        1.49878055709888
H           -3.17758714240078       -2.34175171015074        2.11461811030501
H           -2.09469835958644       -0.19022799035874        1.80096172116529
H           -3.16028958821561        1.92584136329643       -2.11165559413474
H           -2.08118893219461        3.22347588433311       -1.41595819106354
H           -1.46999836843370       -0.02376484300597       -2.59781521660026
H           -1.03969700035153        1.56802728226788       -3.39518475757248
H           -1.24362884263805        3.14323912416706        0.69160420985502
H            0.92502867351613        1.81162158052209       -2.03073894604719
H            2.13669098505815       -0.25680252247929        0.52532305299361
H            2.33736601745564        1.24564934504925       -0.38711888625871
H            2.95885694959849       -0.09632000346965       -2.41328762757129
H            2.86887371319347       -1.57463706876893       -1.44321040047040
H            4.63277597987072        1.68241238770534       -1.79272980749131
H            6.88882602540104        2.10696290754066       -0.97651979806400
H            8.55330069264939        2.38845320777105        0.68370582192905
H            9.21640220535497        1.67591749861254       -0.81554717910448
H           10.01798217759725        1.37746711017397        0.74654998321459
H            7.40338269571880       -3.69837432853105        1.84613912732604
H            5.73268141815634       -3.08688749601511        1.91419541053692
H            6.39181547172168       -3.73004875890907        0.38130725264000
H            4.65459244866533       -2.17606291978633        0.01745788778600
H            0.11404526760973       -1.81855987465673       -1.63578277299301
H           -1.01760135287490       -0.99312097005013       -0.54665592433268
H            0.47304648828000       -1.69153420248913        0.09770845494798
H           -5.38001564762258        2.49847665249347        0.17311223140884
H           -3.95499359016776        1.98530035492806        2.52885890251508
H           -5.62736638235314        1.43023217613673        2.33487329477426
H           -5.25526399595983        2.98091216039477        3.15303444132678
H           -4.08883374543826        4.77033426325217        1.78657143808588
H           -4.07016891435202        4.59612170119847        0.01246502920884
H           -5.54612459308852        5.04135170510995        0.83330608499813
H           -1.53260910138982        2.57397475687909        2.91733927949794

          :  Hamiltonian                  GFN2-xTB          :
         :: total energy             -99.311451117010 Eh    ::
         :: gradient norm              0.004662486159 Eh/a0 ::
         :: HOMO-LUMO gap              1.091473639533 eV    ::
         :: SCC energy              -100.745680836245 Eh    ::
         :: -> dispersion             -0.072709976376 Eh    ::
         :: repulsion energy           1.432890782996 Eh    ::

    * Orbital Energies and Occupations

         #    Occupation            Energy/Eh            Energy/eV
      -------------------------------------------------------------
         1        2.0000           -0.8061192             -21.9356
       ...           ...                  ...                  ...
        78        1.9988           -0.5337565             -14.5243
        79        1.9982           -0.5264269             -14.3248
        80        1.9981           -0.5257456             -14.3063
        81        1.9976           -0.5223026             -14.2126
        82        1.9965           -0.5161971             -14.0464
        83        1.9959           -0.5137402             -13.9796
        84        1.9927           -0.5045218             -13.7287
        85        1.9745           -0.4845188             -13.1844
        86        1.9716           -0.4827768             -13.1370
        87        1.9499           -0.4736154             -12.8877
        88        1.8531           -0.4557817             -12.4025
        89        1.8143           -0.4517444             -12.2926
        90        1.7189           -0.4443225             -12.0906 (HOMO)
        91        0.6538           -0.4042116             -10.9992 (LUMO)
        92        0.0844           -0.3662063              -9.9650
        93        0.0047           -0.3197681              -8.7013
        94        0.0023           -0.3083781              -8.3914
        95        0.0020           -0.3064072              -8.3378
        96        0.0018           -0.3047029              -8.2914
        97        0.0004           -0.2806788              -7.6377
        98        0.0000           -0.2436232              -6.6293
        99        0.0000           -0.1810181              -4.9258
       100        0.0000           -0.1709370              -4.6514
       101                         -0.0879068              -2.3921
       ...                                ...                  ...
       171                          0.5859039              15.9433
      -------------------------------------------------------------
                  HL-Gap            0.0401109 Eh            1.0915 eV

     #   Z          covCN         q      C6AA      α(0)
     1   7 N        1.777    -0.307    28.773     7.944
     2   6 C        2.833     0.084    26.122     8.375
     3   6 C        2.953     0.004    27.926     8.668
     4   6 C        2.971     0.007    27.857     8.657
     5   6 C        2.920    -0.078    29.950     8.974
     6   6 C        2.861     0.130    25.143     8.219
     7   8 O        1.706    -0.230    17.819     5.699
     8   6 C        3.644     0.029    20.432     6.497
     9   6 C        2.865     0.132    25.101     8.212
    10   8 O        1.706    -0.224    17.711     5.682
    11   6 C        3.646     0.025    20.477     6.503
    12   6 C        2.913    -0.071    29.768     8.947
    13   6 C        2.923    -0.046    29.131     8.851
    14   6 C        2.857    -0.088    30.205     9.008
    15   6 C        2.838    -0.121    31.058     9.133
    16   6 C        2.843     0.020    27.556     8.603
    17   7 N        2.732    -0.047    22.147     6.989
    18   6 C        3.754    -0.007    20.762     6.497
    19   6 C        3.807    -0.070    21.843     6.653
    20   6 C        2.968     0.006    27.882     8.661
    21   6 C        2.922    -0.046    29.149     8.854
    22   6 C        2.913    -0.066    29.654     8.930
    23   6 C        2.865     0.134    25.079     8.209
    24   8 O        1.706    -0.220    17.657     5.673
    25   6 C        3.645     0.025    20.488     6.505
    26   6 C        2.863     0.134    25.069     8.207
    27   8 O        1.706    -0.223    17.693     5.679
    28   6 C        3.645     0.027    20.463     6.502
    29   6 C        2.919    -0.077    29.922     8.970
    30   6 C        3.700    -0.058    21.786     6.675
    31   6 C        2.883    -0.006    28.170     8.701
    32   6 C        3.751    -0.128    23.017     6.842
    33   6 C        3.753    -0.114    22.738     6.800
    34   1 H        0.926     0.050     2.321     2.382
    35   1 H        0.924     0.049     2.333     2.389
    36   1 H        0.925     0.081     1.972     2.196
    37   1 H        0.924     0.050     2.322     2.383
    38   1 H        0.924     0.055     2.259     2.351
    39   1 H        0.925     0.081     1.964     2.192
    40   1 H        0.924     0.053     2.287     2.365
    41   1 H        0.926     0.054     2.264     2.353
    42   1 H        0.926     0.066     2.133     2.284
    43   1 H        0.926     0.058     2.220     2.330
    44   1 H        0.926     0.047     2.352     2.398
    45   1 H        0.926     0.045     2.378     2.412
    46   1 H        0.926     0.053     2.281     2.362
    47   1 H        0.924     0.015     2.818     2.625
    48   1 H        0.925     0.048     2.347     2.396
    49   1 H        0.924     0.054     2.269     2.356
    50   1 H        0.924     0.058     2.226     2.333
    51   1 H        0.924     0.055     2.258     2.350
    52   1 H        0.924     0.052     2.299     2.371
    53   1 H        0.926     0.048     2.347     2.395
    54   1 H        0.926     0.058     2.221     2.330
    55   1 H        0.924     0.055     2.262     2.352
    56   1 H        0.924     0.057     2.240     2.340
    57   1 H        0.925     0.082     1.957     2.188
    58   1 H        0.925     0.082     1.962     2.191
    59   1 H        0.924     0.051     2.306     2.375
    60   1 H        0.924     0.054     2.270     2.356
    61   1 H        0.926     0.051     2.305     2.374
    62   1 H        0.924     0.059     2.213     2.326
    63   1 H        0.924     0.066     2.126     2.280
    64   1 H        0.925     0.061     2.184     2.311
    65   1 H        0.926     0.056     2.243     2.342
    66   1 H        0.921     0.139     1.469     1.896
    67   1 H        0.925     0.067     2.116     2.275
    68   1 H        0.925     0.083     1.953     2.185
    69   1 H        0.925     0.066     2.129     2.282
    70   1 H        0.925     0.069     2.102     2.267
    71   1 H        0.924     0.093     1.854     2.130
    72   1 H        0.860     0.150     1.398     1.852

Wiberg/Mayer (AO) data.
largest (>0.10) Wiberg bond orders for each atom

     #   Z sym  total        # sym  WBO       # sym  WBO       # sym  WBO
 ---------------------------------------------------------------------------
     1   7 N    2.996 --     2 C    1.800    72 H    0.948
     2   6 C    3.913 --     1 N    1.800     3 C    1.104    47 H    0.940
     3   6 C    3.947 --    14 C    1.676     2 C    1.104     4 C    1.067
     4   6 C    3.942 --    13 C    1.370     5 C    1.341     3 C    1.067
     5   6 C    3.953 --     6 C    1.413     4 C    1.341    34 H    0.957
     6   6 C    3.899 --     5 C    1.413     9 C    1.213     7 O    1.096
     7   8 O    2.247 --     6 C    1.096     8 C    0.979
     8   6 C    3.933 --     7 O    0.979    36 H    0.977    37 H    0.973
                            35 H    0.973
     9   6 C    3.887 --    12 C    1.378     6 C    1.213    10 O    1.109
    10   8 O    2.251 --     9 C    1.109    11 C    0.977
    11   6 C    3.930 --    39 H    0.977    10 O    0.977    38 H    0.973
                            40 H    0.973
    12   6 C    3.960 --    13 C    1.427     9 C    1.378    41 H    0.963
    13   6 C    3.938 --    12 C    1.427     4 C    1.370    42 H    0.959
    14   6 C    3.854 --     3 C    1.676    44 H    0.975    43 H    0.970
    15   6 C    3.821 --    16 C    1.705    46 H    0.975    45 H    0.974
    16   6 C    3.936 --    15 C    1.705    17 N    1.211    48 H    0.958
    17   7 N    3.369 --    16 C    1.211    30 C    1.006    18 C    1.004
    18   6 C    3.963 --    17 N    1.004    49 H    0.969    50 H    0.967
                            19 C    0.961
    19   6 C    3.973 --    20 C    1.015    52 H    0.973    51 H    0.968
                            18 C    0.961
    20   6 C    3.934 --    21 C    1.394    29 C    1.384    19 C    1.015
    21   6 C    3.936 --    22 C    1.425    20 C    1.394    53 H    0.968
    22   6 C    3.955 --    21 C    1.425    23 C    1.377    54 H    0.963
    23   6 C    3.880 --    22 C    1.377    26 C    1.217    24 O    1.110
    24   8 O    2.247 --    23 C    1.110    25 C    0.976
    25   6 C    3.928 --    57 H    0.977    24 O    0.976    55 H    0.972
                            56 H    0.972
    26   6 C    3.887 --    29 C    1.389    23 C    1.217    27 O    1.106
    27   8 O    2.249 --    26 C    1.106    28 C    0.978
    28   6 C    3.930 --    27 O    0.978    58 H    0.977    59 H    0.973
                            60 H    0.973
    29   6 C    3.954 --    26 C    1.389    20 C    1.384    61 H    0.962
    30   6 C    3.966 --    17 N    1.006    64 H    0.980    62 H    0.967
                            63 H    0.967
    31   6 C    3.359 --    32 C    1.165    33 C    1.107    65 H    0.969
    32   6 C    3.963 --    31 C    1.165    67 H    0.971    68 H    0.947
                            66 H    0.830
    33   6 C    3.981 --    31 C    1.107    69 H    0.976    70 H    0.955
                            71 H    0.917
    34   1 H    0.996 --     5 C    0.957
    35   1 H    0.993 --     8 C    0.973
    36   1 H    0.993 --     8 C    0.977
    37   1 H    0.993 --     8 C    0.973
    38   1 H    0.992 --    11 C    0.973
    39   1 H    0.993 --    11 C    0.977
    40   1 H    0.992 --    11 C    0.973
    41   1 H    0.995 --    12 C    0.963
    42   1 H    0.994 --    13 C    0.959
    43   1 H    0.995 --    14 C    0.970
    44   1 H    0.997 --    14 C    0.975
    45   1 H    0.997 --    15 C    0.974
    46   1 H    0.996 --    15 C    0.975
    47   1 H    0.986 --     2 C    0.940
    48   1 H    0.997 --    16 C    0.958
    49   1 H    0.993 --    18 C    0.969
    50   1 H    0.994 --    18 C    0.967
    51   1 H    0.994 --    19 C    0.968
    52   1 H    0.996 --    19 C    0.973
    53   1 H    0.997 --    21 C    0.968
    54   1 H    0.995 --    22 C    0.963
    55   1 H    0.991 --    25 C    0.972
    56   1 H    0.990 --    25 C    0.972
    57   1 H    0.992 --    25 C    0.977
    58   1 H    0.993 --    28 C    0.977
    59   1 H    0.992 --    28 C    0.973
    60   1 H    0.992 --    28 C    0.973
    61   1 H    0.996 --    29 C    0.962
    62   1 H    0.984 --    30 C    0.967
    63   1 H    0.989 --    30 C    0.967
    64   1 H    0.996 --    30 C    0.980
    65   1 H    0.996 --    31 C    0.969
    66   1 H    0.928 --    32 C    0.830
    67   1 H    0.989 --    32 C    0.971
    68   1 H    0.973 --    32 C    0.947
    69   1 H    0.992 --    33 C    0.976
    70   1 H    0.977 --    33 C    0.955
    71   1 H    0.948 --    33 C    0.917
    72   1 H    0.972 --     1 N    0.948
 ---------------------------------------------------------------------------

molecular dipole:
                 x           y           z       tot (Debye)
 q only:       -0.804       0.983       0.382
   full:       -0.557       1.389       0.144       3.821

           -------------------------------------------------
          | TOTAL ENERGY              -99.311451117010 Eh   |
          | GRADIENT NORM               0.004662486159 Eh/α |
          | HOMO-LUMO GAP               1.091473639533 eV   |
           -------------------------------------------------

 * finished run on 2024/04/06 at 11:13:19.901
