   * xtb version 6.6.1 (8d0f1dd) compiled by 'conda@1efc2f54142f' on 2023-08-01
          program call               : xtb struc.xyz --opt loose --input .xc1 --gfn2

   ID    Z sym.   atoms
    1    6 C      1, 3, 5-7, 10, 11, 14
    2    7 N      2, 4, 9, 13
    3    8 O      8, 12
    4    1 H      15-25
constraining bond 2 15 to    4.0600000 Å, actual value:    2.0850972 Å

          :  Hamiltonian                  GFN2-xTB          :
 * total energy  :   -35.2838528 Eh     change       -0.6650680E-10 Eh
 * total energy  :   -38.3154152 Eh     change       -0.3031562E+01 Eh
 * total energy  :   -40.4895706 Eh     change       -0.2174155E+01 Eh
 * total energy  :   -41.5204172 Eh     change       -0.1030847E+01 Eh
 * total energy  :   -41.8295036 Eh     change       -0.3090864E+00 Eh
 * total energy  :   -41.8668361 Eh     change       -0.3733251E-01 Eh
 * total energy  :   -41.8918712 Eh     change       -0.2503508E-01 Eh
 * total energy  :   -41.9450049 Eh     change       -0.5313368E-01 Eh
 * total energy  :   -41.9733965 Eh     change       -0.2839161E-01 Eh
 * total energy  :   -41.9875658 Eh     change       -0.1416929E-01 Eh
 * total energy  :   -42.1015417 Eh     change       -0.2411909E-02 Eh
 * total energy  :   -42.1023319 Eh     change       -0.7901762E-03 Eh
 * total energy  :   -42.1055906 Eh     change       -0.3258746E-02 Eh
 * total energy  :   -42.1069859 Eh     change       -0.1395290E-02 Eh
 * total energy  :   -42.1075512 Eh     change       -0.5652990E-03 Eh
 * total energy  :   -42.1079480 Eh     change       -0.3967819E-03 Eh
 * total energy  :   -42.1080997 Eh     change       -0.1517072E-03 Eh
 * total energy  :   -42.1081867 Eh     change       -0.8701120E-04 Eh
 * total energy  :   -42.1082311 Eh     change       -0.4433435E-04 Eh
   *** GEOMETRY OPTIMIZATION CONVERGED AFTER 28 ITERATIONS ***

 final structure:
================
25
 xtb: 6.6.1 (8d0f1dd)
C            3.10811908080464        0.99841111105658       -0.21468035066320
N            2.22672188478268        0.00564357945763       -0.15731653584203
C            2.47493839692729       -1.32383960134828       -0.17323747480876
N            1.30235003105308       -2.01376349072075       -0.11298842001761
C            0.28306674280774       -1.11539397780560       -0.05875518705592
C            0.84344566141046        0.15064069045186       -0.08065946000681
C            0.03471427256964        1.34729065967973       -0.05671027959047
O            0.44690377194166        2.48193455094183       -0.07506797017500
N           -1.32658552013957        1.03358488756105       -0.00890004685782
C           -2.27027091628466        2.14228502326627        0.00237176639192
C           -1.90967740757544       -0.21893701596252        0.01644461765718
O           -3.09792809217512       -0.37562520210980        0.05324675693228
N           -1.04011649939683       -1.33295763285514       -0.00458758313003
C           -1.60749878051146       -2.66590905426081        0.02312834515898
H            4.93906577892328        2.45408621409845        1.61228337930469
H            4.15575928117403        0.77374195934486       -0.29291964687293
H            2.74152402094156        2.00822473942053       -0.21135689022569
H            3.44581413804609       -1.77103277284538       -0.21985583146003
H           -1.70435693112036        3.07037585850208        0.02030508696625
H           -2.89936245235772        2.10017642830517       -0.88704504484836
H           -2.91344229932019        2.07084893998909        0.87926162573349
H           -1.28368966681022       -3.20087522589778        0.91635667578386
H           -1.32333830309947       -3.22118385411321       -0.87127052870681
H           -2.69162062072143       -2.55971060096555        0.04510085500185
H            1.22589594222984       -3.01977767158990       -0.11197624076877

          :  Hamiltonian                  GFN2-xTB          :
         :: total energy             -42.108231073812 Eh    ::
         :: gradient norm              0.002695560476 Eh/a0 ::
         :: HOMO-LUMO gap              0.357663665534 eV    ::
         :: SCC energy               -42.631771308379 Eh    ::
         :: -> dispersion             -0.022753088748 Eh    ::
         :: repulsion energy           0.523444763801 Eh    ::

    * Orbital Energies and Occupations

         #    Occupation            Energy/Eh            Energy/eV
      -------------------------------------------------------------
         1        2.0000           -0.9111974             -24.7949
       ...           ...                  ...                  ...
        25        1.9999           -0.6681845             -18.1822
        26        1.9999           -0.6680710             -18.1791
        27        1.9999           -0.6588379             -17.9279
        28        1.9995           -0.6370456             -17.3349
        29        1.9994           -0.6326687             -17.2158
        30        1.9991           -0.6272319             -17.0678
        31        1.9986           -0.6194956             -16.8573
        32        1.9953           -0.6005582             -16.3420
        33        1.9847           -0.5816426             -15.8273
        34        1.9559           -0.5646985             -15.3662
        35        1.9499           -0.5626224             -15.3097
        36        1.9442           -0.5608640             -15.2619
        37        1.2856           -0.5139480             -13.9852 (HOMO)
        38        0.8793           -0.5008041             -13.6276 (LUMO)
        39        0.0055           -0.4112238             -11.1900
        40        0.0031           -0.4020087             -10.9392
        41        0.0004           -0.3686949             -10.0327
        42        0.0000           -0.2869107              -7.8072
        43                         -0.2071386              -5.6365
        44                         -0.1862837              -5.0690
        45                         -0.1444549              -3.9308
        46                         -0.1158147              -3.1515
        47                         -0.0822789              -2.2389
        48                         -0.0499090              -1.3581
       ...                                ...                  ...
        67                          0.5547142              15.0945
      -------------------------------------------------------------
                  HL-Gap            0.0131439 Eh            0.3577 eV

     #   Z          covCN         q      C6AA      α(0)
     1   6 C        2.790    -0.070    29.726     8.931
     2   7 N        2.809     0.130    19.027     6.479
     3   6 C        3.038     0.026    27.392     8.584
     4   7 N        2.780    -0.059    22.370     7.025
     5   6 C        3.022     0.120    25.345     8.258
     6   6 C        3.110    -0.038    28.789     8.790
     7   6 C        2.764     0.275    22.353     7.743
     8   8 O        0.858    -0.356    20.824     6.118
     9   7 N        2.746    -0.081    22.815     7.094
    10   6 C        3.710    -0.062    21.838     6.679
    11   6 C        2.728     0.318    21.594     7.608
    12   8 O        0.860    -0.350    20.701     6.100
    13   7 N        2.738    -0.053    22.264     7.008
    14   6 C        3.696    -0.073    22.074     6.721
    15   1 H        0.000     0.052     5.734     4.378
    16   1 H        0.926     0.109     1.708     2.043
    17   1 H        0.926     0.139     1.466     1.893
    18   1 H        0.927     0.122     1.600     1.978
    19   1 H        0.925     0.116     1.644     2.005
    20   1 H        0.924     0.103     1.760     2.075
    21   1 H        0.925     0.104     1.747     2.067
    22   1 H        0.924     0.086     1.917     2.165
    23   1 H        0.924     0.085     1.927     2.171
    24   1 H        0.925     0.129     1.541     1.941
    25   1 H        0.860     0.228     0.973     1.545

Wiberg/Mayer (AO) data.
largest (>0.10) Wiberg bond orders for each atom

     #   Z sym  total        # sym  WBO       # sym  WBO       # sym  WBO
 ---------------------------------------------------------------------------
     1   6 C    3.411 --     2 N    1.329    16 H    0.965    17 H    0.956
     2   7 N    3.764 --     1 C    1.329     3 C    1.248     6 C    1.089
     3   6 C    3.644 --     2 N    1.248     4 N    1.240    18 H    0.955
     4   7 N    3.527 --     3 C    1.240     5 C    1.194    25 H    0.920
     5   6 C    3.939 --     6 C    1.349    13 N    1.219     4 N    1.194
     6   6 C    3.846 --     5 C    1.349     2 N    1.089     7 C    1.085
     7   6 C    3.959 --     8 O    1.688     9 N    1.092     6 C    1.085
     8   8 O    2.021 --     7 C    1.688     9 N    0.139
     9   7 N    3.531 --    11 C    1.127     7 C    1.092    10 C    0.972
                             8 O    0.139    12 O    0.134
    10   6 C    3.898 --     9 N    0.972    19 H    0.965    21 H    0.958
                            20 H    0.957
    11   6 C    3.958 --    12 O    1.706     9 N    1.127    13 N    1.034
    12   8 O    2.046 --    11 C    1.706     9 N    0.134    13 N    0.118
    13   7 N    3.532 --     5 C    1.219    11 C    1.034    14 C    0.975
                            12 O    0.118
    14   6 C    3.919 --    13 N    0.975    23 H    0.968    22 H    0.968
                            24 H    0.963
    15   1 H    0.027
    16   1 H    0.987 --     1 C    0.965
    17   1 H    0.980 --     1 C    0.956
    18   1 H    0.984 --     3 C    0.955
    19   1 H    0.983 --    10 C    0.965
    20   1 H    0.976 --    10 C    0.957
    21   1 H    0.977 --    10 C    0.958
    22   1 H    0.986 --    14 C    0.968
    23   1 H    0.986 --    14 C    0.968
    24   1 H    0.982 --    14 C    0.963
    25   1 H    0.947 --     4 N    0.920
 ---------------------------------------------------------------------------

molecular dipole:
                 x           y           z       tot (Debye)
 q only:        2.315      -1.956      -0.052
   full:        2.595      -2.426      -0.065       9.031

           -------------------------------------------------
          | TOTAL ENERGY              -42.108231073812 Eh   |
          | GRADIENT NORM               0.002695560476 Eh/α |
          | HOMO-LUMO GAP               0.357663665534 eV   |
           -------------------------------------------------

 * finished run on 2024/06/05 at 19:57:52.093
