   * xtb version 6.6.1 (8d0f1dd) compiled by 'conda@1efc2f54142f' on 2023-08-01
          program call               : xtb xtbopt.xyz --opt crude --input .xc2 --gfn2

   ID    Z sym.   atoms
    1    6 C      1, 3, 5-7, 10, 11, 14
    2    7 N      2, 4, 9, 13
    3    8 O      8, 12
    4    1 H      15-25

          :  Hamiltonian                  GFN2-xTB          :
 * total energy  :   -42.1177528 Eh     change       -0.4263256E-11 Eh
   *** GEOMETRY OPTIMIZATION CONVERGED AFTER 1 ITERATIONS ***

 final structure:
================
25
 xtb: 6.6.1 (8d0f1dd)
C            3.42844252442687        0.91488803254013        0.06294506107139
N            2.50044832084951       -0.18261377155178       -0.00198071830880
C            2.78542453991084       -1.46723643071324       -0.14517335482363
N            1.64685309130171       -2.19474869961999       -0.12932320904295
C            0.59592797584676       -1.33239786596611        0.03069356059703
C            1.14395315171298       -0.05814981134975        0.11384084264170
C            0.26660021102417        1.12555237737921        0.23083189322108
O            0.70313113196980        2.25990231389905        0.24513775182962
N           -1.02704123085957        0.78433661857721        0.29167265581671
C           -3.62658866642476        3.66063833912815       -0.29014296741123
C           -1.59660126790822       -0.40969126540362        0.24796101240967
O           -2.77740300417743       -0.62445818543309        0.30818731669009
N           -0.71194235904224       -1.57695718947215        0.09686967657085
C           -1.28790692303261       -2.89701723114428        0.02807330212124
H            3.96552846917808        0.90037673021912        1.01274175831621
H            4.14971475362574        0.85437620648878       -0.75098917773567
H            2.86370382361285        1.84624028650874       -0.00555351358578
H            3.77007663073873       -1.87798055552317       -0.25662487127151
H           -2.78492239414191        4.32668107201611       -0.27957977156788
H           -4.00046747118365        3.27535093774935       -1.21881304862898
H           -4.08115336896979        3.35879495153146        0.63297700081026
H           -0.96179495914872       -3.50776523528861        0.87277607614577
H           -1.02656964652872       -3.38763900934221       -0.91129665942329
H           -2.37101717578962       -2.77434284873149        0.07890277164105
H            1.59403535710947       -3.19790122489778       -0.23296177018300

          :  Hamiltonian                  GFN2-xTB          :
         :: total energy             -42.117752806707 Eh    ::
         :: gradient norm              0.003336340975 Eh/a0 ::
         :: HOMO-LUMO gap              1.020803040030 eV    ::
         :: SCC energy               -42.649708532598 Eh    ::
         :: -> dispersion             -0.020556216565 Eh    ::
         :: repulsion energy           0.531908273759 Eh    ::

    * Orbital Energies and Occupations

         #    Occupation            Energy/Eh            Energy/eV
      -------------------------------------------------------------
         1        2.0000           -0.9093602             -24.7450
       ...           ...                  ...                  ...
        25        1.9998           -0.6523256             -17.7507
        26        1.9998           -0.6448157             -17.5463
        27        1.9994           -0.6300482             -17.1445
        28        1.9985           -0.6166668             -16.7804
        29        1.9984           -0.6155221             -16.7492
        30        1.9982           -0.6137994             -16.7023
        31        1.9982           -0.6130566             -16.6821
        32        1.9980           -0.6120799             -16.6555
        33        1.9694           -0.5683569             -15.4658
        34        1.9056           -0.5499848             -14.9658
        35        1.9025           -0.5494429             -14.9511
        36        1.8620           -0.5436021             -14.7922
        37        1.6850           -0.5289472             -14.3934 (HOMO)
        38        0.6670           -0.4914333             -13.3726 (LUMO)
        39        0.0167           -0.4267414             -11.6122
        40        0.0013           -0.3861235             -10.5070
        41        0.0002           -0.3564358              -9.6991
        42        0.0000           -0.2598922              -7.0720
        43                         -0.1945131              -5.2930
        44                         -0.1731670              -4.7121
        45                         -0.1381661              -3.7597
        46                         -0.0803301              -2.1859
        47                         -0.0550942              -1.4992
        48                         -0.0350002              -0.9524
       ...                                ...                  ...
        67                          0.5711333              15.5413
      -------------------------------------------------------------
                  HL-Gap            0.0375138 Eh            1.0208 eV

     #   Z          covCN         q      C6AA      α(0)
     1   6 C        3.692    -0.094    22.491     6.786
     2   7 N        2.835     0.090    19.689     6.590
     3   6 C        3.061     0.056    26.684     8.471
     4   7 N        2.799    -0.064    22.481     7.042
     5   6 C        3.032     0.123    25.268     8.245
     6   6 C        3.134    -0.017    28.217     8.695
     7   6 C        2.762     0.298    21.938     7.670
     8   8 O        0.858    -0.345    20.615     6.088
     9   7 N        1.843    -0.246    27.261     7.738
    10   6 C        2.779    -0.066    29.635     8.916
    11   6 C        2.708     0.337    21.267     7.548
    12   8 O        0.860    -0.337    20.467     6.066
    13   7 N        2.735    -0.071    22.614     7.063
    14   6 C        3.692    -0.066    21.961     6.705
    15   1 H        0.924     0.111     1.690     2.033
    16   1 H        0.925     0.106     1.734     2.059
    17   1 H        0.924     0.141     1.454     1.886
    18   1 H        0.926     0.125     1.574     1.962
    19   1 H        0.926     0.135     1.497     1.914
    20   1 H        0.926     0.132     1.519     1.927
    21   1 H        0.926     0.136     1.491     1.910
    22   1 H        0.924     0.082     1.959     2.189
    23   1 H        0.924     0.080     1.984     2.203
    24   1 H        0.924     0.127     1.555     1.950
    25   1 H        0.860     0.229     0.969     1.542

Wiberg/Mayer (AO) data.
largest (>0.10) Wiberg bond orders for each atom

     #   Z sym  total        # sym  WBO       # sym  WBO       # sym  WBO
 ---------------------------------------------------------------------------
     1   6 C    3.908 --     2 N    0.984    16 H    0.964    17 H    0.955
                            15 H    0.954
     2   7 N    3.717 --     3 C    1.406     6 C    1.182     1 C    0.984
     3   6 C    3.884 --     2 N    1.406     4 N    1.283    18 H    0.952
     4   7 N    3.590 --     3 C    1.283     5 C    1.172    25 H    0.919
     5   6 C    3.951 --     6 C    1.335    13 N    1.269     4 N    1.172
     6   6 C    3.807 --     5 C    1.335     2 N    1.182     7 C    0.992
     7   6 C    3.947 --     8 O    1.633     9 N    1.241     6 C    0.992
     8   8 O    1.926 --     7 C    1.633     9 N    0.133
     9   7 N    2.864 --    11 C    1.281     7 C    1.241     8 O    0.133
                            12 O    0.114
    10   6 C    2.938 --    20 H    0.980    19 H    0.979    21 H    0.979
    11   6 C    3.946 --    12 O    1.677     9 N    1.281    13 N    0.908
    12   8 O    1.975 --    11 C    1.677     9 N    0.114
    13   7 N    3.460 --     5 C    1.269    14 C    0.987    11 C    0.908
    14   6 C    3.917 --    13 N    0.987    23 H    0.964    22 H    0.963
                            24 H    0.959
    15   1 H    0.986 --     1 C    0.954
    16   1 H    0.987 --     1 C    0.964
    17   1 H    0.979 --     1 C    0.955
    18   1 H    0.983 --     3 C    0.952
    19   1 H    0.981 --    10 C    0.979
    20   1 H    0.981 --    10 C    0.980
    21   1 H    0.980 --    10 C    0.979
    22   1 H    0.981 --    14 C    0.963
    23   1 H    0.982 --    14 C    0.964
    24   1 H    0.981 --    14 C    0.959
    25   1 H    0.947 --     4 N    0.919
 ---------------------------------------------------------------------------

molecular dipole:
                 x           y           z       tot (Debye)
 q only:        2.015      -1.257      -0.488
   full:        2.460      -1.945      -0.555       8.094

           -------------------------------------------------
          | TOTAL ENERGY              -42.117752806707 Eh   |
          | GRADIENT NORM               0.003336340975 Eh/α |
          | HOMO-LUMO GAP               1.020803040030 eV   |
           -------------------------------------------------

 * finished run on 2024/06/05 at 19:58:03.056
