   * xtb version 6.6.1 (8d0f1dd) compiled by 'conda@1efc2f54142f' on 2023-08-01
          program call               : xtb struc.xyz --opt loose --input .xc1 --gfn2

   ID    Z sym.   atoms
    1    6 C      1, 3, 5-7, 10, 11, 14
    2    7 N      2, 4, 9, 13
    3    8 O      8, 12
    4    1 H      15-25
constraining bond 5 25 to    4.1400000 Å, actual value:    2.1289605 Å

          :  Hamiltonian                  GFN2-xTB          :
 * total energy  :   -35.0266672 Eh     change       -0.6650680E-10 Eh
 * total energy  :   -38.0745138 Eh     change       -0.3047847E+01 Eh
 * total energy  :   -40.3833415 Eh     change       -0.2308828E+01 Eh
 * total energy  :   -41.5205763 Eh     change       -0.1137235E+01 Eh
 * total energy  :   -41.8267214 Eh     change       -0.3061451E+00 Eh
 * total energy  :   -41.8548010 Eh     change       -0.2807963E-01 Eh
 * total energy  :   -41.8706641 Eh     change       -0.1586313E-01 Eh
 * total energy  :   -41.9078790 Eh     change       -0.3721485E-01 Eh
 * total energy  :   -41.9437864 Eh     change       -0.3590742E-01 Eh
 * total energy  :   -41.9669657 Eh     change       -0.2317935E-01 Eh
 * total energy  :   -42.1201745 Eh     change       -0.5822377E-02 Eh
 * total energy  :   -42.1225121 Eh     change       -0.2337609E-02 Eh
 * total energy  :   -42.1231524 Eh     change       -0.6402424E-03 Eh
 * total energy  :   -42.1266412 Eh     change       -0.3488892E-02 Eh
 * total energy  :   -42.1310337 Eh     change       -0.4392497E-02 Eh
 * total energy  :   -42.1319092 Eh     change       -0.8754448E-03 Eh
 * total energy  :   -42.1320422 Eh     change       -0.1330053E-03 Eh
 * total energy  :   -42.1321336 Eh     change       -0.9144780E-04 Eh
 * total energy  :   -42.1321637 Eh     change       -0.3003276E-04 Eh
   *** GEOMETRY OPTIMIZATION CONVERGED AFTER 26 ITERATIONS ***

 final structure:
================
25
 xtb: 6.6.1 (8d0f1dd)
C            3.20129909410093        1.16810060045867        0.01837473861467
N            2.20663450630446        0.13315417131362        0.00099523848290
C            2.42129407983247       -1.20260216484358       -0.00391402424346
N            1.30949518060027       -1.90364026078167       -0.00408326210620
C            0.30911088963482       -0.99603903109107        0.00196731738803
C            0.85445260030321        0.29774419458232        0.00615827161111
C            0.02493789320377        1.47808521587541       -0.00217829486629
O            0.42074306042269        2.62164896775662       -0.01405525153651
N           -1.33033780045052        1.14904201352927        0.00175287394807
C           -2.28573073916288        2.24213806231943       -0.00221335257167
C           -1.89217759166092       -0.12280728848030        0.00369034611747
O           -3.08497516814592       -0.27917394107452        0.00546282303459
N           -1.01838654800642       -1.21611536328986        0.00227729103990
C           -1.55802068741988       -2.55396513299823       -0.00077870542863
H            3.70955703575521        1.18637505202513        0.98472152344285
H            3.94219242054858        0.98774653033667       -0.76064776078117
H            2.71961652066042        2.13148793882334       -0.14581038794545
H            3.39828027317077       -1.64536812199892       -0.00837305829512
H           -1.73354870105355        3.18016886986981        0.00504974516788
H           -2.91858741674862        2.18231993578572       -0.88947117273949
H           -2.93254308326721        2.17540652625886        0.87426336823046
H           -1.20676911187065       -3.09662720244126        0.87744935379472
H           -1.22326877861667       -3.08651068788737       -0.89173982731340
H           -2.64482611556402       -2.48647189128609        0.00910805530557
H            2.47198970152967       -4.52585845116198       -0.03683423045081

          :  Hamiltonian                  GFN2-xTB          :
         :: total energy             -42.132163675908 Eh    ::
         :: gradient norm              0.002238453966 Eh/a0 ::
         :: HOMO-LUMO gap              0.706726409716 eV    ::
         :: SCC energy               -42.643754238862 Eh    ::
         :: -> dispersion             -0.022446952622 Eh    ::
         :: repulsion energy           0.511497414869 Eh    ::

    * Orbital Energies and Occupations

         #    Occupation            Energy/Eh            Energy/eV
      -------------------------------------------------------------
         1        2.0000           -0.8928679             -24.2962
       ...           ...                  ...                  ...
        25        1.9996           -0.6674923             -18.1634
        26        1.9991           -0.6569512             -17.8766
        27        1.9982           -0.6456539             -17.5691
        28        1.9976           -0.6408312             -17.4379
        29        1.9943           -0.6270208             -17.0621
        30        1.9890           -0.6165057             -16.7760
        31        1.9870           -0.6138983             -16.7050
        32        1.9779           -0.6054206             -16.4743
        33        1.9646           -0.5978764             -16.2690
        34        1.9174           -0.5840672             -15.8933
        35        1.8832           -0.5782944             -15.7362
        36        1.8787           -0.5776513             -15.7187
        37        1.5748           -0.5549996             -15.1023 (HOMO)
        38        0.8361           -0.5290278             -14.3956 (LUMO)
        39        0.0030           -0.4311252             -11.7315
        40        0.0002           -0.3895577             -10.6004
        41        0.0001           -0.3740177             -10.1775
        42        0.0000           -0.2949568              -8.0262
        43                         -0.2059904              -5.6053
        44                         -0.1583776              -4.3097
        45                         -0.1374426              -3.7400
        46                         -0.0792304              -2.1560
        47                         -0.0587276              -1.5981
        48                         -0.0384189              -1.0454
       ...                                ...                  ...
        67                          0.5353986              14.5689
      -------------------------------------------------------------
                  HL-Gap            0.0259717 Eh            0.7067 eV

     #   Z          covCN         q      C6AA      α(0)
     1   6 C        3.689    -0.082    22.269     6.754
     2   7 N        2.829     0.052    20.332     6.697
     3   6 C        3.185     0.096    25.441     8.231
     4   7 N        1.898    -0.209    26.378     7.614
     5   6 C        3.164     0.134    24.768     8.134
     6   6 C        3.120    -0.007    28.015     8.669
     7   6 C        2.764     0.274    22.371     7.746
     8   8 O        0.858    -0.331    20.341     6.047
     9   7 N        2.746    -0.069    22.571     7.056
    10   6 C        3.708    -0.062    21.843     6.680
    11   6 C        2.728     0.317    21.614     7.611
    12   8 O        0.860    -0.330    20.327     6.045
    13   7 N        2.739    -0.018    21.598     6.902
    14   6 C        3.700    -0.073    22.062     6.717
    15   1 H        0.924     0.110     1.699     2.039
    16   1 H        0.925     0.107     1.723     2.053
    17   1 H        0.925     0.126     1.567     1.958
    18   1 H        0.926     0.108     1.717     2.049
    19   1 H        0.925     0.123     1.592     1.973
    20   1 H        0.924     0.115     1.652     2.010
    21   1 H        0.924     0.116     1.649     2.008
    22   1 H        0.924     0.113     1.671     2.021
    23   1 H        0.924     0.113     1.670     2.021
    24   1 H        0.925     0.128     1.553     1.949
    25   1 H        0.000     0.150     3.469     3.406

Wiberg/Mayer (AO) data.
largest (>0.10) Wiberg bond orders for each atom

     #   Z sym  total        # sym  WBO       # sym  WBO       # sym  WBO
 ---------------------------------------------------------------------------
     1   6 C    3.904 --     2 N    0.994    17 H    0.960    16 H    0.957
                            15 H    0.948
     2   7 N    3.638 --     3 C    1.270     6 C    1.216     1 C    0.994
     3   6 C    3.870 --     4 N    1.486     2 N    1.270    18 H    0.955
     4   7 N    2.969 --     3 C    1.486     5 C    1.266
     5   6 C    3.900 --     4 N    1.266     6 C    1.256    13 N    1.208
     6   6 C    3.797 --     5 C    1.256     2 N    1.216     7 C    1.075
     7   6 C    3.946 --     8 O    1.673     9 N    1.101     6 C    1.075
     8   8 O    1.961 --     7 C    1.673     9 N    0.127
     9   7 N    3.501 --    11 C    1.106     7 C    1.101    10 C    0.980
                             8 O    0.127    12 O    0.117
    10   6 C    3.868 --     9 N    0.980    19 H    0.959    21 H    0.943
                            20 H    0.943
    11   6 C    3.951 --    12 O    1.685     9 N    1.106    13 N    1.069
    12   8 O    1.974 --    11 C    1.685     9 N    0.117    13 N    0.101
    13   7 N    3.483 --     5 C    1.208    11 C    1.069    14 C    0.983
                            12 O    0.101
    14   6 C    3.885 --    13 N    0.983    24 H    0.962    22 H    0.947
                            23 H    0.946
    15   1 H    0.974 --     1 C    0.948
    16   1 H    0.978 --     1 C    0.957
    17   1 H    0.978 --     1 C    0.960
    18   1 H    0.986 --     3 C    0.955
    19   1 H    0.978 --    10 C    0.959
    20   1 H    0.960 --    10 C    0.943
    21   1 H    0.961 --    10 C    0.943
    22   1 H    0.963 --    14 C    0.947
    23   1 H    0.963 --    14 C    0.946
    24   1 H    0.980 --    14 C    0.962
    25   1 H    0.015
 ---------------------------------------------------------------------------

molecular dipole:
                 x           y           z       tot (Debye)
 q only:        1.708      -1.581       0.006
   full:        1.979      -1.462       0.012       6.255

           -------------------------------------------------
          | TOTAL ENERGY              -42.132163675908 Eh   |
          | GRADIENT NORM               0.002238453966 Eh/α |
          | HOMO-LUMO GAP               0.706726409716 eV   |
           -------------------------------------------------

 * finished run on 2024/06/05 at 19:57:59.327
