   * xtb version 6.6.1 (8d0f1dd) compiled by 'conda@1efc2f54142f' on 2023-08-01
          program call               : xtb xtbopt.xyz --opt crude --input .xc2 --gfn2

   ID    Z sym.   atoms
    1    6 C      1, 3, 5-7, 10, 11, 14
    2    7 N      2, 4, 9, 13
    3    8 O      8, 12
    4    1 H      15-25
########################################################################
[WARNING] Please study the warnings concerning your input carefully
-1- readin_getIntValue: could not parse ''
########################################################################

          :  Hamiltonian                  GFN2-xTB          :
 * total energy  :   -42.0982517 Eh     change       -0.1428191E-11 Eh
   *** GEOMETRY OPTIMIZATION CONVERGED AFTER 1 ITERATIONS ***

 final structure:
================
25
 xtb: 6.6.1 (8d0f1dd)
C            3.79572034775924        0.74120766887920        0.49496555853808
N            2.50465631685259        0.45433934041909        0.28196072269877
C            2.18287286196912       -0.82290185561122       -0.04212314847822
N            0.93571392725983       -1.32977730894850       -0.23609976670896
C           -0.27411787460237       -0.77428112335313       -0.48216130786124
C            1.58744019702499        1.46514097489870        0.44605301316194
C            0.24219219113505        1.60046995996893        0.07606254617707
O           -0.35942709692566        2.65272432544365        0.27405039853788
N           -0.50204756622551        0.56285289666832       -0.58554384513641
C           -1.75247087596635        1.00846398522852       -1.17443952128617
C           -1.78976994149537       -1.03345035593706        1.72918100476484
O           -1.80043597757220       -0.62027776475383        2.82394467650443
N           -2.22472443847722       -1.63689531868707        0.68440232557407
C           -1.42938124323040       -1.72813756199570       -0.56032185360499
H            4.08064647542053        1.74040021782374        0.75443068947920
H            4.53731813023788       -0.02711720833923        0.40178286557169
H            1.99082280907843        2.37309514976035        0.86630753033687
H            2.98705980202661       -1.53621877951432       -0.07137069370173
H           -1.70278125222680        2.09505341767869       -1.25146289429282
H           -1.86733428373007        0.58287607401758       -2.17129799618462
H           -2.61658647456884        0.76438052212984       -0.55314215833831
H           -1.07635468745103       -2.75801536982222       -0.67732678929488
H           -2.09576318867430       -1.50279359564102       -1.39668614111321
H           -3.13321486318616       -2.11035825158238        0.67639147438674
H            0.94039821966707       -2.34254149713177       -0.27638507182986

          :  Hamiltonian                  GFN2-xTB          :
         :: total energy             -42.098251705849 Eh    ::
         :: gradient norm              0.002584874155 Eh/a0 ::
         :: HOMO-LUMO gap              1.273555265704 eV    ::
         :: SCC energy               -42.627271453352 Eh    ::
         :: -> dispersion             -0.022891857732 Eh    ::
         :: repulsion energy           0.528760057912 Eh    ::

    * Orbital Energies and Occupations

         #    Occupation            Energy/Eh            Energy/eV
      -------------------------------------------------------------
         1        2.0000           -0.9073436             -24.6901
       ...           ...                  ...                  ...
        25        1.9996           -0.6730369             -18.3143
        26        1.9996           -0.6702031             -18.2372
        27        1.9993           -0.6571658             -17.8824
        28        1.9984           -0.6374792             -17.3467
        29        1.9983           -0.6355095             -17.2931
        30        1.9969           -0.6212634             -16.9054
        31        1.9961           -0.6160613             -16.7639
        32        1.9948           -0.6089882             -16.5714
        33        1.9933           -0.6029156             -16.4062
        34        1.9816           -0.5788325             -15.7508
        35        1.9205           -0.5433860             -14.7863
        36        1.6066           -0.5011558             -13.6371
        37        1.4762           -0.4923416             -13.3973 (HOMO)
        38        0.5640           -0.4455393             -12.1237 (LUMO)
        39        0.4117           -0.4356702             -11.8552
        40        0.0391           -0.3747304             -10.1969
        41        0.0235           -0.3624677              -9.8632
        42        0.0015           -0.2971882              -8.0869
        43        0.0000           -0.2050388              -5.5794
        44        0.0000           -0.1873197              -5.0972
        45        0.0000           -0.1413616              -3.8466
        46        0.0000           -0.1214476              -3.3048
        47        0.0000           -0.0919077              -2.5009
        48        0.0000           -0.0785479              -2.1374
       ...           ...                  ...                  ...
        67                          0.8027053              21.8427
      -------------------------------------------------------------
                  HL-Gap            0.0468023 Eh            1.2736 eV

     #   Z          covCN         q      C6AA      α(0)
     1   6 C        2.854    -0.081    30.016     8.980
     2   7 N        2.731     0.119    19.200     6.508
     3   6 C        2.813     0.001    27.986     8.667
     4   7 N        2.688    -0.073    22.652     7.069
     5   6 C        2.822     0.075    26.317     8.406
     6   6 C        2.877    -0.076    29.886     8.962
     7   6 C        2.760     0.247    22.863     7.830
     8   8 O        0.862    -0.371    21.111     6.160
     9   7 N        2.732    -0.057    22.339     7.020
    10   6 C        3.705    -0.070    21.989     6.704
    11   6 C        1.779     0.252    25.390     8.145
    12   8 O        0.856    -0.167    17.540     5.615
    13   7 N        2.679    -0.096    23.125     7.142
    14   6 C        3.750    -0.030    21.165     6.561
    15   1 H        0.926     0.105     1.742     2.064
    16   1 H        0.926     0.091     1.871     2.139
    17   1 H        0.926     0.107     1.726     2.055
    18   1 H        0.926     0.090     1.878     2.143
    19   1 H        0.924     0.128     1.550     1.947
    20   1 H        0.925     0.076     2.018     2.222
    21   1 H        0.924     0.072     2.066     2.248
    22   1 H        0.924     0.092     1.862     2.134
    23   1 H        0.924     0.114     1.667     2.019
    24   1 H        0.859     0.233     0.954     1.530
    25   1 H        0.860     0.219     1.013     1.577

Wiberg/Mayer (AO) data.
largest (>0.10) Wiberg bond orders for each atom

     #   Z sym  total        # sym  WBO       # sym  WBO       # sym  WBO
 ---------------------------------------------------------------------------
     1   6 C    3.439 --     2 N    1.311    16 H    0.969    15 H    0.967
     2   7 N    3.701 --     1 C    1.311     3 C    1.192     6 C    1.128
     3   6 C    3.568 --     4 N    1.194     2 N    1.192    18 H    0.955
     4   7 N    3.487 --     5 C    1.221     3 C    1.194    25 H    0.917
     5   6 C    3.641 --     4 N    1.221     9 N    1.213    14 C    1.010
     6   6 C    3.541 --     7 C    1.258     2 N    1.128    17 H    0.949
     7   6 C    3.876 --     8 O    1.573     6 C    1.258     9 N    0.969
     8   8 O    1.812 --     7 C    1.573
     9   7 N    3.388 --     5 C    1.213    10 C    0.987     7 C    0.969
    10   6 C    3.921 --     9 N    0.987    20 H    0.967    21 H    0.964
                            19 H    0.956
    11   6 C    3.425 --    12 O    1.958    13 N    1.431
    12   8 O    2.183 --    11 C    1.958    13 N    0.187
    13   7 N    3.452 --    11 C    1.431    14 C    0.934    24 H    0.875
                            12 O    0.187
    14   6 C    3.921 --     5 C    1.010    22 H    0.956    23 H    0.948
                            13 N    0.934
    15   1 H    0.987 --     1 C    0.967
    16   1 H    0.989 --     1 C    0.969
    17   1 H    0.985 --     6 C    0.949
    18   1 H    0.990 --     3 C    0.955
    19   1 H    0.979 --    10 C    0.956
    20   1 H    0.984 --    10 C    0.967
    21   1 H    0.980 --    10 C    0.964
    22   1 H    0.989 --    14 C    0.956
    23   1 H    0.979 --    14 C    0.948
    24   1 H    0.895 --    13 N    0.875
    25   1 H    0.951 --     4 N    0.917
 ---------------------------------------------------------------------------

molecular dipole:
                 x           y           z       tot (Debye)
 q only:        0.283      -2.807      -0.756
   full:        0.194      -3.320      -0.827       8.710

           -------------------------------------------------
          | TOTAL ENERGY              -42.098251705849 Eh   |
          | GRADIENT NORM               0.002584874155 Eh/α |
          | HOMO-LUMO GAP               1.273555265704 eV   |
           -------------------------------------------------

 * finished run on 2024/06/05 at 19:58:50.786
