   * xtb version 6.6.1 (8d0f1dd) compiled by 'conda@1efc2f54142f' on 2023-08-01
          program call               : xtb struc.xyz --opt loose --input .xc1 --gfn2

   ID    Z sym.   atoms
    1    6 C      1, 3, 5-7, 10, 11, 14
    2    7 N      2, 4, 9, 13
    3    8 O      8, 12
    4    1 H      15-25
constraining bond 6 10 to    6.0000000 Å, actual value:    3.7045483 Å

          :  Hamiltonian                  GFN2-xTB          :
 * total energy  :   -23.4315703 Eh     change       -0.6650680E-10 Eh
 * total energy  :   -31.9485004 Eh     change       -0.8516930E+01 Eh
 * total energy  :   -37.2199763 Eh     change       -0.5271476E+01 Eh
 * total energy  :   -40.2274872 Eh     change       -0.3007511E+01 Eh
 * total energy  :   -41.3218830 Eh     change       -0.1094396E+01 Eh
 * total energy  :   -41.4876991 Eh     change       -0.1658161E+00 Eh
 * total energy  :   -41.5470318 Eh     change       -0.5933274E-01 Eh
 * total energy  :   -41.6254996 Eh     change       -0.7846774E-01 Eh
 * total energy  :   -41.6788613 Eh     change       -0.5336175E-01 Eh
 * total energy  :   -41.7165777 Eh     change       -0.3771635E-01 Eh
 * total energy  :   -42.1372850 Eh     change       -0.1381043E-02 Eh
 * total energy  :   -42.1376245 Eh     change       -0.3395679E-03 Eh
 * total energy  :   -42.1379252 Eh     change       -0.3007068E-03 Eh
 * total energy  :   -42.1382395 Eh     change       -0.3142275E-03 Eh
 * total energy  :   -42.1384990 Eh     change       -0.2595127E-03 Eh
 * total energy  :   -42.1387057 Eh     change       -0.2067435E-03 Eh
 * total energy  :   -42.1388204 Eh     change       -0.1146578E-03 Eh
 * total energy  :   -42.1388581 Eh     change       -0.3771895E-04 Eh
 * total energy  :   -42.1388787 Eh     change       -0.2060744E-04 Eh
   *** GEOMETRY OPTIMIZATION CONVERGED AFTER 76 ITERATIONS ***

 final structure:
================
25
 xtb: 6.6.1 (8d0f1dd)
C            4.06361596757642        0.37982642482614        0.07519802966013
N            2.81137866978669       -0.32672709984596        0.04352815243054
C            2.61390154445608       -1.64310408442958        0.02965889302434
N            1.28745984151581       -1.91086027117147        0.00664992837853
C            0.60333763134248       -0.72374493101405        0.00709715887805
C            1.59985240002751        0.27033873405064        0.03158355880714
C            0.93566682462621        1.65414655443471        0.01569583770948
O            1.58572740062113        2.66571293020239        0.01309914886734
N           -0.46000013579320        1.68905660219359        0.00143222847396
C           -4.24337520416218        1.54902526602020       -0.04963183805835
C           -1.33908635100378        0.74047732478437       -0.01567279288875
O           -2.66321987894237        0.72699380966968       -0.03411217167961
N           -0.76518003410916       -0.58676233391378       -0.01806467009148
C           -1.58386082852819       -1.78509830041286       -0.04463050922835
H            4.62198837260631        0.12444879919243        0.97630343735872
H            4.66715003874887        0.12511194129404       -0.79617144336025
H            3.85491869251728        1.44921961782072        0.07031988378025
H            3.38578248901737       -2.38623714060693        0.03475356456684
H           -4.02552226098147        2.60242614071966        0.03649552726668
H           -4.59652491078336        1.20721560871486       -1.00902594605446
H           -4.66816393702833        1.07434347575172        0.81949198579358
H           -1.43107826392377       -2.37851538077008        0.85893843301613
H           -1.36204708752440       -2.38520348540816       -0.92899812929753
H           -2.62462491921069       -1.47385380270508       -0.08612481487207
H            0.89233545324428       -2.83999785778821       -0.00664183455481

          :  Hamiltonian                  GFN2-xTB          :
         :: total energy             -42.138878706760 Eh    ::
         :: gradient norm              0.001969128361 Eh/a0 ::
         :: HOMO-LUMO gap              2.772221772313 eV    ::
         :: SCC energy               -42.633588337311 Eh    ::
         :: -> dispersion             -0.021330770371 Eh    ::
         :: repulsion energy           0.493541058493 Eh    ::

    * Orbital Energies and Occupations

         #    Occupation            Energy/Eh            Energy/eV
      -------------------------------------------------------------
         1        2.0000           -0.8968834             -24.4054
       ...           ...                  ...                  ...
        25        2.0000           -0.6592831             -17.9400
        26        2.0000           -0.6427630             -17.4905
        27        1.9999           -0.6357632             -17.3000
        28        1.9999           -0.6319572             -17.1964
        29        1.9999           -0.6274517             -17.0738
        30        1.9999           -0.6215602             -16.9135
        31        1.9997           -0.6098586             -16.5951
        32        1.9996           -0.6058402             -16.4858
        33        1.9993           -0.5955015             -16.2044
        34        1.9932           -0.5595650             -15.2265
        35        1.9785           -0.5412845             -14.7291
        36        1.9716           -0.5368121             -14.6074
        37        1.9240           -0.5208550             -14.1732 (HOMO)
        38        0.0782           -0.4189777             -11.4010 (LUMO)
        39        0.0440           -0.4095875             -11.1454
        40        0.0078           -0.3818354             -10.3903
        41        0.0046           -0.3734553             -10.1622
        42        0.0000           -0.2714765              -7.3873
        43                         -0.1895092              -5.1568
        44                         -0.1808258              -4.9205
        45                         -0.1698944              -4.6231
        46                         -0.0973647              -2.6494
        47                         -0.0645074              -1.7553
        48                         -0.0419818              -1.1424
       ...                                ...                  ...
        67                          0.5482007              14.9173
      -------------------------------------------------------------
                  HL-Gap            0.1018773 Eh            2.7722 eV

     #   Z          covCN         q      C6AA      α(0)
     1   6 C        3.693    -0.089    22.391     6.771
     2   7 N        2.819     0.094    19.610     6.577
     3   6 C        3.067     0.045    26.918     8.507
     4   7 N        2.797    -0.064    22.482     7.042
     5   6 C        3.015     0.108    25.602     8.300
     6   6 C        3.133    -0.024    28.391     8.722
     7   6 C        2.764     0.295    22.005     7.682
     8   8 O        0.858    -0.325    20.232     6.031
     9   7 N        1.835    -0.270    27.869     7.823
    10   6 C        3.319     0.005    25.791     8.088
    11   6 C        2.693     0.321    21.544     7.597
    12   8 O        1.397    -0.321    19.660     5.971
    13   7 N        2.739    -0.065    22.491     7.044
    14   6 C        3.694    -0.068    21.989     6.709
    15   1 H        0.924     0.105     1.741     2.063
    16   1 H        0.925     0.105     1.741     2.063
    17   1 H        0.925     0.131     1.525     1.931
    18   1 H        0.926     0.118     1.627     1.995
    19   1 H        0.926     0.137     1.480     1.903
    20   1 H        0.926     0.139     1.468     1.895
    21   1 H        0.926     0.139     1.466     1.894
    22   1 H        0.924     0.075     2.034     2.231
    23   1 H        0.924     0.074     2.042     2.234
    24   1 H        0.925     0.112     1.681     2.028
    25   1 H        0.860     0.223     0.997     1.564

Wiberg/Mayer (AO) data.
largest (>0.10) Wiberg bond orders for each atom

     #   Z sym  total        # sym  WBO       # sym  WBO       # sym  WBO
 ---------------------------------------------------------------------------
     1   6 C    3.920 --     2 N    0.985    17 H    0.967    16 H    0.961
                            15 H    0.961
     2   7 N    3.700 --     3 C    1.371     6 C    1.206     1 C    0.985
     3   6 C    3.863 --     2 N    1.371     4 N    1.279    18 H    0.954
     4   7 N    3.586 --     3 C    1.279     5 C    1.189    25 H    0.919
     5   6 C    3.938 --     6 C    1.369    13 N    1.191     4 N    1.189
     6   6 C    3.891 --     5 C    1.369     2 N    1.206     7 C    0.969
     7   6 C    3.941 --     8 O    1.752     9 N    1.133     6 C    0.969
     8   8 O    2.062 --     7 C    1.752     9 N    0.108
     9   7 N    3.049 --    11 C    1.520     7 C    1.133    12 O    0.134
                             8 O    0.108
    10   6 C    3.704 --    19 H    0.979    20 H    0.975    21 H    0.975
                            12 O    0.715
    11   6 C    3.925 --     9 N    1.520    12 O    1.256    13 N    1.021
    12   8 O    2.228 --    11 C    1.256    10 C    0.715     9 N    0.134
    13   7 N    3.521 --     5 C    1.191    11 C    1.021    14 C    0.982
    14   6 C    3.940 --    13 N    0.982    23 H    0.971    22 H    0.971
                            24 H    0.967
    15   1 H    0.987 --     1 C    0.961
    16   1 H    0.987 --     1 C    0.961
    17   1 H    0.983 --     1 C    0.967
    18   1 H    0.985 --     3 C    0.954
    19   1 H    0.981 --    10 C    0.979
    20   1 H    0.980 --    10 C    0.975
    21   1 H    0.980 --    10 C    0.975
    22   1 H    0.991 --    14 C    0.971
    23   1 H    0.991 --    14 C    0.971
    24   1 H    0.987 --    14 C    0.967
    25   1 H    0.950 --     4 N    0.919
 ---------------------------------------------------------------------------

molecular dipole:
                 x           y           z       tot (Debye)
 q only:        0.279      -2.471       0.007
   full:        0.349      -3.183       0.007       8.140

           -------------------------------------------------
          | TOTAL ENERGY              -42.138878706760 Eh   |
          | GRADIENT NORM               0.001969128361 Eh/α |
          | HOMO-LUMO GAP               2.772221772313 eV   |
           -------------------------------------------------

 * finished run on 2024/06/05 at 19:59:14.744
