   * xtb version 6.6.1 (8d0f1dd) compiled by 'conda@1efc2f54142f' on 2023-08-01
          program call               : xtb xtbopt.xyz --opt crude --input .xc2 --gfn2

   ID    Z sym.   atoms
    1    6 C      1, 3, 5-7, 10, 11, 14
    2    7 N      2, 4, 9, 13
    3    8 O      8, 12
    4    1 H      15-25
########################################################################
[WARNING] Please study the warnings concerning your input carefully
-1- readin_getIntValue: could not parse ''
########################################################################

          :  Hamiltonian                  GFN2-xTB          :
 * total energy  :   -42.1400290 Eh     change       -0.1776357E-12 Eh
 * total energy  :   -42.1683724 Eh     change       -0.2834335E-01 Eh
 * total energy  :   -42.1924838 Eh     change       -0.2411147E-01 Eh
 * total energy  :   -42.2014032 Eh     change       -0.8919351E-02 Eh
 * total energy  :   -42.2074585 Eh     change       -0.6055336E-02 Eh
 * total energy  :   -42.2124713 Eh     change       -0.5012749E-02 Eh
 * total energy  :   -42.2167879 Eh     change       -0.4316645E-02 Eh
 * total energy  :   -42.2195203 Eh     change       -0.2732355E-02 Eh
 * total energy  :   -42.2209427 Eh     change       -0.1422486E-02 Eh
 * total energy  :   -42.2216387 Eh     change       -0.6959580E-03 Eh
 * total energy  :   -42.2220512 Eh     change       -0.4125321E-03 Eh
 * total energy  :   -42.2220683 Eh     change       -0.1703057E-04 Eh
 * total energy  :   -42.2223034 Eh     change       -0.2350867E-03 Eh
   *** GEOMETRY OPTIMIZATION CONVERGED AFTER 13 ITERATIONS ***

 final structure:
================
25
 xtb: 6.6.1 (8d0f1dd)
C            3.71813449857472        0.66032838494368        0.06657417145949
N            2.57418264336430       -0.21248068185199        0.03993958808356
C            2.57769894850437       -1.53961574955850        0.03327076120785
N            1.30520046612777       -1.99896437744105        0.00720552695422
C            0.47231511207000       -0.91828893268601       -0.00244490064062
C            1.27083076792236        0.21070346632868        0.01780705338714
C            0.66749277261514        1.55809693277165        0.01555971089493
O            1.29653799163211        2.58519740053570        0.03021543508223
N           -0.70102139555880        1.48746190866467       -0.00324170150124
C           -3.39624429430432        1.69595567403068       -0.03627766336660
C           -1.41108839528890        0.41803308055748       -0.01877642449261
O           -2.71717630140941        0.43671762154580       -0.02808860291503
N           -0.88121658132780       -0.87423521457306       -0.02533335566176
C           -1.68881634362775       -2.07753728132921       -0.04934660621594
H            4.30512655926165        0.48789648557543        0.96859846719583
H            4.34973689597847        0.48409944812919       -0.80404156941788
H            3.36382888120085        1.69119601243092        0.05615280298887
H            3.45105836060030       -2.16030411022970        0.04673375981758
H           -2.68553787851218        2.51649701594187        0.06445609822445
H           -3.93756896446466        1.77928370730883       -0.97484538638754
H           -4.10282329572633        1.69166697396548        0.79683257399814
H           -1.51840893430531       -2.66636391804330        0.85338671169414
H           -1.45145922240632       -2.67374666208120       -0.93174014227323
H           -2.73602293846030       -1.79125541004487       -0.08965099001326
H            1.03567216163536       -2.97210323328176       -0.00177370017668

          :  Hamiltonian                  GFN2-xTB          :
         :: total energy             -42.222303353472 Eh    ::
         :: gradient norm              0.005045429809 Eh/a0 ::
         :: HOMO-LUMO gap              2.805459785828 eV    ::
         :: SCC energy               -42.743688880346 Eh    ::
         :: -> dispersion             -0.022102184893 Eh    ::
         :: repulsion energy           0.521340700777 Eh    ::

    * Orbital Energies and Occupations

         #    Occupation            Energy/Eh            Energy/eV
      -------------------------------------------------------------
         1        2.0000           -0.9077790             -24.7019
       ...           ...                  ...                  ...
        25        2.0000           -0.6715880             -18.2748
        26        2.0000           -0.6648934             -18.0927
        27        2.0000           -0.6444777             -17.5371
        28        1.9999           -0.6357424             -17.2994
        29        1.9999           -0.6290635             -17.1177
        30        1.9998           -0.6239935             -16.9797
        31        1.9996           -0.6123663             -16.6633
        32        1.9996           -0.6104821             -16.6121
        33        1.9990           -0.5956923             -16.2096
        34        1.9916           -0.5624557             -15.3052
        35        1.9874           -0.5558981             -15.1268
        36        1.9827           -0.5509220             -14.9914
        37        1.9377           -0.5302311             -14.4283 (HOMO)
        38        0.0884           -0.4271324             -11.6229 (LUMO)
        39        0.0096           -0.3913388             -10.6489
        40        0.0048           -0.3804459             -10.3525
        41        0.0000           -0.2672342              -7.2718
        42                         -0.2013739              -5.4797
        43                         -0.1858545              -5.0574
        44                         -0.1469546              -3.9988
        45                         -0.1210991              -3.2953
        46                         -0.0764818              -2.0812
        47                         -0.0451287              -1.2280
        48                         -0.0324390              -0.8827
       ...                                ...                  ...
        67                          0.5632946              15.3280
      -------------------------------------------------------------
                  HL-Gap            0.1030988 Eh            2.8055 eV

     #   Z          covCN         q      C6AA      α(0)
     1   6 C        3.692    -0.094    22.493     6.786
     2   7 N        2.838     0.083    19.798     6.608
     3   6 C        3.060     0.050    26.826     8.494
     4   7 N        2.796    -0.062    22.447     7.037
     5   6 C        3.073     0.113    25.444     8.271
     6   6 C        3.122    -0.023    28.402     8.728
     7   6 C        2.773     0.298    21.951     7.673
     8   8 O        0.858    -0.343    20.569     6.081
     9   7 N        1.840    -0.289    28.353     7.891
    10   6 C        3.649    -0.001    20.918     6.571
    11   6 C        2.779     0.301    21.885     7.662
    12   8 O        1.707    -0.199    17.313     5.618
    13   7 N        2.739    -0.050    22.214     7.000
    14   6 C        3.692    -0.072    22.064     6.721
    15   1 H        0.925     0.106     1.730     2.057
    16   1 H        0.925     0.106     1.731     2.058
    17   1 H        0.925     0.140     1.463     1.892
    18   1 H        0.926     0.123     1.590     1.972
    19   1 H        0.925     0.105     1.741     2.064
    20   1 H        0.925     0.099     1.798     2.097
    21   1 H        0.924     0.100     1.785     2.089
    22   1 H        0.924     0.084     1.937     2.176
    23   1 H        0.924     0.084     1.942     2.179
    24   1 H        0.925     0.116     1.642     2.004
    25   1 H        0.860     0.226     0.980     1.551

Wiberg/Mayer (AO) data.
largest (>0.10) Wiberg bond orders for each atom

     #   Z sym  total        # sym  WBO       # sym  WBO       # sym  WBO
 ---------------------------------------------------------------------------
     1   6 C    3.913 --     2 N    0.984    16 H    0.960    17 H    0.960
                            15 H    0.959
     2   7 N    3.690 --     3 C    1.393     6 C    1.173     1 C    0.984
     3   6 C    3.858 --     2 N    1.393     4 N    1.271    18 H    0.953
     4   7 N    3.583 --     3 C    1.271     5 C    1.190    25 H    0.920
     5   6 C    3.946 --     6 C    1.383     4 N    1.190    13 N    1.184
     6   6 C    3.901 --     5 C    1.383     2 N    1.173     7 C    1.016
     7   6 C    3.947 --     8 O    1.717     9 N    1.133     6 C    1.016
     8   8 O    2.040 --     7 C    1.717     9 N    0.111
     9   7 N    3.049 --    11 C    1.514     7 C    1.133    12 O    0.112
                             8 O    0.111
    10   6 C    3.871 --    19 H    0.970    21 H    0.970    20 H    0.969
                            12 O    0.924
    11   6 C    3.935 --     9 N    1.514    12 O    1.201    13 N    1.084
    12   8 O    2.356 --    11 C    1.201    10 C    0.924     9 N    0.112
    13   7 N    3.556 --     5 C    1.184    11 C    1.084    14 C    0.975
    14   6 C    3.932 --    13 N    0.975    23 H    0.971    22 H    0.970
                            24 H    0.969
    15   1 H    0.986 --     1 C    0.959
    16   1 H    0.986 --     1 C    0.960
    17   1 H    0.980 --     1 C    0.960
    18   1 H    0.984 --     3 C    0.953
    19   1 H    0.988 --    10 C    0.970
    20   1 H    0.987 --    10 C    0.969
    21   1 H    0.987 --    10 C    0.970
    22   1 H    0.990 --    14 C    0.970
    23   1 H    0.990 --    14 C    0.971
    24   1 H    0.986 --    14 C    0.969
    25   1 H    0.948 --     4 N    0.920
 ---------------------------------------------------------------------------

molecular dipole:
                 x           y           z       tot (Debye)
 q only:        1.081      -2.662       0.004
   full:        1.204      -3.450      -0.001       9.288

           -------------------------------------------------
          | TOTAL ENERGY              -42.222303353472 Eh   |
          | GRADIENT NORM               0.005045429809 Eh/α |
          | HOMO-LUMO GAP               2.805459785828 eV   |
           -------------------------------------------------

 * finished run on 2024/06/05 at 19:59:15.257
