   * xtb version 6.6.1 (8d0f1dd) compiled by 'conda@1efc2f54142f' on 2023-08-01
          program call               : xtb struc.xyz --opt loose --input .xc1 --gfn2

   ID    Z sym.   atoms
    1    7 N      1, 17
    2    6 C      2-6, 8, 9, 11-16, 18-23, 25, 26, 28-33
    3    8 O      7, 10, 24, 27
    4    1 H      34-72
constraining bond 10 40 to    2.6333300 Å, actual value:    2.0778748 Å

          :  Hamiltonian                  GFN2-xTB          :
 * total energy  :   -99.4592200 Eh     change       -0.4035485E-08 Eh
 * total energy  :   -99.5625483 Eh     change       -0.1033283E+00 Eh
 * total energy  :   -99.7195057 Eh     change       -0.1569573E+00 Eh
 * total energy  :   -97.1690429 Eh     change        0.2550463E+01 Eh
 * total energy  :   -99.7873367 Eh     change       -0.2618294E+01 Eh
 * total energy  :   -99.8030819 Eh     change       -0.1574523E-01 Eh
 * total energy  :   -99.8085769 Eh     change       -0.5494904E-02 Eh
 * total energy  :   -99.8125039 Eh     change       -0.3927086E-02 Eh
 * total energy  :   -99.8168652 Eh     change       -0.4361305E-02 Eh
 * total energy  :   -99.8198383 Eh     change       -0.2973040E-02 Eh
 * total energy  :   -99.8410571 Eh     change       -0.2079151E-03 Eh
 * total energy  :   -99.8412646 Eh     change       -0.2075216E-03 Eh
 * total energy  :   -99.8414672 Eh     change       -0.2025321E-03 Eh
 * total energy  :   -99.8416301 Eh     change       -0.1629495E-03 Eh
 * total energy  :   -99.8414865 Eh     change        0.1436171E-03 Eh
 * total energy  :   -99.8418393 Eh     change       -0.3528138E-03 Eh
 * total energy  :   -99.8418764 Eh     change       -0.3705618E-04 Eh
 * total energy  :   -99.8419329 Eh     change       -0.5648473E-04 Eh
 * total energy  :   -99.8419795 Eh     change       -0.4660164E-04 Eh
   *** GEOMETRY OPTIMIZATION CONVERGED AFTER 35 ITERATIONS ***

 final structure:
================
72
 xtb: 6.6.1 (8d0f1dd)
N           -1.89034594127055        2.79526617216165        2.23726643545281
C           -1.80868167131773        2.07350305405366        1.21830094064833
C           -2.95137309176561        1.81073718187308        0.27253200415894
C           -3.35490147268007        0.34807183047076        0.34218526853045
C           -4.27686344812300       -0.15619455741909       -0.57571981424857
C           -4.75595928552151       -1.45904330715007       -0.48245645259451
O           -5.66631414722201       -2.02910513259836       -1.29915633607620
C           -6.28768028257224       -1.23883629967243       -2.29081138502354
C           -4.25790249995884       -2.26946784330496        0.54741042182474
O           -4.79675517062014       -3.59366812490742        0.65916402330412
C           -5.69375569300528       -3.73922428498863        1.87245889886105
C           -3.32946676783281       -1.79392799498016        1.45527311593345
C           -2.87893494359761       -0.48855288356620        1.34888997223412
C           -2.42541258755621        2.17041930424394       -1.14121869691656
C           -1.43564962095948        1.15721335267789       -1.74618751326016
C           -0.09687813672770        1.18042103213155       -1.11176337569411
N            0.60077882571259        0.10330120947986       -0.73462686285431
C            1.98254199074974        0.22504150238029       -0.33710840974929
C            2.95013082366212       -0.20500012212587       -1.45670462573618
C            4.37016575021040       -0.03782317486021       -0.99327451738319
C            5.04488122473400        1.15363439729824       -1.19377476541501
C            6.34402378253583        1.31931585779440       -0.73693397022654
C            6.99157308499170        0.29478027428091       -0.06375540999909
O            8.24851287012604        0.34426745509132        0.42292845582665
C            9.00520741685610        1.51864228986725        0.24371201333232
C            6.30631405796369       -0.93105341141037        0.14933439931340
O            7.01159221534683       -1.87592248004333        0.80944429818480
C            6.42630278760005       -3.13421708849769        1.03771435642433
C            5.00937265913370       -1.07386032913540       -0.31463274835559
C            0.04777155642278       -1.22612332192526       -0.80584187569165
C           -4.22344463458107        2.65714997140596        0.58965074701329
C           -4.82672511145542        2.28078637360131        1.94143397387946
C           -3.97113563706922        4.16142197433086        0.54094056664172
H           -4.65170766468361        0.48235461683710       -1.35733873007117
H           -6.79630361278233       -0.37723208270109       -1.85129516783486
H           -7.02174526918828       -1.88905151124754       -2.76195557987726
H           -5.56750271240056       -0.90234367023156       -3.04185011947664
H           -6.46413737211494       -2.98103426749794        1.81967576675213
H           -6.06823322645831       -4.75788013609594        1.84598198647625
H           -4.23769321603060       -4.13137665151478        0.75372091403441
H           -2.99087060113768       -2.42876121369687        2.25915609030748
H           -2.18586391009337       -0.11307949552811        2.08380259215913
H           -3.27359644578265        2.26068976823202       -1.81976010006555
H           -1.94143477518021        3.14626916171699       -1.09037336247387
H           -1.87183131355030        0.16005569031231       -1.72593805750369
H           -1.30774190974633        1.44221178949271       -2.79904172686080
H           -0.87458900094770        1.59295446234959        0.87458016209599
H            0.42117665253856        2.12567079500831       -1.07150560748558
H            2.15630222876076       -0.39541475041131        0.54711070000956
H            2.19059790752877        1.26293068870176       -0.07041002028497
H            2.76724636555989        0.41412992572070       -2.33639330817740
H            2.76199912559672       -1.24642920817109       -1.72135889024089
H            4.56562743092606        1.96436302948904       -1.72132416931081
H            6.84625444381509        2.25568309785550       -0.91611447449973
H            8.53449471524994        2.37778129124427        0.73161783666344
H            9.15818082905129        1.73918189179092       -0.81710965008202
H            9.96694820566425        1.32028122256741        0.71289530333271
H            7.18348977129241       -3.71880564645859        1.55676500282912
H            5.53584525535086       -3.05523507544576        1.67035330824403
H            6.16558614483822       -3.63315834225220        0.09882321423143
H            4.48273120398398       -2.00353915044901       -0.16429398844284
H           -0.07164858051851       -1.55331795640415       -1.84194490010675
H           -0.92553017270953       -1.25945584802052       -0.31048820925081
H            0.71658821868946       -1.91769791679087       -0.29929759157379
H           -4.95853238976922        2.41447411839550       -0.18651476167893
H           -4.13378504597947        2.52820862574376        2.73843041453924
H           -5.05916639568519        1.21969093987835        1.99148515279668
H           -5.74662126666649        2.83826548108326        2.09565978935797
H           -3.21241936582399        4.44007931441890        1.26479121783187
H           -3.66402082394125        4.48989206441514       -0.44813536776437
H           -4.89038693838055        4.68269835757243        0.79407820460788
H           -1.04217979448378        2.92813323603145        2.78010783705107

          :  Hamiltonian                  GFN2-xTB          :
         :: total energy             -99.841979464795 Eh    ::
         :: gradient norm              0.003970800136 Eh/a0 ::
         :: HOMO-LUMO gap              0.990247470351 eV    ::
         :: SCC energy              -100.669007953914 Eh    ::
         :: -> dispersion             -0.075468569654 Eh    ::
         :: repulsion energy           1.438112515240 Eh    ::

    * Orbital Energies and Occupations

         #    Occupation            Energy/Eh            Energy/eV
      -------------------------------------------------------------
         1        2.0000           -0.8793918             -23.9295
       ...           ...                  ...                  ...
        78        1.9993           -0.5260537             -14.3146
        79        1.9992           -0.5239793             -14.2582
        80        1.9991           -0.5223179             -14.2130
        81        1.9989           -0.5187797             -14.1167
        82        1.9982           -0.5113084             -13.9134
        83        1.9981           -0.5107288             -13.8976
        84        1.9980           -0.5097767             -13.8717
        85        1.9976           -0.5067031             -13.7881
        86        1.9948           -0.4946999             -13.4615
        87        1.9848           -0.4776231             -12.9968
        88        1.9665           -0.4649712             -12.6525
        89        1.8904           -0.4455640             -12.1244
        90        1.5410           -0.4196486             -11.4192 (HOMO)
        91        0.5043           -0.3832577             -10.4290 (LUMO)
        92        0.0710           -0.3481757              -9.4743
        93        0.0278           -0.3330168              -9.0618
        94        0.0276           -0.3328479              -9.0573
        95        0.0039           -0.3015450              -8.2055
        96        0.0032           -0.2987526              -8.1295
        97        0.0000           -0.2194623              -5.9719
        98        0.0000           -0.1762243              -4.7953
        99        0.0000           -0.1660343              -4.5180
       100                         -0.1263654              -3.4386
       101                         -0.0868233              -2.3626
       ...                                ...                  ...
       171                          0.5886703              16.0185
      -------------------------------------------------------------
                  HL-Gap            0.0363909 Eh            0.9902 eV

     #   Z          covCN         q      C6AA      α(0)
     1   7 N        1.774    -0.280    28.070     7.846
     2   6 C        2.826     0.096    25.868     8.334
     3   6 C        3.907     0.006    20.427     6.424
     4   6 C        2.974     0.015    27.666     8.628
     5   6 C        2.924    -0.079    29.969     8.978
     6   6 C        2.858     0.138    24.984     8.193
     7   8 O        1.706    -0.246    18.080     5.741
     8   6 C        3.644     0.026    20.471     6.503
     9   6 C        2.856     0.071    26.406     8.422
    10   8 O        2.487    -0.129    16.216     5.439
    11   6 C        2.689    -0.144    31.674     9.210
    12   6 C        2.912    -0.055    29.357     8.885
    13   6 C        2.923    -0.052    29.286     8.875
    14   6 C        3.812    -0.065    21.739     6.637
    15   6 C        3.801    -0.066    21.768     6.643
    16   6 C        2.841    -0.007    28.193     8.702
    17   7 N        2.728    -0.004    21.342     6.861
    18   6 C        3.754    -0.014    20.881     6.516
    19   6 C        3.808    -0.070    21.831     6.651
    20   6 C        2.969    -0.003    28.098     8.695
    21   6 C        2.922    -0.050    29.254     8.870
    22   6 C        2.914    -0.069    29.715     8.939
    23   6 C        2.865     0.131    25.130     8.217
    24   8 O        1.706    -0.229    17.799     5.696
    25   6 C        3.645     0.027    20.451     6.499
    26   6 C        2.863     0.130    25.144     8.219
    27   8 O        1.706    -0.232    17.844     5.703
    28   6 C        3.645     0.030    20.406     6.493
    29   6 C        2.920    -0.081    30.023     8.985
    30   6 C        3.699    -0.064    21.905     6.694
    31   6 C        3.854    -0.007    20.669     6.466
    32   6 C        3.756    -0.119    22.843     6.815
    33   6 C        3.755    -0.119    22.839     6.814
    34   1 H        0.926     0.061     2.181     2.310
    35   1 H        0.924     0.057     2.240     2.340
    36   1 H        0.925     0.082     1.962     2.190
    37   1 H        0.924     0.050     2.323     2.383
    38   1 H        0.925     0.041     2.442     2.444
    39   1 H        0.925     0.036     2.501     2.473
    40   1 H        0.810     0.343     0.605     1.221
    41   1 H        0.926     0.066     2.126     2.280
    42   1 H        0.926     0.054     2.273     2.357
    43   1 H        0.925     0.056     2.252     2.347
    44   1 H        0.924     0.056     2.246     2.344
    45   1 H        0.925     0.055     2.257     2.349
    46   1 H        0.923     0.072     2.059     2.244
    47   1 H        0.922     0.003     3.000     2.709
    48   1 H        0.926     0.063     2.169     2.303
    49   1 H        0.924     0.062     2.176     2.307
    50   1 H        0.924     0.066     2.134     2.285
    51   1 H        0.924     0.053     2.286     2.364
    52   1 H        0.924     0.051     2.304     2.374
    53   1 H        0.926     0.042     2.418     2.432
    54   1 H        0.926     0.055     2.256     2.349
    55   1 H        0.924     0.051     2.308     2.376
    56   1 H        0.924     0.053     2.287     2.365
    57   1 H        0.925     0.079     1.990     2.206
    58   1 H        0.925     0.078     1.996     2.210
    59   1 H        0.924     0.044     2.391     2.418
    60   1 H        0.924     0.049     2.338     2.391
    61   1 H        0.926     0.042     2.422     2.434
    62   1 H        0.924     0.069     2.100     2.266
    63   1 H        0.924     0.067     2.116     2.275
    64   1 H        0.925     0.075     2.034     2.230
    65   1 H        0.924     0.032     2.559     2.501
    66   1 H        0.925     0.069     2.091     2.261
    67   1 H        0.925     0.030     2.587     2.515
    68   1 H        0.925     0.050     2.321     2.382
    69   1 H        0.925     0.063     2.166     2.302
    70   1 H        0.925     0.034     2.527     2.486
    71   1 H        0.925     0.053     2.280     2.361
    72   1 H        0.860     0.153     1.381     1.841

Wiberg/Mayer (AO) data.
largest (>0.10) Wiberg bond orders for each atom

     #   Z sym  total        # sym  WBO       # sym  WBO       # sym  WBO
 ---------------------------------------------------------------------------
     1   7 N    3.025 --     2 C    1.947    72 H    0.945
     2   6 C    3.921 --     1 N    1.947     3 C    0.993    47 H    0.909
     3   6 C    3.982 --     2 C    0.993     4 C    0.978    14 C    0.958
                            31 C    0.940
     4   6 C    3.942 --    13 C    1.394     5 C    1.389     3 C    0.978
     5   6 C    3.948 --     4 C    1.389     6 C    1.362    34 H    0.958
     6   6 C    3.923 --     5 C    1.362     9 C    1.302     7 O    1.098
     7   8 O    2.262 --     6 C    1.098     8 C    0.971
     8   6 C    3.930 --    36 H    0.977    37 H    0.976    35 H    0.976
                             7 O    0.971
     9   6 C    3.813 --    12 C    1.409     6 C    1.302    10 O    0.886
    10   8 O    2.565 --     9 C    0.886    40 H    0.867    11 C    0.757
    11   6 C    2.739 --    38 H    0.979    39 H    0.971    10 O    0.757
    12   6 C    3.945 --    13 C    1.421     9 C    1.409    41 H    0.964
    13   6 C    3.967 --    12 C    1.421     4 C    1.394    42 H    0.961
    14   6 C    3.971 --    15 C    0.982    44 H    0.972    43 H    0.969
                             3 C    0.958
    15   6 C    3.990 --    16 C    1.056    14 C    0.982    45 H    0.964
                            46 H    0.934
    16   6 C    3.515 --    17 N    1.352    15 C    1.056    48 H    0.960
    17   7 N    3.426 --    16 C    1.352    30 C    1.002    18 C    0.991
    18   6 C    3.958 --    17 N    0.991    50 H    0.968    19 C    0.967
                            49 H    0.964
    19   6 C    3.976 --    20 C    1.007    51 H    0.973    52 H    0.972
                            18 C    0.967
    20   6 C    3.954 --    21 C    1.418    29 C    1.375    19 C    1.007
    21   6 C    3.959 --    20 C    1.418    22 C    1.412    53 H    0.968
    22   6 C    3.965 --    21 C    1.412    23 C    1.390    54 H    0.964
    23   6 C    3.906 --    22 C    1.390    26 C    1.228    24 O    1.101
    24   8 O    2.254 --    23 C    1.101    25 C    0.978
    25   6 C    3.932 --    24 O    0.978    57 H    0.977    55 H    0.974
                            56 H    0.974
    26   6 C    3.908 --    29 C    1.402    23 C    1.228    27 O    1.093
    27   8 O    2.253 --    26 C    1.093    28 C    0.981
    28   6 C    3.937 --    27 O    0.981    58 H    0.977    59 H    0.974
                            60 H    0.974
    29   6 C    3.964 --    26 C    1.402    20 C    1.375    61 H    0.963
    30   6 C    3.965 --    17 N    1.002    64 H    0.978    62 H    0.968
                            63 H    0.966
    31   6 C    3.979 --    33 C    1.009    32 C    1.009    65 H    0.963
                             3 C    0.940
    32   6 C    3.986 --    31 C    1.009    67 H    0.983    68 H    0.983
                            66 H    0.977
    33   6 C    3.987 --    31 C    1.009    70 H    0.984    71 H    0.981
                            69 H    0.977
    34   1 H    0.996 --     5 C    0.958
    35   1 H    0.996 --     8 C    0.976
    36   1 H    0.993 --     8 C    0.977
    37   1 H    0.997 --     8 C    0.976
    38   1 H    0.984 --    11 C    0.979
    39   1 H    0.985 --    11 C    0.971
    40   1 H    0.881 --    10 O    0.867
    41   1 H    0.994 --    12 C    0.964
    42   1 H    0.997 --    13 C    0.961
    43   1 H    0.995 --    14 C    0.969
    44   1 H    0.996 --    14 C    0.972
    45   1 H    0.996 --    15 C    0.964
    46   1 H    0.969 --    15 C    0.934
    47   1 H    0.992 --     2 C    0.909
    48   1 H    0.996 --    16 C    0.960
    49   1 H    0.991 --    18 C    0.964
    50   1 H    0.995 --    18 C    0.968
    51   1 H    0.996 --    19 C    0.973
    52   1 H    0.996 --    19 C    0.972
    53   1 H    0.998 --    21 C    0.968
    54   1 H    0.995 --    22 C    0.964
    55   1 H    0.994 --    25 C    0.974
    56   1 H    0.993 --    25 C    0.974
    57   1 H    0.993 --    25 C    0.977
    58   1 H    0.993 --    28 C    0.977
    59   1 H    0.995 --    28 C    0.974
    60   1 H    0.995 --    28 C    0.974
    61   1 H    0.997 --    29 C    0.963
    62   1 H    0.984 --    30 C    0.968
    63   1 H    0.989 --    30 C    0.966
    64   1 H    0.994 --    30 C    0.978
    65   1 H    0.996 --    31 C    0.963
    66   1 H    0.993 --    32 C    0.977
    67   1 H    0.998 --    32 C    0.983
    68   1 H    0.996 --    32 C    0.983
    69   1 H    0.995 --    33 C    0.977
    70   1 H    0.998 --    33 C    0.984
    71   1 H    0.995 --    33 C    0.981
    72   1 H    0.973 --     1 N    0.945
 ---------------------------------------------------------------------------

molecular dipole:
                 x           y           z       tot (Debye)
 q only:       -0.826      -0.994      -1.032
   full:       -0.627      -1.331      -1.614       5.552

           -------------------------------------------------
          | TOTAL ENERGY              -99.841979464795 Eh   |
          | GRADIENT NORM               0.003970800136 Eh/α |
          | HOMO-LUMO GAP               0.990247470351 eV   |
           -------------------------------------------------

 * finished run on 2024/04/06 at 11:16:19.168
