   * xtb version 6.6.1 (8d0f1dd) compiled by 'conda@1efc2f54142f' on 2023-08-01
          program call               : xtb xtbopt.xyz --opt crude --input .xc2 --gfn2

   ID    Z sym.   atoms
    1    7 N      1, 17
    2    6 C      2-6, 8, 9, 11-16, 18-23, 25, 26, 28-33
    3    8 O      7, 10, 24, 27
    4    1 H      34-72
########################################################################
[WARNING] Please study the warnings concerning your input carefully
-1- readin_getIntValue: could not parse ''
########################################################################

          :  Hamiltonian                  GFN2-xTB          :
 * total energy  :   -99.2296206 Eh     change       -0.4524736E-10 Eh
 * total energy  :   -99.2771145 Eh     change       -0.4749391E-01 Eh
 * total energy  :   -99.2774666 Eh     change       -0.3520716E-03 Eh
 * total energy  :   -99.2776224 Eh     change       -0.1558696E-03 Eh
   *** GEOMETRY OPTIMIZATION CONVERGED AFTER 4 ITERATIONS ***

 final structure:
================
72
 xtb: 6.6.1 (8d0f1dd)
N           -1.88999082922537        2.79214989112605        2.23994158136077
C           -1.80949625314119        2.07211288419501        1.21968975962891
C           -2.95256884908866        1.81184601324394        0.27379272914403
C           -3.36037505176322        0.34982947243573        0.34243811146997
C           -4.28047542002634       -0.15127797746771       -0.57931614314022
C           -4.76180165993124       -1.45372892952993       -0.48781840312910
O           -5.66806568813059       -2.02425878049678       -1.30897371032157
C           -6.28805554870957       -1.23395261810534       -2.30124285344788
C           -4.27185943346094       -2.26630844124515        0.54597875042567
O           -4.83113745214245       -3.57774664128159        0.65050940172903
C           -5.69806464255457       -3.72486056045832        1.87189867297981
C           -3.34462611629046       -1.79282588821820        1.45530077663354
C           -2.88852228895402       -0.48878923118663        1.34869908139896
C           -2.42581424801156        2.16909410002105       -1.14048372223541
C           -1.43670911631669        1.15346140505165       -1.74260015699722
C           -0.09827388132974        1.17769242710555       -1.10805093686037
N            0.60122777573412        0.10102999981569       -0.73250545829246
C            1.98318369194181        0.22404540653599       -0.33646888107121
C            2.94988741174716       -0.20473077264750       -1.45720077262369
C            4.37003318022421       -0.03723150267688       -0.99434542359398
C            5.04418578210763        1.15459789393247       -1.19406277938612
C            6.34318835438742        1.32038930399945       -0.73686472938249
C            6.99107673658964        0.29584486076181       -0.06413311982285
O            8.24788076272307        0.34562152604364        0.42292022535304
C            9.00468305300330        1.51977583391413        0.24240557336734
C            6.30630124561895       -0.93036552642250        0.14822528034838
O            7.01171836625742       -1.87538667345274        0.80804140246369
C            6.42603635593725       -3.13359491016631        1.03600268287323
C            5.00957408196869       -1.07330700227963       -0.31613409616297
C            0.04952468225924       -1.22898753529911       -0.80285744691761
C           -4.22255207462807        2.66100395629892        0.59132606256086
C           -4.82506739317632        2.28719118756867        1.94421483850994
C           -3.96767363907329        4.16486115269049        0.54094883479986
H           -4.64958953337993        0.48904321776628       -1.36224086891898
H           -6.80069582947458       -0.37415246781416       -1.86217152045804
H           -7.01852184161431       -1.88600840144538       -2.77557724501235
H           -5.56616013527594       -0.89423944831263       -3.04929375500739
H           -6.47790898915804       -2.97730711173749        1.82279661800808
H           -6.06387085227915       -4.74305211014394        1.86453686902617
H           -4.12764843927359       -4.23901688144684        0.77389081784956
H           -3.00805634309812       -2.43036193453235        2.25789101723988
H           -2.19281446824202       -0.11621737104490        2.08263453522548
H           -3.27366918312868        2.25819700160047       -1.81945040296090
H           -1.94133841741546        3.14471355592266       -1.09200517707651
H           -1.87362940872231        0.15658901361237       -1.71897114537272
H           -1.30895869224660        1.43469189092341       -2.79658095092463
H           -0.87571675397157        1.59192055173893        0.87487883861652
H            0.41904322677569        2.12335137540020       -1.06783965004343
H            2.15857678938805       -0.39622057409930        0.54752334149817
H            2.19050839772725        1.26205876393037       -0.06988857144221
H            2.76600892681029        0.41498838429596       -2.33622197983967
H            2.76198546464591       -1.24601675594038       -1.72258091851005
H            4.56460428770027        1.96545460149542       -1.72110812229839
H            6.84508751038976        2.25710051173144       -0.91526527120642
H            8.53508623033590        2.37904383602590        0.73116654208909
H            9.15577663706636        1.74024862768066       -0.81871964846042
H            9.96718504882197        1.32112379797114        0.70988729362517
H            7.18291322577397       -3.71849308198365        1.55508894568104
H            5.53546662453782       -3.05433369026733        1.66845444850285
H            6.16534322779963       -3.63221575101110        0.09693678519733
H            4.48321570616525       -2.00327915744783       -0.16646665640156
H           -0.07390544504880       -1.55545550174388       -1.83878901843969
H           -0.92177892592939       -1.26399142560421       -0.30347253293218
H            0.72156787457910       -1.92014024117913       -0.29993590521649
H           -4.95900026118305        2.41881688176826       -0.18368874568599
H           -4.13018263488863        2.53262056995491        2.74011239949682
H           -5.06081332605422        1.22678960482695        1.99498329420560
H           -5.74294886719183        2.84779016973814        2.09975321813563
H           -3.21064254816681        4.44325459001672        1.26670442635537
H           -3.65690458712399        4.49117511408889       -0.44785054437846
H           -4.88687636425434        4.68841165383710        0.79026065156056
H           -1.04159362894087        2.92406339011957        2.78260829920839

          :  Hamiltonian                  GFN2-xTB          :
         :: total energy             -99.277622439636 Eh    ::
         :: gradient norm              0.003067532558 Eh/a0 ::
         :: HOMO-LUMO gap              0.979998968526 eV    ::
         :: SCC energy              -100.647347104967 Eh    ::
         :: -> dispersion             -0.075461775703 Eh    ::
         :: repulsion energy           1.368450041117 Eh    ::

    * Orbital Energies and Occupations

         #    Occupation            Energy/Eh            Energy/eV
      -------------------------------------------------------------
         1        2.0000           -0.8703850             -23.6844
       ...           ...                  ...                  ...
        78        1.9993           -0.5255747             -14.3016
        79        1.9992           -0.5234223             -14.2430
        80        1.9991           -0.5218468             -14.2002
        81        1.9989           -0.5183837             -14.1059
        82        1.9982           -0.5108699             -13.9015
        83        1.9981           -0.5102588             -13.8848
        84        1.9980           -0.5093431             -13.8599
        85        1.9976           -0.5061907             -13.7742
        86        1.9948           -0.4938224             -13.4376
        87        1.9851           -0.4771804             -12.9847
        88        1.9670           -0.4644487             -12.6383
        89        1.8924           -0.4451291             -12.1126
        90        1.5351           -0.4186349             -11.3916 (HOMO)
        91        0.5070           -0.3826206             -10.4116 (LUMO)
        92        0.0705           -0.3473279              -9.4513
        93        0.0281           -0.3324204              -9.0456
        94        0.0278           -0.3322487              -9.0409
        95        0.0039           -0.3010704              -8.1925
        96        0.0033           -0.2982788              -8.1166
        97        0.0000           -0.2180674              -5.9339
        98        0.0000           -0.1759450              -4.7877
        99        0.0000           -0.1757090              -4.7813
       100                         -0.1258461              -3.4244
       101                         -0.0821683              -2.2359
       ...                                ...                  ...
       171                          0.5892265              16.0337
      -------------------------------------------------------------
                  HL-Gap            0.0360143 Eh            0.9800 eV

     #   Z          covCN         q      C6AA      α(0)
     1   7 N        1.774    -0.280    28.078     7.847
     2   6 C        2.826     0.096    25.869     8.334
     3   6 C        3.907     0.006    20.427     6.424
     4   6 C        2.974     0.015    27.670     8.629
     5   6 C        2.923    -0.079    29.974     8.978
     6   6 C        2.858     0.139    24.975     8.191
     7   8 O        1.706    -0.246    18.083     5.741
     8   6 C        3.644     0.027    20.463     6.502
     9   6 C        2.857     0.073    26.362     8.416
    10   8 O        2.485    -0.120    16.098     5.419
    11   6 C        2.694    -0.141    31.583     9.198
    12   6 C        2.912    -0.055    29.376     8.888
    13   6 C        2.923    -0.052    29.285     8.874
    14   6 C        3.811    -0.065    21.738     6.636
    15   6 C        3.801    -0.066    21.765     6.642
    16   6 C        2.841    -0.008    28.200     8.703
    17   7 N        2.728    -0.005    21.352     6.863
    18   6 C        3.755    -0.014    20.879     6.515
    19   6 C        3.808    -0.070    21.831     6.651
    20   6 C        2.970    -0.003    28.100     8.695
    21   6 C        2.922    -0.051    29.256     8.870
    22   6 C        2.914    -0.069    29.717     8.939
    23   6 C        2.865     0.131    25.133     8.218
    24   8 O        1.706    -0.229    17.804     5.697
    25   6 C        3.645     0.027    20.449     6.499
    26   6 C        2.863     0.130    25.147     8.220
    27   8 O        1.706    -0.232    17.849     5.704
    28   6 C        3.645     0.030    20.404     6.492
    29   6 C        2.920    -0.081    30.025     8.986
    30   6 C        3.699    -0.064    21.901     6.693
    31   6 C        3.854    -0.007    20.668     6.466
    32   6 C        3.756    -0.119    22.840     6.814
    33   6 C        3.755    -0.119    22.835     6.814
    34   1 H        0.926     0.061     2.187     2.312
    35   1 H        0.924     0.056     2.245     2.343
    36   1 H        0.925     0.081     1.966     2.193
    37   1 H        0.924     0.049     2.328     2.386
    38   1 H        0.925     0.040     2.454     2.450
    39   1 H        0.925     0.034     2.526     2.485
    40   1 H        0.804     0.343     0.605     1.222
    41   1 H        0.926     0.065     2.145     2.291
    42   1 H        0.926     0.053     2.279     2.361
    43   1 H        0.925     0.055     2.254     2.348
    44   1 H        0.924     0.056     2.249     2.345
    45   1 H        0.925     0.055     2.260     2.351
    46   1 H        0.923     0.072     2.063     2.246
    47   1 H        0.922     0.003     3.001     2.709
    48   1 H        0.926     0.062     2.172     2.304
    49   1 H        0.924     0.062     2.179     2.309
    50   1 H        0.924     0.066     2.135     2.285
    51   1 H        0.924     0.053     2.287     2.365
    52   1 H        0.924     0.051     2.307     2.375
    53   1 H        0.926     0.042     2.420     2.433
    54   1 H        0.926     0.055     2.258     2.350
    55   1 H        0.924     0.051     2.310     2.377
    56   1 H        0.924     0.052     2.289     2.366
    57   1 H        0.925     0.079     1.991     2.207
    58   1 H        0.925     0.078     1.998     2.211
    59   1 H        0.924     0.044     2.393     2.419
    60   1 H        0.924     0.048     2.340     2.392
    61   1 H        0.926     0.042     2.425     2.435
    62   1 H        0.924     0.068     2.103     2.268
    63   1 H        0.924     0.067     2.121     2.277
    64   1 H        0.925     0.075     2.037     2.232
    65   1 H        0.924     0.032     2.560     2.502
    66   1 H        0.925     0.069     2.091     2.261
    67   1 H        0.925     0.030     2.589     2.516
    68   1 H        0.925     0.050     2.323     2.383
    69   1 H        0.925     0.063     2.168     2.303
    70   1 H        0.925     0.034     2.528     2.487
    71   1 H        0.925     0.053     2.282     2.362
    72   1 H        0.860     0.153     1.383     1.842

Wiberg/Mayer (AO) data.
largest (>0.10) Wiberg bond orders for each atom

     #   Z sym  total        # sym  WBO       # sym  WBO       # sym  WBO
 ---------------------------------------------------------------------------
     1   7 N    3.025 --     2 C    1.947    72 H    0.945
     2   6 C    3.920 --     1 N    1.947     3 C    0.993    47 H    0.909
     3   6 C    3.982 --     2 C    0.993     4 C    0.977    14 C    0.958
                            31 C    0.940
     4   6 C    3.943 --    13 C    1.395     5 C    1.389     3 C    0.977
     5   6 C    3.948 --     4 C    1.389     6 C    1.363    34 H    0.958
     6   6 C    3.923 --     5 C    1.363     9 C    1.299     7 O    1.097
     7   8 O    2.262 --     6 C    1.097     8 C    0.972
     8   6 C    3.930 --    36 H    0.977    37 H    0.976    35 H    0.976
                             7 O    0.972
     9   6 C    3.817 --    12 C    1.410     6 C    1.299    10 O    0.891
    10   8 O    2.570 --     9 C    0.891    40 H    0.855    11 C    0.769
    11   6 C    2.749 --    38 H    0.977    39 H    0.971    10 O    0.769
    12   6 C    3.945 --    13 C    1.420     9 C    1.410    41 H    0.963
    13   6 C    3.966 --    12 C    1.420     4 C    1.395    42 H    0.961
    14   6 C    3.971 --    15 C    0.982    44 H    0.972    43 H    0.969
                             3 C    0.958
    15   6 C    3.990 --    16 C    1.056    14 C    0.982    45 H    0.964
                            46 H    0.934
    16   6 C    3.513 --    17 N    1.350    15 C    1.056    48 H    0.960
    17   7 N    3.425 --    16 C    1.350    30 C    1.002    18 C    0.991
    18   6 C    3.958 --    17 N    0.991    50 H    0.968    19 C    0.967
                            49 H    0.964
    19   6 C    3.976 --    20 C    1.007    51 H    0.973    52 H    0.972
                            18 C    0.967
    20   6 C    3.954 --    21 C    1.419    29 C    1.375    19 C    1.007
    21   6 C    3.960 --    20 C    1.419    22 C    1.412    53 H    0.969
    22   6 C    3.966 --    21 C    1.412    23 C    1.391    54 H    0.964
    23   6 C    3.906 --    22 C    1.391    26 C    1.228    24 O    1.101
    24   8 O    2.254 --    23 C    1.101    25 C    0.978
    25   6 C    3.932 --    24 O    0.978    57 H    0.977    55 H    0.974
                            56 H    0.974
    26   6 C    3.909 --    29 C    1.402    23 C    1.228    27 O    1.093
    27   8 O    2.253 --    26 C    1.093    28 C    0.981
    28   6 C    3.937 --    27 O    0.981    58 H    0.977    59 H    0.974
                            60 H    0.974
    29   6 C    3.964 --    26 C    1.402    20 C    1.375    61 H    0.963
    30   6 C    3.965 --    17 N    1.002    64 H    0.978    62 H    0.968
                            63 H    0.966
    31   6 C    3.979 --    33 C    1.009    32 C    1.009    65 H    0.963
                             3 C    0.940
    32   6 C    3.986 --    31 C    1.009    67 H    0.983    68 H    0.983
                            66 H    0.977
    33   6 C    3.987 --    31 C    1.009    70 H    0.984    71 H    0.981
                            69 H    0.978
    34   1 H    0.996 --     5 C    0.958
    35   1 H    0.996 --     8 C    0.976
    36   1 H    0.993 --     8 C    0.977
    37   1 H    0.997 --     8 C    0.976
    38   1 H    0.985 --    11 C    0.977
    39   1 H    0.985 --    11 C    0.971
    40   1 H    0.879 --    10 O    0.855
    41   1 H    0.995 --    12 C    0.963
    42   1 H    0.997 --    13 C    0.961
    43   1 H    0.995 --    14 C    0.969
    44   1 H    0.996 --    14 C    0.972
    45   1 H    0.996 --    15 C    0.964
    46   1 H    0.968 --    15 C    0.934
    47   1 H    0.993 --     2 C    0.909
    48   1 H    0.996 --    16 C    0.960
    49   1 H    0.991 --    18 C    0.964
    50   1 H    0.995 --    18 C    0.968
    51   1 H    0.996 --    19 C    0.973
    52   1 H    0.996 --    19 C    0.972
    53   1 H    0.998 --    21 C    0.969
    54   1 H    0.996 --    22 C    0.964
    55   1 H    0.994 --    25 C    0.974
    56   1 H    0.993 --    25 C    0.974
    57   1 H    0.993 --    25 C    0.977
    58   1 H    0.993 --    28 C    0.977
    59   1 H    0.995 --    28 C    0.974
    60   1 H    0.995 --    28 C    0.974
    61   1 H    0.997 --    29 C    0.963
    62   1 H    0.984 --    30 C    0.968
    63   1 H    0.989 --    30 C    0.966
    64   1 H    0.994 --    30 C    0.978
    65   1 H    0.996 --    31 C    0.963
    66   1 H    0.993 --    32 C    0.977
    67   1 H    0.998 --    32 C    0.983
    68   1 H    0.996 --    32 C    0.983
    69   1 H    0.995 --    33 C    0.978
    70   1 H    0.998 --    33 C    0.984
    71   1 H    0.995 --    33 C    0.981
    72   1 H    0.973 --     1 N    0.945
 ---------------------------------------------------------------------------

molecular dipole:
                 x           y           z       tot (Debye)
 q only:       -0.838      -1.133      -1.005
   full:       -0.658      -1.441      -1.577       5.681

           -------------------------------------------------
          | TOTAL ENERGY              -99.277622439636 Eh   |
          | GRADIENT NORM               0.003067532558 Eh/α |
          | HOMO-LUMO GAP               0.979998968526 eV   |
           -------------------------------------------------

 * finished run on 2024/04/06 at 11:16:20.136
