   * xtb version 6.6.1 (8d0f1dd) compiled by 'conda@1efc2f54142f' on 2023-08-01
          program call               : xtb struc.xyz --opt loose --input .xc1 --gfn2

   ID    Z sym.   atoms
    1    6 C      1, 3, 5-7, 10, 11, 14
    2    7 N      2, 4, 9, 13
    3    8 O      8, 12
    4    1 H      15-25
constraining bond 11 14 to    5.0000000 Å, actual value:    2.4709087 Å

          :  Hamiltonian                  GFN2-xTB          :
 * total energy  :   -30.8270542 Eh     change       -0.6650680E-10 Eh
 * total energy  :   -35.0323618 Eh     change       -0.4205308E+01 Eh
 * total energy  :   -38.3257296 Eh     change       -0.3293368E+01 Eh
 * total energy  :   -40.4293315 Eh     change       -0.2103602E+01 Eh
 * total energy  :   -41.4356920 Eh     change       -0.1006360E+01 Eh
 * total energy  :   -41.6567360 Eh     change       -0.2210440E+00 Eh
 * total energy  :   -41.6952946 Eh     change       -0.3855856E-01 Eh
 * total energy  :   -41.7173304 Eh     change       -0.2203585E-01 Eh
 * total energy  :   -41.7349348 Eh     change       -0.1760438E-01 Eh
 * total energy  :   -41.7653240 Eh     change       -0.3038915E-01 Eh
 * total energy  :   -42.1362063 Eh     change       -0.3154247E-03 Eh
 * total energy  :   -42.1362758 Eh     change       -0.6950712E-04 Eh
 * total energy  :   -42.1363743 Eh     change       -0.9850453E-04 Eh
 * total energy  :   -42.1364745 Eh     change       -0.1002107E-03 Eh
 * total energy  :   -42.1364986 Eh     change       -0.2408097E-04 Eh
 * total energy  :   -42.1365779 Eh     change       -0.7928588E-04 Eh
 * total energy  :   -42.1366299 Eh     change       -0.5199676E-04 Eh
 * total energy  :   -42.1366872 Eh     change       -0.5735427E-04 Eh
 * total energy  :   -42.1366972 Eh     change       -0.9947490E-05 Eh
   *** GEOMETRY OPTIMIZATION CONVERGED AFTER 94 ITERATIONS ***

 final structure:
================
25
 xtb: 6.6.1 (8d0f1dd)
C            3.33857230206565        2.34732625043878        0.01669538524254
N            2.81914831821463        1.00449046957190        0.01489862788995
C            3.52062694387481       -0.12186805216328        0.02374708031209
N            2.69858386123584       -1.18438030485448        0.01949434576688
C            1.40528314737487       -0.72718866007401        0.00764859091363
C            1.49342111140180        0.67237803446960        0.00478832506873
C            0.28578421294058        1.46887543742684       -0.00463490714474
O            0.24605522259052        2.68403090123516       -0.00809311818782
N           -0.84447795730592        0.67127003271470       -0.00857898458526
C           -2.13476852754981        1.32940249158779       -0.01148773570020
C           -0.87698455263120       -0.75073191128086       -0.00725689165465
O           -1.95183641842472       -1.30637650312539       -0.01337790664735
N            0.29969690401068       -1.42432507966191        0.00071282943509
C           -4.43421250272464       -4.26342975497455       -0.01860557841813
H            3.94035832298864        2.51987518455728        0.90919380084528
H            3.95907301093580        2.51519082065375       -0.86379096086094
H            2.50004406003513        3.04375547745098        0.00604473108951
H            4.59288351882828       -0.17334028854639        0.03335038066387
H           -1.96957310989584        2.40526547202091       -0.00520436946861
H           -2.69812963681162        1.03721203825594       -0.89885499766557
H           -2.70569883769761        1.02736884984843        0.86761646467847
H           -4.68437259992835       -4.76712996673444        0.89468621196261
H           -4.86716124545880       -4.59085775123271       -0.94388974499953
H           -3.74147062699248       -3.44060556349255       -0.00817861463628
H            2.96958659303087       -2.15796908249329        0.02424865400721

          :  Hamiltonian                  GFN2-xTB          :
         :: total energy             -42.136697169826 Eh    ::
         :: gradient norm              0.001181564553 Eh/a0 ::
         :: HOMO-LUMO gap              1.107194318925 eV    ::
         :: SCC energy               -42.664196571884 Eh    ::
         :: -> dispersion             -0.020091055448 Eh    ::
         :: repulsion energy           0.527504129759 Eh    ::

    * Orbital Energies and Occupations

         #    Occupation            Energy/Eh            Energy/eV
      -------------------------------------------------------------
         1        2.0000           -0.8986681             -24.4540
       ...           ...                  ...                  ...
        25        1.9998           -0.6499578             -17.6863
        26        1.9993           -0.6309303             -17.1685
        27        1.9993           -0.6298738             -17.1397
        28        1.9982           -0.6146715             -16.7261
        29        1.9980           -0.6136409             -16.6980
        30        1.9978           -0.6121621             -16.6578
        31        1.9970           -0.6068877             -16.5143
        32        1.9943           -0.5967183             -16.2375
        33        1.9641           -0.5673127             -15.4374
        34        1.9063           -0.5516544             -15.0113
        35        1.8985           -0.5503314             -14.9753
        36        1.8291           -0.5414848             -14.7346
        37        1.7359           -0.5337656             -14.5245 (HOMO)
        38        0.6695           -0.4930769             -13.4173 (LUMO)
        39        0.0120           -0.4230318             -11.5113
        40        0.0009           -0.3826105             -10.4114
        41        0.0001           -0.3498225              -9.5192
        42        0.0000           -0.2630215              -7.1572
        43                         -0.1804628              -4.9106
        44                         -0.1606975              -4.3728
        45                         -0.1189524              -3.2369
        46                         -0.0692960              -1.8856
        47                         -0.0231426              -0.6297
        48                         -0.0186762              -0.5082
       ...                                ...                  ...
        67                          0.5455614              14.8455
      -------------------------------------------------------------
                  HL-Gap            0.0406886 Eh            1.1072 eV

     #   Z          covCN         q      C6AA      α(0)
     1   6 C        3.692    -0.092    22.455     6.781
     2   7 N        2.827     0.086    19.747     6.600
     3   6 C        3.064     0.064    26.502     8.442
     4   7 N        2.794    -0.053    22.267     7.008
     5   6 C        3.067     0.149    24.709     8.151
     6   6 C        3.131    -0.021    28.319     8.712
     7   6 C        2.767     0.276    22.327     7.738
     8   8 O        0.858    -0.368    21.056     6.152
     9   7 N        2.747    -0.086    22.925     7.111
    10   6 C        3.704    -0.055    21.710     6.661
    11   6 C        2.754     0.339    21.238     7.546
    12   8 O        0.860    -0.351    20.732     6.105
    13   7 N        1.832    -0.248    27.320     7.746
    14   6 C        2.779    -0.072    29.769     8.936
    15   1 H        0.925     0.107     1.724     2.053
    16   1 H        0.925     0.107     1.724     2.053
    17   1 H        0.925     0.135     1.494     1.912
    18   1 H        0.926     0.125     1.573     1.961
    19   1 H        0.925     0.112     1.679     2.027
    20   1 H        0.924     0.101     1.772     2.082
    21   1 H        0.924     0.101     1.773     2.083
    22   1 H        0.926     0.131     1.527     1.933
    23   1 H        0.926     0.131     1.526     1.932
    24   1 H        0.926     0.143     1.437     1.874
    25   1 H        0.860     0.238     0.931     1.512

Wiberg/Mayer (AO) data.
largest (>0.10) Wiberg bond orders for each atom

     #   Z sym  total        # sym  WBO       # sym  WBO       # sym  WBO
 ---------------------------------------------------------------------------
     1   6 C    3.911 --     2 N    0.983    17 H    0.961    16 H    0.959
                            15 H    0.959
     2   7 N    3.710 --     3 C    1.393     6 C    1.182     1 C    0.983
     3   6 C    3.877 --     2 N    1.393     4 N    1.316    18 H    0.951
     4   7 N    3.595 --     3 C    1.316     5 C    1.153    25 H    0.916
     5   6 C    3.948 --    13 N    1.380     6 C    1.258     4 N    1.153
     6   6 C    3.807 --     5 C    1.258     2 N    1.182     7 C    1.077
     7   6 C    3.954 --     8 O    1.637     9 N    1.143     6 C    1.077
     8   8 O    1.941 --     7 C    1.637     9 N    0.140
     9   7 N    3.470 --     7 C    1.143    11 C    1.029    10 C    0.987
                             8 O    0.140
    10   6 C    3.892 --     9 N    0.987    19 H    0.961    21 H    0.951
                            20 H    0.951
    11   6 C    3.943 --    12 O    1.650    13 N    1.179     9 N    1.029
    12   8 O    1.910 --    11 C    1.650
    13   7 N    2.833 --     5 C    1.380    11 C    1.179
    14   6 C    2.936 --    22 H    0.980    23 H    0.980    24 H    0.976
    15   1 H    0.986 --     1 C    0.959
    16   1 H    0.986 --     1 C    0.959
    17   1 H    0.981 --     1 C    0.961
    18   1 H    0.983 --     3 C    0.951
    19   1 H    0.979 --    10 C    0.961
    20   1 H    0.969 --    10 C    0.951
    21   1 H    0.969 --    10 C    0.951
    22   1 H    0.982 --    14 C    0.980
    23   1 H    0.982 --    14 C    0.980
    24   1 H    0.978 --    14 C    0.976
    25   1 H    0.942 --     4 N    0.916
 ---------------------------------------------------------------------------

molecular dipole:
                 x           y           z       tot (Debye)
 q only:        1.722      -1.650       0.022
   full:        2.170      -1.698       0.026       7.003

           -------------------------------------------------
          | TOTAL ENERGY              -42.136697169826 Eh   |
          | GRADIENT NORM               0.001181564553 Eh/α |
          | HOMO-LUMO GAP               1.107194318925 eV   |
           -------------------------------------------------

 * finished run on 2024/06/05 at 19:58:03.768
