   * xtb version 6.6.1 (8d0f1dd) compiled by 'conda@1efc2f54142f' on 2023-08-01
          program call               : xtb struc.xyz --opt loose --input .xc1 --gfn2

   ID    Z sym.   atoms
    1    7 N      1, 17
    2    6 C      2-6, 8, 9, 11-16, 18-23, 25, 26, 28-33
    3    8 O      7, 10, 24, 27
    4    1 H      34-72
constraining bond 13 65 to    4.7133300 Å, actual value:    3.9446494 Å

          :  Hamiltonian                  GFN2-xTB          :
 * total energy  :   -99.5096326 Eh     change       -0.4035485E-08 Eh
 * total energy  :   -99.7103403 Eh     change       -0.2007077E+00 Eh
 * total energy  :   -99.9817463 Eh     change       -0.2714060E+00 Eh
 * total energy  :  -100.3456097 Eh     change       -0.3638634E+00 Eh
 * total energy  :  -100.8351579 Eh     change       -0.4895482E+00 Eh
 * total energy  :  -101.4498930 Eh     change       -0.6147351E+00 Eh
 * total energy  :  -100.3819138 Eh     change        0.1067979E+01 Eh
 * total energy  :  -101.7014389 Eh     change       -0.1319525E+01 Eh
 * total energy  :  -101.7715052 Eh     change       -0.7006630E-01 Eh
 * total energy  :  -101.8573894 Eh     change       -0.8588427E-01 Eh
 * total energy  :  -101.9768919 Eh     change       -0.1376930E-03 Eh
 * total energy  :  -101.9770570 Eh     change       -0.1650722E-03 Eh
 * total energy  :  -101.9771759 Eh     change       -0.1189308E-03 Eh
 * total energy  :  -101.9773356 Eh     change       -0.1597086E-03 Eh
 * total energy  :  -101.9774389 Eh     change       -0.1033095E-03 Eh
 * total energy  :  -101.9775285 Eh     change       -0.8959266E-04 Eh
 * total energy  :  -101.9775747 Eh     change       -0.4620713E-04 Eh
 * total energy  :  -101.9776270 Eh     change       -0.5229150E-04 Eh
 * total energy  :  -101.9776564 Eh     change       -0.2936232E-04 Eh
   *** GEOMETRY OPTIMIZATION CONVERGED AFTER 45 ITERATIONS ***

 final structure:
================
72
 xtb: 6.6.1 (8d0f1dd)
N           -2.21822951889267        2.73219346273035        2.51551023120918
C           -1.94112463846608        2.27530601362087        1.38051704372487
C           -3.00740118481198        2.05469108959112        0.31346663493784
C           -3.51353910573744        0.62461460007050        0.40206598390382
C           -4.35165888435437        0.13092903244524       -0.55684163341002
C           -4.81841096692883       -1.18970912913484       -0.54779323571730
O           -5.64292701622860       -1.73026062458394       -1.46049630662224
C           -6.17140698541111       -0.92597147432902       -2.48781856147864
C           -4.38800854557179       -2.08181746087190        0.49874256713982
O           -4.84711981001657       -3.34606732190749        0.36277571368084
C           -4.52004721641020       -4.29500117775009        1.35017946298369
C           -3.59568410904122       -1.62302590033266        1.49637504876705
C           -3.11833817879039       -0.19492370390083        1.60781183750444
C           -2.35351192646373        2.32082587261408       -1.07055874183002
C           -1.43132276004226        1.20016100134559       -1.58021691172031
C           -0.12821528138285        1.12272059376928       -0.88189803100865
N            0.46849895608401       -0.00669962301143       -0.48155162615394
C            1.86126131642643        0.01739700757087       -0.10135784201619
C            2.78444860570181       -0.34800163664560       -1.28079343932428
C            4.22246960044654       -0.15522312543880       -0.89212447503936
C            4.85620662251888        1.05544316112374       -1.11177621515180
C            6.17806760655175        1.24282942094421       -0.73658359441634
C            6.89007970268443        0.22133178329686       -0.12683493429317
O            8.17629094530519        0.29051652824660        0.27313734733684
C            8.89948893798918        1.47704396284915        0.04328708760076
C            6.24544182435366       -1.02218825263406        0.11088706614431
O            7.01056141705346       -1.96126128732515        0.70822527501281
C            6.46536618568409       -3.23469801716367        0.95395086005050
C            4.92481580068561       -1.18689780638344       -0.27253896470362
C           -0.12649708158575       -1.30607404922322       -0.68305145320402
C           -4.13311575592593        3.02362007276797        0.56923871714747
C           -5.12540335388510        2.69764742791738        1.61024038260150
C           -4.04615377590832        4.41052376172496        0.06185791004522
H           -4.66340516050303        0.78248449622046       -1.35765514967763
H           -6.73728411214693       -0.08059562798421       -2.08556116571772
H           -6.84191348807810       -1.57329570959578       -3.04976781987050
H           -5.38502338079728       -0.55693475951488       -3.15412979752421
H           -4.90722999059459       -4.00138497282723        2.33055969064983
H           -4.99695542167435       -5.22093378044867        1.03540426271728
H           -3.43835047811424       -4.44704368825394        1.41554925146377
H           -3.28948593293352       -2.26820131365564        2.30362386773573
H           -2.00188891504581       -0.24209401059734        1.61302746781707
H           -3.14740412938496        2.45154668119465       -1.80475615307663
H           -1.79048076315210        3.25352789718225       -1.01970361329531
H           -1.96052515638747        0.24951182429524       -1.54325111179863
H           -1.22976390423636        1.42152140759034       -2.63774788850124
H           -0.93238755513646        1.99210697407060        1.03606197521499
H            0.45871600043855        2.02470661398198       -0.80650040740146
H            2.02140963545829       -0.68586599329916        0.71999046383309
H            2.11909966817425        1.01803948478938        0.25170372570237
H            2.53917368793876        0.29800994537731       -2.12578806508988
H            2.60882000479968       -1.38370376936847       -1.57398975953873
H            4.32654276579930        1.86377417378593       -1.59305658862690
H            6.64726198896719        2.19327798275357       -0.93058518957729
H            8.45772455629349        2.32584274773206        0.57427127074938
H            8.96283004611072        1.70698664626763       -1.02461473682952
H            9.89852572987295        1.28979939428998        0.43172678433551
H            7.26663330229421       -3.81240427927529        1.41074797466580
H            5.61837777187972       -3.18260944146874        1.64615152599071
H            6.15092686648945       -3.72357006870394        0.02635770651895
H            4.42836602418610       -2.13011638656199       -0.10613804731044
H           -0.11417506514049       -1.59150902088553       -1.73870297911654
H           -1.15940725966853       -1.32005380400325       -0.33473507723886
H            0.43674835041635       -2.04494995018527       -0.11767860719902
H           -3.35350675746883        0.11883570564363        2.23974376817823
H           -4.65364157070633        2.83050896012110        2.59293854979307
H           -5.45748838938497        1.66211215453296        1.55240992989728
H           -5.98638023737102        3.35990737602205        1.55657091419017
H           -3.11383660214455        4.88318737495647        0.38327419744550
H           -4.05862431153931        4.45388675650195       -1.02898589497344
H           -4.87419345217511        5.00583842771512        0.43491646590692
H           -1.44617019397448        2.85401887209677        3.16354989846222

          :  Hamiltonian                  GFN2-xTB          :
         :: total energy            -101.977656369279 Eh    ::
         :: gradient norm              0.003725761990 Eh/a0 ::
         :: HOMO-LUMO gap              0.050426699540 eV    ::
         :: SCC energy              -100.709153244185 Eh    ::
         :: -> dispersion             -0.074363460749 Eh    ::
         :: repulsion energy           1.543826498246 Eh    ::

    * Orbital Energies and Occupations

         #    Occupation            Energy/Eh            Energy/eV
      -------------------------------------------------------------
         1        2.0000           -0.8132568             -22.1298
       ...           ...                  ...                  ...
        78        1.9996           -0.5350048             -14.5582
        79        1.9995           -0.5318247             -14.4717
        80        1.9994           -0.5304534             -14.4344
        81        1.9991           -0.5224214             -14.2158
        82        1.9988           -0.5188695             -14.1192
        83        1.9988           -0.5184493             -14.1077
        84        1.9979           -0.5099884             -13.8775
        85        1.9979           -0.5098251             -13.8730
        86        1.9861           -0.4795927             -13.0504
        87        1.9842           -0.4775437             -12.9946
        88        1.9820           -0.4754671             -12.9381
        89        1.8875           -0.4456794             -12.1276
        90        0.8250           -0.3954316             -10.7602 (HOMO)
        91        0.7689           -0.3935785             -10.7098 (LUMO)
        92        0.5179           -0.3843856             -10.4597
        93        0.0459           -0.3416431              -9.2966
        94        0.0073           -0.3121761              -8.4947
        95        0.0037           -0.3015729              -8.2062
        96        0.0032           -0.2989003              -8.1335
        97        0.0000           -0.2220570              -6.0425
        98        0.0000           -0.1761848              -4.7942
        99                         -0.1235391              -3.3617
       100                         -0.0715758              -1.9477
       101                         -0.0652578              -1.7758
       ...                                ...                  ...
       171                          1.4130247              38.4504
      -------------------------------------------------------------
                  HL-Gap            0.0018531 Eh            0.0504 eV

     #   Z          covCN         q      C6AA      α(0)
     1   7 N        1.774    -0.297    28.524     7.909
     2   6 C        2.826     0.090    25.984     8.353
     3   6 C        3.910     0.009    20.370     6.415
     4   6 C        2.960    -0.011    28.298     8.725
     5   6 C        2.902    -0.076    29.886     8.964
     6   6 C        2.860     0.121    25.336     8.250
     7   8 O        1.706    -0.213    17.539     5.654
     8   6 C        3.644     0.025    20.489     6.506
     9   6 C        2.848     0.129    25.174     8.223
    10   8 O        1.706    -0.242    18.010     5.730
    11   6 C        3.646     0.027    20.451     6.499
    12   6 C        2.900    -0.099    30.489     9.054
    13   6 C        3.809    -0.091    22.219     6.710
    14   6 C        3.807    -0.068    21.789     6.645
    15   6 C        3.802    -0.067    21.783     6.645
    16   6 C        2.841    -0.011    28.287     8.716
    17   7 N        2.728    -0.006    21.377     6.867
    18   6 C        3.757    -0.014    20.876     6.514
    19   6 C        3.808    -0.070    21.826     6.650
    20   6 C        2.969    -0.003    28.091     8.694
    21   6 C        2.922    -0.051    29.260     8.871
    22   6 C        2.914    -0.069    29.721     8.940
    23   6 C        2.865     0.131    25.131     8.217
    24   8 O        1.706    -0.229    17.795     5.696
    25   6 C        3.646     0.027    20.448     6.499
    26   6 C        2.863     0.131    25.134     8.218
    27   8 O        1.706    -0.231    17.832     5.701
    28   6 C        3.645     0.029    20.415     6.494
    29   6 C        2.920    -0.081    30.016     8.984
    30   6 C        3.699    -0.065    21.926     6.697
    31   6 C        2.949     0.015    27.687     8.630
    32   6 C        3.754    -0.123    22.917     6.826
    33   6 C        3.754    -0.117    22.792     6.807
    34   1 H        0.926     0.053     2.288     2.365
    35   1 H        0.924     0.056     2.244     2.343
    36   1 H        0.925     0.083     1.946     2.182
    37   1 H        0.924     0.051     2.309     2.377
    38   1 H        0.924     0.051     2.305     2.374
    39   1 H        0.925     0.079     1.988     2.205
    40   1 H        0.924     0.044     2.391     2.418
    41   1 H        0.926     0.050     2.317     2.380
    42   1 H        0.920     0.051     2.310     2.377
    43   1 H        0.925     0.055     2.253     2.347
    44   1 H        0.924     0.053     2.284     2.364
    45   1 H        0.925     0.062     2.175     2.307
    46   1 H        0.923     0.072     2.067     2.248
    47   1 H        0.923     0.011     2.868     2.649
    48   1 H        0.926     0.059     2.215     2.327
    49   1 H        0.924     0.062     2.174     2.306
    50   1 H        0.924     0.064     2.154     2.295
    51   1 H        0.924     0.051     2.307     2.375
    52   1 H        0.924     0.053     2.289     2.366
    53   1 H        0.926     0.041     2.437     2.441
    54   1 H        0.926     0.055     2.264     2.353
    55   1 H        0.924     0.051     2.310     2.377
    56   1 H        0.924     0.053     2.289     2.366
    57   1 H        0.925     0.079     1.989     2.205
    58   1 H        0.925     0.079     1.993     2.208
    59   1 H        0.924     0.046     2.376     2.410
    60   1 H        0.924     0.049     2.327     2.386
    61   1 H        0.926     0.044     2.396     2.421
    62   1 H        0.924     0.071     2.079     2.255
    63   1 H        0.925     0.074     2.039     2.233
    64   1 H        0.925     0.075     2.035     2.231
    65   1 H        0.931     0.129     1.544     1.943
    66   1 H        0.923     0.106     1.732     2.058
    67   1 H        0.925     0.063     2.168     2.303
    68   1 H        0.925     0.066     2.126     2.280
    69   1 H        0.924     0.069     2.098     2.265
    70   1 H        0.924     0.066     2.128     2.281
    71   1 H        0.925     0.068     2.109     2.271
    72   1 H        0.860     0.157     1.358     1.825

Wiberg/Mayer (AO) data.
largest (>0.10) Wiberg bond orders for each atom

     #   Z sym  total        # sym  WBO       # sym  WBO       # sym  WBO
 ---------------------------------------------------------------------------
     1   7 N    3.001 --     2 C    1.942    72 H    0.943
     2   6 C    3.869 --     1 N    1.942     3 C    0.947    47 H    0.913
     3   6 C    3.983 --    31 C    0.996     4 C    0.969    14 C    0.956
                             2 C    0.947
     4   6 C    3.683 --     5 C    1.553    13 C    1.021     3 C    0.969
     5   6 C    3.975 --     4 C    1.553     6 C    1.293    34 H    0.956
     6   6 C    3.652 --     5 C    1.293     9 C    1.132     7 O    1.121
     7   8 O    2.232 --     6 C    1.121     8 C    0.977
     8   6 C    3.931 --     7 O    0.977    36 H    0.976    35 H    0.973
                            37 H    0.972
     9   6 C    3.934 --    12 C    1.592     6 C    1.132    10 O    1.084
    10   8 O    2.255 --     9 C    1.084    11 C    0.979    12 C    0.107
    11   6 C    3.936 --    10 O    0.979    39 H    0.977    40 H    0.975
                            38 H    0.975
    12   6 C    3.780 --     9 C    1.592    13 C    1.025    41 H    0.964
                            10 O    0.107
    13   6 C    3.971 --    12 C    1.025     4 C    1.021    65 H    0.937
                            42 H    0.915
    14   6 C    3.960 --    15 C    0.987    44 H    0.973    43 H    0.971
                             3 C    0.956
    15   6 C    3.987 --    16 C    1.057    14 C    0.987    45 H    0.960
                            46 H    0.931
    16   6 C    3.498 --    17 N    1.351    15 C    1.057    48 H    0.959
    17   7 N    3.417 --    16 C    1.351    30 C    1.001    18 C    0.990
    18   6 C    3.958 --    17 N    0.990    50 H    0.968    49 H    0.966
                            19 C    0.966
    19   6 C    3.975 --    20 C    1.008    51 H    0.973    52 H    0.972
                            18 C    0.966
    20   6 C    3.953 --    21 C    1.417    29 C    1.376    19 C    1.008
    21   6 C    3.958 --    20 C    1.417    22 C    1.412    53 H    0.969
    22   6 C    3.965 --    21 C    1.412    23 C    1.390    54 H    0.964
    23   6 C    3.904 --    22 C    1.390    26 C    1.227    24 O    1.101
    24   8 O    2.254 --    23 C    1.101    25 C    0.978
    25   6 C    3.932 --    24 O    0.978    57 H    0.977    56 H    0.974
                            55 H    0.974
    26   6 C    3.908 --    29 C    1.401    23 C    1.227    27 O    1.095
    27   8 O    2.253 --    26 C    1.095    28 C    0.981
    28   6 C    3.936 --    27 O    0.981    58 H    0.977    59 H    0.974
                            60 H    0.974
    29   6 C    3.963 --    26 C    1.401    20 C    1.376    61 H    0.963
    30   6 C    3.962 --    17 N    1.001    64 H    0.978    63 H    0.967
                            62 H    0.966
    31   6 C    3.258 --    32 C    1.091    33 C    1.076     3 C    0.996
    32   6 C    3.972 --    31 C    1.091    68 H    0.973    67 H    0.961
                            66 H    0.906
    33   6 C    3.980 --    31 C    1.076    71 H    0.978    70 H    0.947
                            69 H    0.940
    34   1 H    0.996 --     5 C    0.956
    35   1 H    0.991 --     8 C    0.973
    36   1 H    0.993 --     8 C    0.976
    37   1 H    0.991 --     8 C    0.972
    38   1 H    0.996 --    11 C    0.975
    39   1 H    0.993 --    11 C    0.977
    40   1 H    0.997 --    11 C    0.975
    41   1 H    0.996 --    12 C    0.964
    42   1 H    0.956 --    13 C    0.915
    43   1 H    0.996 --    14 C    0.971
    44   1 H    0.996 --    14 C    0.973
    45   1 H    0.995 --    15 C    0.960
    46   1 H    0.964 --    15 C    0.931
    47   1 H    0.989 --     2 C    0.913
    48   1 H    0.996 --    16 C    0.959
    49   1 H    0.992 --    18 C    0.966
    50   1 H    0.995 --    18 C    0.968
    51   1 H    0.996 --    19 C    0.973
    52   1 H    0.996 --    19 C    0.972
    53   1 H    0.998 --    21 C    0.969
    54   1 H    0.996 --    22 C    0.964
    55   1 H    0.993 --    25 C    0.974
    56   1 H    0.993 --    25 C    0.974
    57   1 H    0.993 --    25 C    0.977
    58   1 H    0.993 --    28 C    0.977
    59   1 H    0.995 --    28 C    0.974
    60   1 H    0.994 --    28 C    0.974
    61   1 H    0.997 --    29 C    0.963
    62   1 H    0.982 --    30 C    0.966
    63   1 H    0.989 --    30 C    0.967
    64   1 H    0.994 --    30 C    0.978
    65   1 H    0.965 --    13 C    0.937
    66   1 H    0.935 --    32 C    0.906
    67   1 H    0.981 --    32 C    0.961
    68   1 H    0.990 --    32 C    0.973
    69   1 H    0.957 --    33 C    0.940
    70   1 H    0.966 --    33 C    0.947
    71   1 H    0.994 --    33 C    0.978
    72   1 H    0.972 --     1 N    0.943
 ---------------------------------------------------------------------------

molecular dipole:
                 x           y           z       tot (Debye)
 q only:       -1.150       0.731      -0.377
   full:       -0.747       0.824      -0.522       3.123

           -------------------------------------------------
          | TOTAL ENERGY             -101.977656369279 Eh   |
          | GRADIENT NORM               0.003725761990 Eh/α |
          | HOMO-LUMO GAP               0.050426699540 eV   |
           -------------------------------------------------

 * finished run on 2024/04/06 at 11:16:33.072
