   * xtb version 6.6.1 (8d0f1dd) compiled by 'conda@1efc2f54142f' on 2023-08-01
          program call               : xtb xtbopt.xyz --opt crude --input .xc2 --gfn2

   ID    Z sym.   atoms
    1    7 N      1, 17
    2    6 C      2-6, 8, 9, 11-16, 18-23, 25, 26, 28-33
    3    8 O      7, 10, 24, 27
    4    1 H      34-72
########################################################################
[WARNING] Please study the warnings concerning your input carefully
-1- readin_getIntValue: could not parse ''
########################################################################

          :  Hamiltonian                  GFN2-xTB          :
 * total energy  :   -99.1640194 Eh     change       -0.8422774E-10 Eh
 * total energy  :   -99.3262790 Eh     change       -0.1622596E+00 Eh
 * total energy  :   -99.3279124 Eh     change       -0.1633379E-02 Eh
 * total energy  :   -99.3289068 Eh     change       -0.9944662E-03 Eh
 * total energy  :   -99.3290846 Eh     change       -0.1777313E-03 Eh
   *** GEOMETRY OPTIMIZATION CONVERGED AFTER 5 ITERATIONS ***

 final structure:
================
72
 xtb: 6.6.1 (8d0f1dd)
N           -2.22210448316960        2.71421488204396        2.51521720105804
C           -1.94237992268678        2.27060917153068        1.37685129195088
C           -3.00520645278615        2.05001567789541        0.30697859480882
C           -3.50428285337966        0.61684872633819        0.39216262644935
C           -4.36121538437685        0.13127176709846       -0.55731751623744
C           -4.82002282745731       -1.19226181810949       -0.55385513733543
O           -5.64971443991114       -1.73177253992880       -1.46375738199837
C           -6.18005759036315       -0.92739625990821       -2.49019465610709
C           -4.38375285499932       -2.08909996689808        0.48529099745801
O           -4.86241737064821       -3.34754980628801        0.36139859989708
C           -4.53305803625158       -4.29551795195431        1.34939460052615
C           -3.56587930136962       -1.63810423861297        1.46918264026553
C           -3.08634883405963       -0.22710224288310        1.55057690142390
C           -2.35215035965011        2.32026400476195       -1.07656532757819
C           -1.42503297535225        1.20441280466335       -1.58670372470678
C           -0.12468984807513        1.12662773574786       -0.88292066512965
N            0.47189365737180       -0.00337573447271       -0.48457758092221
C            1.86435479823190        0.01966843859426       -0.10330015421836
C            2.78743287911799       -0.34727155380004       -1.28236621082933
C            4.22552634900126       -0.15527034267138       -0.89332467656761
C            4.85955466768516        1.05544385043757       -1.11201030835698
C            6.18115077254318        1.24266104163805       -0.73585134823334
C            6.89259609207272        0.22083225365235       -0.12608281485652
O            8.17839572225369        0.28961916751363        0.27505904482471
C            8.90208294902284        1.47621031181067        0.04672158875834
C            6.24779654456493       -1.02289190234305        0.11038214613594
O            7.01266668706424       -1.96228480106375        0.70758105861669
C            6.46736180620700       -3.23584007205018        0.95250768736949
C            4.92743554413187       -1.18738015676877       -0.27398696173061
C           -0.12383625154515       -1.30196126259470       -0.68616049391037
C           -4.13331436235263        3.01629514998867        0.56245152672922
C           -5.12017344372088        2.69202409805733        1.60782058066456
C           -4.04995824987468        4.40300368243340        0.05332574840556
H           -4.69219191743399        0.78984035091410       -1.34558321758482
H           -6.74826418654838       -0.08389801149845       -2.08686038438348
H           -6.84878778482702       -1.57548229360288       -3.05334536909945
H           -5.39430191504155       -0.55526871137386       -3.15568489936558
H           -4.90833331909557       -3.99486463002992        2.33210412039520
H           -5.01998934657361       -5.21911187609266        1.04343505953957
H           -3.45170505346946       -4.45632091362946        1.40566869469330
H           -3.24908747793673       -2.28521026227321        2.26994944896501
H           -1.98901145026169       -0.22010081024651        1.64942029574541
H           -3.14704950347399        2.44635169238354       -1.81073385720205
H           -1.79393230126425        3.25573723756188       -1.02627269918778
H           -1.95268551261926        0.25294727520516       -1.55628466440578
H           -1.21857621549591        1.43074645309156       -2.64213616239344
H           -0.93074905409422        2.00630116430510        1.03043967500979
H            0.46277962365143        2.02839315621217       -0.80604487588891
H            2.02345498773627       -0.68360662317694        0.71823468314141
H            2.12336032847482        1.02006376589784        0.24943084738248
H            2.54287125314473        0.29843740198582       -2.12792881750101
H            2.61115101036437       -1.38305625068453       -1.57492848066398
H            4.33028568565150        1.86406943392961       -1.59323865150006
H            6.65050401929021        2.19322906026371       -0.92902750114710
H            8.46087824640505        2.32444994517654        0.57936511040602
H            8.96514605950447        1.70781328331024       -1.02094737761399
H            9.90136523073962        1.28794323802664        0.43444101982614
H            7.26763746288875       -3.81300622677391        1.41158580304626
H            5.61862543366073       -3.18390349131636        1.64246933987284
H            6.15556137885740       -3.72518906523757        0.02433895187483
H            4.43081333902221       -2.13071418229177       -0.10852796984856
H           -0.10931864497140       -1.58875442910513       -1.74132572448092
H           -1.15706690053749       -1.31400014599803       -0.33967648349904
H            0.43741447761274       -2.04109036197081       -0.11865879702804
H           -3.44787566313899        0.22921183695788        2.47900886610896
H           -4.64364920915194        2.82504792759312        2.58718046293934
H           -5.45437378868485        1.65754649179908        1.55218531000255
H           -5.97962026222606        3.35519767423056        1.55925870487707
H           -3.11534733264996        4.87623126736145        0.36829234694804
H           -4.07084725385833        4.44643054518843       -1.03736189635947
H           -4.87522954828187        4.99839837556525        0.43250231890863
H           -1.44999192561659        2.83838811696872        3.16259373545168

          :  Hamiltonian                  GFN2-xTB          :
         :: total energy             -99.329084603109 Eh    ::
         :: gradient norm              0.006803427893 Eh/a0 ::
         :: HOMO-LUMO gap              0.054674202617 eV    ::
         :: SCC energy              -100.686064638636 Eh    ::
         :: -> dispersion             -0.074372851972 Eh    ::
         :: repulsion energy           1.355675394886 Eh    ::

    * Orbital Energies and Occupations

         #    Occupation            Energy/Eh            Energy/eV
      -------------------------------------------------------------
         1        2.0000           -0.8128300             -22.1182
       ...           ...                  ...                  ...
        78        1.9996           -0.5348728             -14.5546
        79        1.9995           -0.5311514             -14.4534
        80        1.9994           -0.5304531             -14.4344
        81        1.9991           -0.5224112             -14.2155
        82        1.9988           -0.5189544             -14.1215
        83        1.9988           -0.5185142             -14.1095
        84        1.9979           -0.5099767             -13.8772
        85        1.9978           -0.5088420             -13.8463
        86        1.9863           -0.4798211             -13.0566
        87        1.9842           -0.4775580             -12.9950
        88        1.9811           -0.4746629             -12.9162
        89        1.8876           -0.4456679             -12.1272
        90        0.8291           -0.3955401             -10.7632 (HOMO)
        91        0.7682           -0.3935309             -10.7085 (LUMO)
        92        0.5164           -0.3842968             -10.4572
        93        0.0448           -0.3412083              -9.2847
        94        0.0072           -0.3119317              -8.4881
        95        0.0037           -0.3015555              -8.2057
        96        0.0032           -0.2989014              -8.1335
        97        0.0000           -0.2231243              -6.0715
        98        0.0000           -0.1761737              -4.7939
        99                         -0.1232107              -3.3527
       100                         -0.0688448              -1.8734
       101                         -0.0638725              -1.7381
       ...                                ...                  ...
       171                          0.5884571              16.0127
      -------------------------------------------------------------
                  HL-Gap            0.0020092 Eh            0.0547 eV

     #   Z          covCN         q      C6AA      α(0)
     1   7 N        1.774    -0.298    28.538     7.911
     2   6 C        2.827     0.091    25.964     8.350
     3   6 C        3.910     0.009    20.374     6.416
     4   6 C        2.961    -0.007    28.187     8.708
     5   6 C        2.903    -0.075    29.874     8.962
     6   6 C        2.860     0.121    25.330     8.249
     7   8 O        1.706    -0.214    17.552     5.656
     8   6 C        3.644     0.025    20.487     6.506
     9   6 C        2.849     0.129    25.166     8.222
    10   8 O        1.706    -0.241    17.997     5.728
    11   6 C        3.646     0.027    20.450     6.499
    12   6 C        2.901    -0.094    30.369     9.036
    13   6 C        3.810    -0.061    21.671     6.626
    14   6 C        3.807    -0.068    21.787     6.645
    15   6 C        3.802    -0.067    21.775     6.644
    16   6 C        2.841    -0.011    28.283     8.716
    17   7 N        2.728    -0.006    21.371     6.866
    18   6 C        3.757    -0.014    20.874     6.514
    19   6 C        3.808    -0.070    21.825     6.650
    20   6 C        2.969    -0.003    28.091     8.694
    21   6 C        2.922    -0.051    29.260     8.871
    22   6 C        2.914    -0.069    29.721     8.940
    23   6 C        2.865     0.131    25.131     8.217
    24   8 O        1.706    -0.229    17.795     5.695
    25   6 C        3.646     0.027    20.448     6.499
    26   6 C        2.863     0.131    25.134     8.218
    27   8 O        1.706    -0.231    17.832     5.701
    28   6 C        3.645     0.029    20.415     6.494
    29   6 C        2.920    -0.081    30.015     8.984
    30   6 C        3.699    -0.065    21.921     6.696
    31   6 C        2.948     0.014    27.690     8.631
    32   6 C        3.755    -0.123    22.915     6.826
    33   6 C        3.754    -0.117    22.791     6.807
    34   1 H        0.926     0.053     2.285     2.364
    35   1 H        0.924     0.056     2.247     2.344
    36   1 H        0.925     0.083     1.946     2.182
    37   1 H        0.924     0.051     2.312     2.378
    38   1 H        0.924     0.051     2.305     2.374
    39   1 H        0.925     0.079     1.986     2.204
    40   1 H        0.924     0.044     2.390     2.418
    41   1 H        0.926     0.051     2.309     2.376
    42   1 H        0.923     0.054     2.267     2.354
    43   1 H        0.925     0.056     2.251     2.346
    44   1 H        0.924     0.053     2.284     2.363
    45   1 H        0.925     0.062     2.179     2.309
    46   1 H        0.923     0.072     2.067     2.248
    47   1 H        0.923     0.012     2.864     2.647
    48   1 H        0.926     0.058     2.217     2.328
    49   1 H        0.924     0.062     2.175     2.306
    50   1 H        0.924     0.064     2.155     2.296
    51   1 H        0.924     0.051     2.307     2.375
    52   1 H        0.924     0.053     2.289     2.366
    53   1 H        0.926     0.041     2.437     2.441
    54   1 H        0.926     0.055     2.264     2.353
    55   1 H        0.924     0.051     2.310     2.377
    56   1 H        0.924     0.053     2.289     2.366
    57   1 H        0.925     0.079     1.989     2.205
    58   1 H        0.925     0.079     1.993     2.208
    59   1 H        0.924     0.046     2.376     2.411
    60   1 H        0.924     0.049     2.327     2.386
    61   1 H        0.926     0.044     2.396     2.421
    62   1 H        0.924     0.070     2.083     2.257
    63   1 H        0.925     0.075     2.032     2.229
    64   1 H        0.925     0.074     2.038     2.233
    65   1 H        0.924     0.083     1.948     2.183
    66   1 H        0.924     0.106     1.734     2.060
    67   1 H        0.925     0.063     2.170     2.303
    68   1 H        0.925     0.067     2.122     2.278
    69   1 H        0.924     0.069     2.102     2.267
    70   1 H        0.924     0.066     2.125     2.279
    71   1 H        0.925     0.068     2.107     2.270
    72   1 H        0.860     0.157     1.355     1.823

Wiberg/Mayer (AO) data.
largest (>0.10) Wiberg bond orders for each atom

     #   Z sym  total        # sym  WBO       # sym  WBO       # sym  WBO
 ---------------------------------------------------------------------------
     1   7 N    3.002 --     2 C    1.941    72 H    0.943
     2   6 C    3.870 --     1 N    1.941     3 C    0.947    47 H    0.914
     3   6 C    3.983 --    31 C    0.996     4 C    0.968    14 C    0.956
                             2 C    0.947
     4   6 C    3.687 --     5 C    1.546    13 C    1.035     3 C    0.968
     5   6 C    3.974 --     4 C    1.546     6 C    1.296    34 H    0.957
     6   6 C    3.658 --     5 C    1.296     9 C    1.136     7 O    1.120
     7   8 O    2.232 --     6 C    1.120     8 C    0.977
     8   6 C    3.931 --     7 O    0.977    36 H    0.977    35 H    0.973
                            37 H    0.973
     9   6 C    3.934 --    12 C    1.583     6 C    1.136    10 O    1.086
    10   8 O    2.255 --     9 C    1.086    11 C    0.979    12 C    0.106
    11   6 C    3.936 --    10 O    0.979    39 H    0.977    40 H    0.975
                            38 H    0.975
    12   6 C    3.782 --     9 C    1.583    13 C    1.039    41 H    0.964
                            10 O    0.106
    13   6 C    3.985 --    12 C    1.039     4 C    1.035    42 H    0.926
                            65 H    0.915
    14   6 C    3.960 --    15 C    0.987    44 H    0.974    43 H    0.971
                             3 C    0.956
    15   6 C    3.987 --    16 C    1.056    14 C    0.987    45 H    0.960
                            46 H    0.931
    16   6 C    3.499 --    17 N    1.351    15 C    1.056    48 H    0.959
    17   7 N    3.418 --    16 C    1.351    30 C    1.001    18 C    0.990
    18   6 C    3.958 --    17 N    0.990    50 H    0.968    49 H    0.966
                            19 C    0.966
    19   6 C    3.975 --    20 C    1.008    51 H    0.973    52 H    0.972
                            18 C    0.966
    20   6 C    3.953 --    21 C    1.417    29 C    1.376    19 C    1.008
    21   6 C    3.958 --    20 C    1.417    22 C    1.412    53 H    0.969
    22   6 C    3.965 --    21 C    1.412    23 C    1.390    54 H    0.964
    23   6 C    3.904 --    22 C    1.390    26 C    1.227    24 O    1.101
    24   8 O    2.254 --    23 C    1.101    25 C    0.978
    25   6 C    3.932 --    24 O    0.978    57 H    0.977    56 H    0.974
                            55 H    0.974
    26   6 C    3.908 --    29 C    1.401    23 C    1.227    27 O    1.095
    27   8 O    2.253 --    26 C    1.095    28 C    0.981
    28   6 C    3.936 --    27 O    0.981    58 H    0.977    59 H    0.974
                            60 H    0.974
    29   6 C    3.963 --    26 C    1.401    20 C    1.376    61 H    0.963
    30   6 C    3.962 --    17 N    1.001    64 H    0.978    63 H    0.967
                            62 H    0.966
    31   6 C    3.259 --    32 C    1.091    33 C    1.075     3 C    0.996
    32   6 C    3.972 --    31 C    1.091    68 H    0.973    67 H    0.960
                            66 H    0.906
    33   6 C    3.980 --    31 C    1.075    71 H    0.978    70 H    0.947
                            69 H    0.940
    34   1 H    0.996 --     5 C    0.957
    35   1 H    0.991 --     8 C    0.973
    36   1 H    0.993 --     8 C    0.977
    37   1 H    0.991 --     8 C    0.973
    38   1 H    0.996 --    11 C    0.975
    39   1 H    0.993 --    11 C    0.977
    40   1 H    0.997 --    11 C    0.975
    41   1 H    0.996 --    12 C    0.964
    42   1 H    0.962 --    13 C    0.926
    43   1 H    0.996 --    14 C    0.971
    44   1 H    0.996 --    14 C    0.974
    45   1 H    0.995 --    15 C    0.960
    46   1 H    0.964 --    15 C    0.931
    47   1 H    0.988 --     2 C    0.914
    48   1 H    0.996 --    16 C    0.959
    49   1 H    0.992 --    18 C    0.966
    50   1 H    0.995 --    18 C    0.968
    51   1 H    0.996 --    19 C    0.973
    52   1 H    0.996 --    19 C    0.972
    53   1 H    0.998 --    21 C    0.969
    54   1 H    0.996 --    22 C    0.964
    55   1 H    0.993 --    25 C    0.974
    56   1 H    0.993 --    25 C    0.974
    57   1 H    0.993 --    25 C    0.977
    58   1 H    0.993 --    28 C    0.977
    59   1 H    0.995 --    28 C    0.974
    60   1 H    0.994 --    28 C    0.974
    61   1 H    0.997 --    29 C    0.963
    62   1 H    0.982 --    30 C    0.966
    63   1 H    0.989 --    30 C    0.967
    64   1 H    0.994 --    30 C    0.978
    65   1 H    0.948 --    13 C    0.915
    66   1 H    0.935 --    32 C    0.906
    67   1 H    0.981 --    32 C    0.960
    68   1 H    0.990 --    32 C    0.973
    69   1 H    0.958 --    33 C    0.940
    70   1 H    0.966 --    33 C    0.947
    71   1 H    0.994 --    33 C    0.978
    72   1 H    0.971 --     1 N    0.943
 ---------------------------------------------------------------------------

molecular dipole:
                 x           y           z       tot (Debye)
 q only:       -1.141       0.725      -0.406
   full:       -0.736       0.835      -0.515       3.117

           -------------------------------------------------
          | TOTAL ENERGY              -99.329084603109 Eh   |
          | GRADIENT NORM               0.006803427893 Eh/α |
          | HOMO-LUMO GAP               0.054674202617 eV   |
           -------------------------------------------------

 * finished run on 2024/04/06 at 11:16:34.206
