   * xtb version 6.6.1 (8d0f1dd) compiled by 'conda@1efc2f54142f' on 2023-08-01
          program call               : xtb struc.xyz --opt loose --input .xc1 --gfn2

   ID    Z sym.   atoms
    1    6 C      1, 3, 5-7, 10, 11, 14
    2    7 N      2, 4, 9, 13
    3    8 O      8, 12
    4    1 H      15-25
constraining bond 6 16 to    5.1400000 Å, actual value:    3.2546852 Å

          :  Hamiltonian                  GFN2-xTB          :
 * total energy  :   -16.8617935 Eh     change       -0.6650680E-10 Eh
 * total energy  :   -31.4273328 Eh     change       -0.1456554E+02 Eh
 * total energy  :   -38.6669343 Eh     change       -0.7239602E+01 Eh
 * total energy  :   -41.4370784 Eh     change       -0.2770144E+01 Eh
 * total energy  :   -41.8414860 Eh     change       -0.4044076E+00 Eh
 * total energy  :   -41.8742513 Eh     change       -0.3276533E-01 Eh
 * total energy  :   -41.8866233 Eh     change       -0.1237199E-01 Eh
 * total energy  :   -41.9069017 Eh     change       -0.2027835E-01 Eh
 * total energy  :   -41.9177935 Eh     change       -0.1089183E-01 Eh
 * total energy  :   -41.9281503 Eh     change       -0.1035683E-01 Eh
 * total energy  :   -42.1067947 Eh     change       -0.1209023E-02 Eh
 * total energy  :   -42.1070527 Eh     change       -0.2579207E-03 Eh
 * total energy  :   -42.1073951 Eh     change       -0.3424005E-03 Eh
 * total energy  :   -42.1075886 Eh     change       -0.1935867E-03 Eh
 * total energy  :   -42.1077099 Eh     change       -0.1212079E-03 Eh
 * total energy  :   -42.1078011 Eh     change       -0.9127302E-04 Eh
 * total energy  :   -42.1078768 Eh     change       -0.7567550E-04 Eh
 * total energy  :   -42.1079196 Eh     change       -0.4276128E-04 Eh
 * total energy  :   -42.1079526 Eh     change       -0.3304711E-04 Eh
   *** GEOMETRY OPTIMIZATION CONVERGED AFTER 38 ITERATIONS ***

 final structure:
================
25
 xtb: 6.6.1 (8d0f1dd)
C            3.07025456715219        1.06774221875083        0.22295397571692
N            2.20299743184312        0.06433319715683        0.17252991892809
C            2.46474732655157       -1.26420477631349        0.19306201897498
N            1.30280800324238       -1.96686437574614        0.12175188015319
C            0.27317806554518       -1.08069254778286        0.06080612267836
C            0.81692112442565        0.19215967271260        0.09134068559170
C           -0.00807465145104        1.37798962394901        0.06054576735072
O            0.38748264543293        2.51864355086544        0.08225481259457
N           -1.36497320284881        1.04586855653666        0.00544771464516
C           -2.32330908504202        2.14149508593095       -0.00076731665498
C           -1.93048109067804       -0.21436517398775       -0.03951685024167
O           -3.11536807654367       -0.38736137112086       -0.09625385019632
N           -1.04603983874919       -1.31660857824989       -0.01327615535960
C           -1.59324706411281       -2.65749675851366       -0.05009608656217
H            4.12196760035023        0.85615270980754        0.29956820183148
H            5.45827315642377        1.77046589098834       -1.45359228039334
H            2.69192149310847        2.07399191838859        0.17379915874472
H            3.44140064001859       -1.69680507185327        0.25746844405297
H           -1.76980825688734        3.07744788491166        0.01082720305544
H           -2.95044857260064        2.08155425518873       -0.89046012520828
H           -2.96780002523611        2.07307951822420        0.87633259985267
H           -1.31210239351894       -3.21041918301026        0.84674876286783
H           -1.25118464057843       -3.18620245126511       -0.94045930875958
H           -2.67860353579255       -2.56724757547586       -0.08627669946839
H            1.23991989404544       -2.97441767849222        0.12643302370546

          :  Hamiltonian                  GFN2-xTB          :
         :: total energy             -42.107952608334 Eh    ::
         :: gradient norm              0.003208456709 Eh/a0 ::
         :: HOMO-LUMO gap              0.320752116610 eV    ::
         :: SCC energy               -42.630939798366 Eh    ::
         :: -> dispersion             -0.022746030812 Eh    ::
         :: repulsion energy           0.522897301836 Eh    ::

    * Orbital Energies and Occupations

         #    Occupation            Energy/Eh            Energy/eV
      -------------------------------------------------------------
         1        2.0000           -0.9120695             -24.8187
       ...           ...                  ...                  ...
        25        1.9999           -0.6690203             -18.2050
        26        1.9999           -0.6686541             -18.1950
        27        1.9999           -0.6594431             -17.9444
        28        1.9995           -0.6378301             -17.3562
        29        1.9994           -0.6332952             -17.2328
        30        1.9991           -0.6278192             -17.0838
        31        1.9986           -0.6202615             -16.8782
        32        1.9952           -0.6009798             -16.3535
        33        1.9844           -0.5823578             -15.8468
        34        1.9550           -0.5653535             -15.3841
        35        1.9485           -0.5631745             -15.3248
        36        1.9432           -0.5615869             -15.2816
        37        1.2670           -0.5143033             -13.9949 (HOMO)
        38        0.9017           -0.5025159             -13.6742 (LUMO)
        39        0.0054           -0.4120014             -11.2111
        40        0.0030           -0.4026285             -10.9561
        41        0.0004           -0.3694607             -10.0535
        42        0.0000           -0.2877483              -7.8300
        43                         -0.2078071              -5.6547
        44                         -0.1873182              -5.0972
        45                         -0.1455435              -3.9604
        46                         -0.1165331              -3.1710
        47                         -0.0841434              -2.2897
        48                         -0.0513242              -1.3966
       ...                                ...                  ...
        67                          0.5538857              15.0720
      -------------------------------------------------------------
                  HL-Gap            0.0117874 Eh            0.3208 eV

     #   Z          covCN         q      C6AA      α(0)
     1   6 C        2.789    -0.068    29.679     8.924
     2   7 N        2.808     0.130    19.031     6.479
     3   6 C        3.039     0.026    27.387     8.584
     4   7 N        2.780    -0.057    22.348     7.021
     5   6 C        3.024     0.120    25.345     8.258
     6   6 C        3.109    -0.038    28.787     8.790
     7   6 C        2.764     0.275    22.353     7.743
     8   8 O        0.858    -0.355    20.797     6.114
     9   7 N        2.746    -0.080    22.805     7.093
    10   6 C        3.710    -0.062    21.840     6.679
    11   6 C        2.728     0.318    21.593     7.607
    12   8 O        0.860    -0.349    20.685     6.098
    13   7 N        2.738    -0.053    22.259     7.007
    14   6 C        3.696    -0.073    22.076     6.721
    15   1 H        0.926     0.110     1.695     2.036
    16   1 H        0.000     0.041     6.078     4.508
    17   1 H        0.926     0.141     1.455     1.887
    18   1 H        0.927     0.122     1.600     1.978
    19   1 H        0.925     0.117     1.641     2.003
    20   1 H        0.925     0.105     1.743     2.065
    21   1 H        0.924     0.103     1.758     2.074
    22   1 H        0.924     0.085     1.926     2.170
    23   1 H        0.924     0.086     1.914     2.163
    24   1 H        0.925     0.129     1.540     1.941
    25   1 H        0.860     0.229     0.971     1.544

Wiberg/Mayer (AO) data.
largest (>0.10) Wiberg bond orders for each atom

     #   Z sym  total        # sym  WBO       # sym  WBO       # sym  WBO
 ---------------------------------------------------------------------------
     1   6 C    3.404 --     2 N    1.334    15 H    0.960    17 H    0.956
     2   7 N    3.764 --     1 C    1.334     3 C    1.245     6 C    1.087
     3   6 C    3.641 --     2 N    1.245     4 N    1.243    18 H    0.955
     4   7 N    3.527 --     3 C    1.243     5 C    1.193    25 H    0.919
     5   6 C    3.938 --     6 C    1.350    13 N    1.218     4 N    1.193
     6   6 C    3.844 --     5 C    1.350     2 N    1.087     7 C    1.084
     7   6 C    3.959 --     8 O    1.688     9 N    1.091     6 C    1.084
     8   8 O    2.021 --     7 C    1.688     9 N    0.138
     9   7 N    3.530 --    11 C    1.127     7 C    1.091    10 C    0.972
                             8 O    0.138    12 O    0.133
    10   6 C    3.897 --     9 N    0.972    19 H    0.965    20 H    0.957
                            21 H    0.957
    11   6 C    3.958 --    12 O    1.706     9 N    1.127    13 N    1.034
    12   8 O    2.046 --    11 C    1.706     9 N    0.133    13 N    0.117
    13   7 N    3.531 --     5 C    1.218    11 C    1.034    14 C    0.976
                            12 O    0.117
    14   6 C    3.919 --    13 N    0.976    22 H    0.968    23 H    0.968
                            24 H    0.963
    15   1 H    0.987 --     1 C    0.960
    16   1 H    0.025
    17   1 H    0.979 --     1 C    0.956
    18   1 H    0.984 --     3 C    0.955
    19   1 H    0.983 --    10 C    0.965
    20   1 H    0.976 --    10 C    0.957
    21   1 H    0.976 --    10 C    0.957
    22   1 H    0.986 --    14 C    0.968
    23   1 H    0.986 --    14 C    0.968
    24   1 H    0.982 --    14 C    0.963
    25   1 H    0.947 --     4 N    0.919
 ---------------------------------------------------------------------------

molecular dipole:
                 x           y           z       tot (Debye)
 q only:        2.262      -1.969       0.109
   full:        2.550      -2.435       0.124       8.966

           -------------------------------------------------
          | TOTAL ENERGY              -42.107952608334 Eh   |
          | GRADIENT NORM               0.003208456709 Eh/α |
          | HOMO-LUMO GAP               0.320752116610 eV   |
           -------------------------------------------------

 * finished run on 2024/06/05 at 20:00:13.188
