   * xtb version 6.6.1 (8d0f1dd) compiled by 'conda@1efc2f54142f' on 2023-08-01
          program call               : xtb xtbopt.xyz --opt crude --input .xc2 --gfn2

   ID    Z sym.   atoms
    1    6 C      1, 3, 5-7, 10, 11, 14
    2    7 N      2, 4, 9, 13
    3    8 O      8, 12
    4    1 H      15-25
########################################################################
[WARNING] Please study the warnings concerning your input carefully
-1- readin_getIntValue: could not parse ''
########################################################################

          :  Hamiltonian                  GFN2-xTB          :
 * total energy  :   -40.4278004 Eh     change        0.9237056E-13 Eh
 * total energy  :   -42.1330750 Eh     change       -0.1705275E+01 Eh
 * total energy  :   -42.1520754 Eh     change       -0.1900040E-01 Eh
 * total energy  :   -42.1552609 Eh     change       -0.3185498E-02 Eh
 * total energy  :   -42.1565058 Eh     change       -0.1244863E-02 Eh
 * total energy  :   -42.1570258 Eh     change       -0.5200624E-03 Eh
 * total energy  :   -42.1574914 Eh     change       -0.4655312E-03 Eh
 * total energy  :   -42.1577391 Eh     change       -0.2477243E-03 Eh
 * total energy  :   -42.1579360 Eh     change       -0.1968711E-03 Eh
 * total energy  :   -42.1580562 Eh     change       -0.1201894E-03 Eh
   *** GEOMETRY OPTIMIZATION CONVERGED AFTER 10 ITERATIONS ***

 final structure:
================
25
 xtb: 6.6.1 (8d0f1dd)
C            3.24831351269908        1.22516890368228       -0.00428463170615
N            2.18728265631523        0.30115947180923        0.02328801571191
C            3.47825023012530       -0.24943405179703        0.07565619074750
N            1.17472963030561       -2.19276268774864        0.12417303171087
C            0.35088669138521       -1.22663513954475        0.06496116694655
C            0.90886231255041        0.11846864904530        0.01315673060180
C            0.04216373954928        1.31408945687814       -0.05838092654310
O            0.50811500855208        2.43111411266241       -0.09467968273646
N           -1.30321135330569        1.04521986218945       -0.07928765011125
C           -2.23126672454459        2.16099615495450       -0.14663655005145
C           -1.88232308456976       -0.21959212481463       -0.03087955006937
O           -3.07640514470644       -0.35124361466165       -0.05064922138682
N           -1.02562081243074       -1.31320072044692        0.03916719592571
C           -1.63931983243489       -2.63010338182902        0.08189237726758
H            3.79304852602647       -0.70676501700335        1.00151795859800
H            3.42264219456571        1.74784080046330       -0.93962417266462
H            3.36855749356910        1.85771072057083        0.86862993746726
H            3.80834281913652       -0.78653168865004       -0.80695614371588
H           -1.65953232398080        3.07446251543171       -0.29462855779120
H           -2.93077102599356        2.00668747109385       -0.96846927284905
H           -2.80528383592364        2.22473389866369        0.77921987039867
H           -1.37499401679116       -3.14215071022736        1.00868369825650
H           -1.31791216309949       -3.22542636713522       -0.77449235225955
H           -2.71970144177648       -2.50206065046675        0.04138595415224
H            0.83557845887693       -3.14350732151965        0.15840820200048

          :  Hamiltonian                  GFN2-xTB          :
         :: total energy             -42.158056151998 Eh    ::
         :: gradient norm              0.005220966375 Eh/a0 ::
         :: HOMO-LUMO gap              1.716805105184 eV    ::
         :: SCC energy               -42.687713810629 Eh    ::
         :: -> dispersion             -0.021768845363 Eh    ::
         :: repulsion energy           0.529549757153 Eh    ::

    * Orbital Energies and Occupations

         #    Occupation            Energy/Eh            Energy/eV
      -------------------------------------------------------------
         1        2.0000           -0.8942504             -24.3338
       ...           ...                  ...                  ...
        25        1.9994           -0.6563544             -17.8603
        26        1.9993           -0.6551008             -17.8262
        27        1.9988           -0.6460326             -17.5794
        28        1.9988           -0.6454631             -17.5639
        29        1.9978           -0.6363518             -17.3160
        30        1.9966           -0.6291600             -17.1203
        31        1.9962           -0.6276519             -17.0793
        32        1.9924           -0.6164264             -16.7738
        33        1.9712           -0.5952774             -16.1983
        34        1.9503           -0.5864480             -15.9581
        35        1.9410           -0.5836708             -15.8825
        36        1.8924           -0.5737441             -15.6124
        37        1.8626           -0.5696239             -15.5003 (HOMO)
        38        0.4028           -0.5065325             -13.7835 (LUMO)
        39        0.0006           -0.3995293             -10.8717
        40        0.0003           -0.3888003             -10.5798
        41        0.0000           -0.3011716              -8.1953
        42        0.0000           -0.2765169              -7.5244
        43                         -0.2118580              -5.7649
        44                         -0.1676130              -4.5610
        45                         -0.1358373              -3.6963
        46                         -0.0958281              -2.6076
        47                         -0.0641468              -1.7455
        48                         -0.0493760              -1.3436
       ...                                ...                  ...
        67                          0.5601739              15.2431
      -------------------------------------------------------------
                  HL-Gap            0.0630914 Eh            1.7168 eV

     #   Z          covCN         q      C6AA      α(0)
     1   6 C        3.737    -0.017    20.967     6.534
     2   7 N        2.745     0.103    19.475     6.554
     3   6 C        3.738    -0.021    21.036     6.545
     4   7 N        1.791    -0.288    28.295     7.879
     5   6 C        2.826     0.165    24.441     8.101
     6   6 C        2.899     0.038    27.155     8.544
     7   6 C        2.772     0.268    22.486     7.766
     8   8 O        0.858    -0.338    20.479     6.067
     9   7 N        2.740    -0.066    22.522     7.048
    10   6 C        3.707    -0.063    21.853     6.682
    11   6 C        2.716     0.323    21.513     7.592
    12   8 O        0.860    -0.336    20.442     6.062
    13   7 N        2.741    -0.070    22.598     7.060
    14   6 C        3.703    -0.064    21.890     6.690
    15   1 H        0.926     0.129     1.544     1.943
    16   1 H        0.925     0.130     1.538     1.939
    17   1 H        0.925     0.130     1.532     1.936
    18   1 H        0.925     0.128     1.550     1.947
    19   1 H        0.925     0.118     1.631     1.997
    20   1 H        0.925     0.113     1.668     2.020
    21   1 H        0.924     0.111     1.689     2.033
    22   1 H        0.924     0.093     1.853     2.129
    23   1 H        0.924     0.092     1.857     2.131
    24   1 H        0.925     0.123     1.587     1.970
    25   1 H        0.860     0.201     1.100     1.643

Wiberg/Mayer (AO) data.
largest (>0.10) Wiberg bond orders for each atom

     #   Z sym  total        # sym  WBO       # sym  WBO       # sym  WBO
 ---------------------------------------------------------------------------
     1   6 C    3.885 --     3 C    0.975     2 N    0.967    16 H    0.940
                            17 H    0.940
     2   7 N    3.529 --     6 C    1.504     1 C    0.967     3 C    0.967
     3   6 C    3.886 --     1 C    0.975     2 N    0.967    15 H    0.941
                            18 H    0.940
     4   7 N    2.845 --     5 C    1.677    25 H    0.921    13 N    0.122
     5   6 C    3.947 --     4 N    1.677    13 N    1.123     6 C    1.057
     6   6 C    3.784 --     2 N    1.504     5 C    1.057     7 C    1.002
     7   6 C    3.930 --     8 O    1.683     9 N    1.151     6 C    1.002
     8   8 O    1.972 --     7 C    1.683     9 N    0.148
     9   7 N    3.523 --     7 C    1.151    11 C    1.080    10 C    0.974
                             8 O    0.148    12 O    0.104
    10   6 C    3.882 --     9 N    0.974    19 H    0.964    20 H    0.952
                            21 H    0.948
    11   6 C    3.949 --    12 O    1.696    13 N    1.090     9 N    1.080
    12   8 O    2.014 --    11 C    1.696    13 N    0.113     9 N    0.104
    13   7 N    3.492 --     5 C    1.123    11 C    1.090    14 C    0.978
                             4 N    0.122    12 O    0.113
    14   6 C    3.905 --    13 N    0.978    24 H    0.961    23 H    0.960
                            22 H    0.959
    15   1 H    0.972 --     3 C    0.941
    16   1 H    0.972 --     1 C    0.940
    17   1 H    0.972 --     1 C    0.940
    18   1 H    0.972 --     3 C    0.940
    19   1 H    0.981 --    10 C    0.964
    20   1 H    0.969 --    10 C    0.952
    21   1 H    0.966 --    10 C    0.948
    22   1 H    0.978 --    14 C    0.959
    23   1 H    0.978 --    14 C    0.960
    24   1 H    0.981 --    14 C    0.961
    25   1 H    0.951 --     4 N    0.921
 ---------------------------------------------------------------------------

molecular dipole:
                 x           y           z       tot (Debye)
 q only:        2.116      -0.632       0.046
   full:        1.850      -0.870       0.059       5.198

           -------------------------------------------------
          | TOTAL ENERGY              -42.158056151998 Eh   |
          | GRADIENT NORM               0.005220966375 Eh/α |
          | HOMO-LUMO GAP               1.716805105184 eV   |
           -------------------------------------------------

 * finished run on 2024/06/05 at 19:58:04.335
