   * xtb version 6.6.1 (8d0f1dd) compiled by 'conda@1efc2f54142f' on 2023-08-01
          program call               : xtb struc.xyz --opt loose --input .xc1 --gfn2

   ID    Z sym.   atoms
    1    6 C      1, 3, 5-7, 10, 11, 14
    2    7 N      2, 4, 9, 13
    3    8 O      8, 12
    4    1 H      15-25
constraining bond 3 16 to    3.7133300 Å, actual value:    2.7548643 Å

          :  Hamiltonian                  GFN2-xTB          :
 * total energy  :   -43.8855740 Eh     change       -0.6633627E-10 Eh
 * total energy  :   -47.2443088 Eh     change       -0.3358735E+01 Eh
 * total energy  :   -52.4122795 Eh     change       -0.5167971E+01 Eh
 * total energy  :   -58.9317184 Eh     change       -0.6519439E+01 Eh
 * total energy  :   -38.4366347 Eh     change        0.2049508E+02 Eh
 * total energy  :   -56.5747158 Eh     change       -0.1813808E+02 Eh
 * total energy  :   -56.7902007 Eh     change       -0.2154848E+00 Eh
 * total energy  :   -58.4920889 Eh     change       -0.1701888E+01 Eh
 * total energy  :   -57.8412383 Eh     change        0.6508506E+00 Eh
 * total energy  :   -59.2735516 Eh     change       -0.1432313E+01 Eh
 * total energy  :   -59.7274790 Eh     change       -0.5448798E-04 Eh
 * total energy  :   -59.7276347 Eh     change       -0.1557362E-03 Eh
 * total energy  :   -59.7277203 Eh     change       -0.8559384E-04 Eh
 * total energy  :   -59.7278523 Eh     change       -0.1320034E-03 Eh
 * total energy  :   -59.7279730 Eh     change       -0.1206574E-03 Eh
 * total energy  :   -59.7280449 Eh     change       -0.7187325E-04 Eh
 * total energy  :   -59.7280786 Eh     change       -0.3378726E-04 Eh
 * total energy  :   -59.7281054 Eh     change       -0.2673992E-04 Eh
 * total energy  :   -59.7281214 Eh     change       -0.1601078E-04 Eh
   *** GEOMETRY OPTIMIZATION CONVERGED AFTER 54 ITERATIONS ***

 final structure:
================
25
 xtb: 6.6.1 (8d0f1dd)
C            3.23442501010967        1.20909472469668       -0.04734603612486
N            2.18094199548462        0.28777904256390       -0.06945719192796
C            3.50005168769567       -0.29934829788535       -0.16014043029428
N            1.20500607963140       -2.19381252892872       -0.11068849251245
C            0.36147142103266       -1.24693842867166       -0.07291985408767
C            0.92247494642042        0.10851573898156       -0.03146694799897
C            0.04396307513599        1.32125428001687        0.05784114810557
O            0.53190786188255        2.42385177449385        0.11037735764689
N           -1.28622929206672        1.04116810858389        0.06981856568982
C           -2.22719751864379        2.15091130890782        0.14601513236621
C           -1.86789832238037       -0.23241381177731        0.02110776906416
O           -3.05754047330065       -0.36019321093954        0.05013848132784
N           -1.00926477704565       -1.32598750402035       -0.05881390384216
C           -1.62266062628243       -2.64583171497936       -0.11657717018895
H            3.39345359664651        1.75592098453836        0.87444432413884
H            3.64317143333837       -0.49093359036845       -0.51071614808242
H            3.35802426314180        1.82306640310519       -0.93421531446706
H            3.74752001906929       -0.71695374425997        0.85403187414428
H           -1.66433204122471        3.06832434567916        0.29705918939296
H           -2.80208159426336        2.21109488380091       -0.77810620587576
H           -2.91906594802352        1.98541370150309        0.97074547991594
H           -1.34574485925547       -3.23115600780729        0.76146743307524
H           -1.31164687277833       -3.16442656125399       -1.02440796075215
H           -2.70291296916057       -2.51698999456644       -0.13096636998979
H            0.85459541893671       -3.14317135981261       -0.13605311082232

          :  Hamiltonian                  GFN2-xTB          :
         :: total energy             -59.728121391712 Eh    ::
         :: gradient norm              0.003312604289 Eh/a0 ::
         :: HOMO-LUMO gap              1.493686798472 eV    ::
         :: SCC energy               -42.688634448372 Eh    ::
         :: -> dispersion             -0.021822833419 Eh    ::
         :: repulsion energy           2.274942290247 Eh    ::

    * Orbital Energies and Occupations

         #    Occupation            Energy/Eh            Energy/eV
      -------------------------------------------------------------
         1        2.0000           -0.9111930             -24.7948
       ...           ...                  ...                  ...
        25        2.0000           -0.6648232             -18.0908
        26        2.0000           -0.6591709             -17.9370
        27        2.0000           -0.6551360             -17.8272
        28        2.0000           -0.6501587             -17.6917
        29        2.0000           -0.6434915             -17.5103
        30        2.0000           -0.6355444             -17.2940
        31        2.0000           -0.6232868             -16.9605
        32        1.9998           -0.6125795             -16.6691
        33        1.9982           -0.5936044             -16.1528
        34        1.9962           -0.5877359             -15.9931
        35        1.9913           -0.5810961             -15.8124
        36        1.9714           -0.5716037             -15.5541
        37        1.9574           -0.5684035             -15.4670 (HOMO)
        38        0.0857           -0.5135115             -13.9734 (LUMO)
        39                         -0.3989372             -10.8556
        40                         -0.3905852             -10.6284
        41                         -0.3167218              -8.6184
        42                         -0.3045912              -8.2883
        43                         -0.2213825              -6.0241
        44                         -0.1789283              -4.8689
        45                         -0.1421679              -3.8686
        46                         -0.1090199              -2.9666
        47                         -0.0780049              -2.1226
        48                         -0.0615150              -1.6739
       ...                                ...                  ...
        67                         10.7227954             291.7821
      -------------------------------------------------------------
                  HL-Gap            0.0548920 Eh            1.4937 eV

     #   Z          covCN         q      C6AA      α(0)
     1   6 C        3.737    -0.024    21.079     6.552
     2   7 N        2.748     0.112    19.318     6.528
     3   6 C        3.731    -0.067    21.872     6.676
     4   7 N        1.793    -0.305    28.743     7.941
     5   6 C        2.827     0.167    24.389     8.092
     6   6 C        2.900     0.058    26.701     8.472
     7   6 C        2.771     0.271    22.422     7.755
     8   8 O        0.858    -0.345    20.616     6.088
     9   7 N        2.739    -0.071    22.611     7.062
    10   6 C        3.708    -0.064    21.872     6.685
    11   6 C        2.714     0.324    21.486     7.588
    12   8 O        0.860    -0.337    20.465     6.065
    13   7 N        2.740    -0.080    22.795     7.091
    14   6 C        3.703    -0.063    21.864     6.686
    15   1 H        0.925     0.137     1.482     1.904
    16   1 H        0.936     0.199     1.105     1.644
    17   1 H        0.925     0.141     1.455     1.887
    18   1 H        0.919     0.133     1.512     1.923
    19   1 H        0.925     0.111     1.685     2.030
    20   1 H        0.925     0.104     1.748     2.068
    21   1 H        0.925     0.108     1.718     2.050
    22   1 H        0.924     0.086     1.916     2.165
    23   1 H        0.924     0.086     1.917     2.165
    24   1 H        0.925     0.119     1.620     1.990
    25   1 H        0.860     0.198     1.116     1.655

Wiberg/Mayer (AO) data.
largest (>0.10) Wiberg bond orders for each atom

     #   Z sym  total        # sym  WBO       # sym  WBO       # sym  WBO
 ---------------------------------------------------------------------------
     1   6 C    3.888 --     2 N    0.980     3 C    0.963    15 H    0.941
                            17 H    0.935
     2   7 N    3.688 --     6 C    1.633     1 C    0.980     3 C    0.938
     3   6 C    3.849 --     1 C    0.963     2 N    0.938    16 H    0.937
                            18 H    0.921
     4   7 N    2.987 --     5 C    1.708    25 H    0.925    13 N    0.159
     5   6 C    3.970 --     4 N    1.708    13 N    1.140     6 C    1.030
     6   6 C    3.896 --     2 N    1.633     5 C    1.030     7 C    0.958
     7   6 C    3.962 --     8 O    1.705     9 N    1.195     6 C    0.958
     8   8 O    2.068 --     7 C    1.705     9 N    0.183
     9   7 N    3.582 --     7 C    1.195    11 C    1.057    10 C    0.966
                             8 O    0.183    12 O    0.102
    10   6 C    3.910 --    19 H    0.971     9 N    0.966    21 H    0.962
                            20 H    0.960
    11   6 C    3.959 --    12 O    1.729    13 N    1.087     9 N    1.057
    12   8 O    2.089 --    11 C    1.729    13 N    0.120     9 N    0.102
    13   7 N    3.547 --     5 C    1.140    11 C    1.087    14 C    0.972
                             4 N    0.159    12 O    0.120
    14   6 C    3.922 --    13 N    0.972    23 H    0.968    22 H    0.967
                            24 H    0.966
    15   1 H    0.978 --     1 C    0.941
    16   1 H    0.960 --     3 C    0.937
    17   1 H    0.977 --     1 C    0.935
    18   1 H    0.977 --     3 C    0.921
    19   1 H    0.987 --    10 C    0.971
    20   1 H    0.982 --    10 C    0.960
    21   1 H    0.983 --    10 C    0.962
    22   1 H    0.989 --    14 C    0.967
    23   1 H    0.989 --    14 C    0.968
    24   1 H    0.985 --    14 C    0.966
    25   1 H    0.957 --     4 N    0.925
 ---------------------------------------------------------------------------

molecular dipole:
                 x           y           z       tot (Debye)
 q only:        2.529      -0.500      -0.036
   full:        2.226      -0.706       0.012       5.934

           -------------------------------------------------
          | TOTAL ENERGY              -59.728121391712 Eh   |
          | GRADIENT NORM               0.003312604289 Eh/α |
          | HOMO-LUMO GAP               1.493686798472 eV   |
           -------------------------------------------------

 * finished run on 2024/06/05 at 19:58:10.373
