   * xtb version 6.6.1 (8d0f1dd) compiled by 'conda@1efc2f54142f' on 2023-08-01
          program call               : xtb xtbopt.xyz --opt crude --input .xc2 --gfn2

   ID    Z sym.   atoms
    1    6 C      1, 3, 5-7, 10, 11, 14
    2    7 N      2, 4, 9, 13
    3    8 O      8, 12
    4    1 H      15-25
########################################################################
[WARNING] Please study the warnings concerning your input carefully
-1- readin_getIntValue: could not parse ''
########################################################################

          :  Hamiltonian                  GFN2-xTB          :
 * total energy  :   -40.4135833 Eh     change       -0.1705303E-12 Eh
 * total energy  :   -42.1182405 Eh     change       -0.1704657E+01 Eh
 * total energy  :   -42.1375502 Eh     change       -0.1930973E-01 Eh
 * total energy  :   -42.1411059 Eh     change       -0.3555710E-02 Eh
 * total energy  :   -42.1422409 Eh     change       -0.1134925E-02 Eh
 * total energy  :   -42.1427987 Eh     change       -0.5578475E-03 Eh
 * total energy  :   -42.1432508 Eh     change       -0.4520473E-03 Eh
 * total energy  :   -42.1435027 Eh     change       -0.2519351E-03 Eh
 * total energy  :   -42.1436894 Eh     change       -0.1866813E-03 Eh
 * total energy  :   -42.1438158 Eh     change       -0.1263998E-03 Eh
   *** GEOMETRY OPTIMIZATION CONVERGED AFTER 10 ITERATIONS ***

 final structure:
================
25
 xtb: 6.6.1 (8d0f1dd)
C            3.22784095755471        1.23973685318444        0.02450830663462
N            2.17405376772368        0.30672281819492       -0.00759831933065
C            3.46989562363668       -0.23361778447877       -0.02829801788894
N            1.20148716707515       -2.18545524351592       -0.09612124094825
C            0.35810942402698       -1.23942105227891       -0.05845354074153
C            0.91610963200074        0.11831992047041       -0.01109522381973
C            0.03147175374862        1.32797952883075        0.04490511823630
O            0.51358332839025        2.43436679402691        0.07051343630989
N           -1.29786263106324        1.04528838117993        0.06771673676020
C           -2.24167230117930        2.15275075299022        0.13497611566210
C           -1.87585518001788       -0.22975569989678        0.01520703890140
O           -3.06572520313604       -0.36087074775708        0.02897602923040
N           -1.01307668483098       -1.32062455322931       -0.05175095693467
C           -1.62236098898124       -2.64288522406989       -0.10464685931309
H            3.37863881160984        1.78209653549290        0.95302214744441
H            3.80496783843232       -0.70929063734446       -0.93713997557171
H            3.35151663435206        1.86115436607523       -0.85650008888555
H            3.77920635661664       -0.75564954250791        0.87054795985764
H           -1.68061570078611        3.07347431516465        0.27111888913771
H           -2.82229273858555        2.19999612887084       -0.78614602338579
H           -2.92755916435003        1.99512192130970        0.96603770557742
H           -1.33234709549629       -3.22705883340825        0.76969376888671
H           -1.32074776424883       -3.16006291832743       -1.01617887017122
H           -2.70296050364103       -2.51778509471194       -0.10605034901558
H            0.85662617524883       -3.13629244266397       -0.12607216873001

          :  Hamiltonian                  GFN2-xTB          :
         :: total energy             -42.143815784592 Eh    ::
         :: gradient norm              0.006042065062 Eh/a0 ::
         :: HOMO-LUMO gap              1.496147531163 eV    ::
         :: SCC energy               -42.679625483265 Eh    ::
         :: -> dispersion             -0.021796451425 Eh    ::
         :: repulsion energy           0.535699797254 Eh    ::

    * Orbital Energies and Occupations

         #    Occupation            Energy/Eh            Energy/eV
      -------------------------------------------------------------
         1        2.0000           -0.9021094             -24.5476
       ...           ...                  ...                  ...
        25        2.0000           -0.6618041             -18.0086
        26        2.0000           -0.6573342             -17.8870
        27        2.0000           -0.6524304             -17.7535
        28        2.0000           -0.6460958             -17.5812
        29        2.0000           -0.6419799             -17.4692
        30        2.0000           -0.6339190             -17.2498
        31        2.0000           -0.6222594             -16.9325
        32        1.9999           -0.6113843             -16.6366
        33        1.9982           -0.5918573             -16.1053
        34        1.9963           -0.5860136             -15.9462
        35        1.9919           -0.5797307             -15.7753
        36        1.9735           -0.5702425             -15.5171
        37        1.9567           -0.5663010             -15.4098 (HOMO)
        38        0.0835           -0.5113185             -13.9137 (LUMO)
        39                         -0.3972564             -10.8099
        40                         -0.3890610             -10.5869
        41                         -0.3030323              -8.2459
        42                         -0.2894385              -7.8760
        43                         -0.2131583              -5.8003
        44                         -0.1721822              -4.6853
        45                         -0.1368762              -3.7246
        46                         -0.1040591              -2.8316
        47                         -0.0735507              -2.0014
        48                         -0.0511335              -1.3914
       ...                                ...                  ...
        67                          0.5792630              15.7625
      -------------------------------------------------------------
                  HL-Gap            0.0549824 Eh            1.4961 eV

     #   Z          covCN         q      C6AA      α(0)
     1   6 C        3.738    -0.021    21.023     6.543
     2   7 N        2.745     0.134    18.960     6.467
     3   6 C        3.738    -0.025    21.094     6.554
     4   7 N        1.792    -0.307    28.790     7.948
     5   6 C        2.827     0.168    24.383     8.091
     6   6 C        2.899     0.055    26.766     8.483
     7   6 C        2.772     0.271    22.422     7.755
     8   8 O        0.858    -0.347    20.649     6.093
     9   7 N        2.739    -0.072    22.628     7.065
    10   6 C        3.708    -0.063    21.864     6.683
    11   6 C        2.714     0.324    21.488     7.588
    12   8 O        0.860    -0.338    20.487     6.069
    13   7 N        2.740    -0.081    22.808     7.093
    14   6 C        3.703    -0.063    21.861     6.685
    15   1 H        0.925     0.138     1.472     1.897
    16   1 H        0.926     0.139     1.470     1.896
    17   1 H        0.925     0.139     1.466     1.893
    18   1 H        0.925     0.138     1.478     1.901
    19   1 H        0.925     0.111     1.689     2.032
    20   1 H        0.925     0.104     1.752     2.070
    21   1 H        0.925     0.106     1.728     2.056
    22   1 H        0.924     0.086     1.923     2.169
    23   1 H        0.924     0.086     1.923     2.169
    24   1 H        0.925     0.119     1.620     1.991
    25   1 H        0.860     0.198     1.115     1.654

Wiberg/Mayer (AO) data.
largest (>0.10) Wiberg bond orders for each atom

     #   Z sym  total        # sym  WBO       # sym  WBO       # sym  WBO
 ---------------------------------------------------------------------------
     1   6 C    3.885 --     3 C    0.976     2 N    0.962    15 H    0.937
                            17 H    0.936
     2   7 N    3.696 --     6 C    1.634     3 C    0.963     1 C    0.962
     3   6 C    3.887 --     1 C    0.976     2 N    0.963    16 H    0.937
                            18 H    0.936
     4   7 N    2.988 --     5 C    1.710    25 H    0.925    13 N    0.159
     5   6 C    3.970 --     4 N    1.710    13 N    1.140     6 C    1.028
     6   6 C    3.898 --     2 N    1.634     5 C    1.028     7 C    0.960
     7   6 C    3.962 --     8 O    1.704     9 N    1.195     6 C    0.960
     8   8 O    2.066 --     7 C    1.704     9 N    0.183
     9   7 N    3.581 --     7 C    1.195    11 C    1.057    10 C    0.966
                             8 O    0.183    12 O    0.102
    10   6 C    3.911 --    19 H    0.971     9 N    0.966    21 H    0.963
                            20 H    0.960
    11   6 C    3.959 --    12 O    1.728    13 N    1.087     9 N    1.057
    12   8 O    2.088 --    11 C    1.728    13 N    0.120     9 N    0.102
    13   7 N    3.547 --     5 C    1.140    11 C    1.087    14 C    0.972
                             4 N    0.159    12 O    0.120
    14   6 C    3.923 --    13 N    0.972    23 H    0.968    22 H    0.968
                            24 H    0.966
    15   1 H    0.977 --     1 C    0.937
    16   1 H    0.977 --     3 C    0.937
    17   1 H    0.977 --     1 C    0.936
    18   1 H    0.977 --     3 C    0.936
    19   1 H    0.987 --    10 C    0.971
    20   1 H    0.983 --    10 C    0.960
    21   1 H    0.983 --    10 C    0.963
    22   1 H    0.989 --    14 C    0.968
    23   1 H    0.989 --    14 C    0.968
    24   1 H    0.985 --    14 C    0.966
    25   1 H    0.957 --     4 N    0.925
 ---------------------------------------------------------------------------

molecular dipole:
                 x           y           z       tot (Debye)
 q only:        2.594      -0.506      -0.012
   full:        2.314      -0.743      -0.027       6.178

           -------------------------------------------------
          | TOTAL ENERGY              -42.143815784592 Eh   |
          | GRADIENT NORM               0.006042065062 Eh/α |
          | HOMO-LUMO GAP               1.496147531163 eV   |
           -------------------------------------------------

 * finished run on 2024/06/05 at 19:58:10.774
