   * xtb version 6.6.1 (8d0f1dd) compiled by 'conda@1efc2f54142f' on 2023-08-01
          program call               : xtb struc.xyz --opt loose --input .xc1 --gfn2

   ID    Z sym.   atoms
    1    6 C      1, 3, 5-7, 10, 11, 14
    2    7 N      2, 4, 9, 13
    3    8 O      8, 12
    4    1 H      15-25
constraining bond 2 16 to    2.6866700 Å, actual value:    2.0856233 Å

          :  Hamiltonian                  GFN2-xTB          :
 * total energy  :   -42.9050865 Eh     change       -0.2401990E-09 Eh
 * total energy  :   -45.2214738 Eh     change       -0.2316387E+01 Eh
 * total energy  :   -48.8953482 Eh     change       -0.3673874E+01 Eh
 * total energy  :   -21.8054175 Eh     change        0.2708993E+02 Eh
 * total energy  :   -47.8728336 Eh     change       -0.2606742E+02 Eh
 * total energy  :   -47.8974395 Eh     change       -0.2460589E-01 Eh
 * total energy  :   -48.1210059 Eh     change       -0.2235663E+00 Eh
 * total energy  :   -48.2707338 Eh     change       -0.1497280E+00 Eh
 * total energy  :   -48.5830318 Eh     change       -0.3122980E+00 Eh
 * total energy  :   -49.2190482 Eh     change       -0.6360164E+00 Eh
 * total energy  :   -49.6745720 Eh     change       -0.6117452E-03 Eh
 * total energy  :   -49.6749470 Eh     change       -0.3749981E-03 Eh
 * total energy  :   -49.6751646 Eh     change       -0.2175856E-03 Eh
 * total energy  :   -49.6753530 Eh     change       -0.1883912E-03 Eh
 * total energy  :   -49.6755123 Eh     change       -0.1592681E-03 Eh
 * total energy  :   -49.6756644 Eh     change       -0.1521876E-03 Eh
 * total energy  :   -49.6757561 Eh     change       -0.9167738E-04 Eh
 * total energy  :   -49.6757894 Eh     change       -0.3330532E-04 Eh
 * total energy  :   -49.6758181 Eh     change       -0.2867947E-04 Eh
   *** GEOMETRY OPTIMIZATION CONVERGED AFTER 60 ITERATIONS ***

 final structure:
================
25
 xtb: 6.6.1 (8d0f1dd)
C            2.98172564696047        1.68021142346257        0.27805724878541
N            2.43047380857045        0.58066377484673       -0.23647844095250
C            2.72267533165500       -1.98001337438152       -0.00467961123842
N            1.41962575203569       -2.06170900665588       -0.00366426525184
C            0.56789394314072       -0.97287837406644       -0.05988802372110
C            1.04655103870426        0.33613801296225       -0.09110900487697
C            0.12109466716804        1.45643826548425       -0.06783011434649
O            0.46910772173234        2.62131060093104       -0.09196293465994
N           -1.22176156663649        1.10557618650300       -0.03868157790891
C           -2.21215294552014        2.16799460444558       -0.03036748511814
C           -1.71907667414006       -0.17679134676256       -0.03296637185501
O           -2.90179185657417       -0.40470147327984       -0.02115410602905
N           -0.77867816275834       -1.21410225299127       -0.03499921233619
C           -1.31511785192356       -2.56334414708845       -0.00480577471928
H            4.01643074919228        1.85475480541647        0.03808688021044
H            2.70265220961357        0.26571079456871       -0.50819874118357
H            2.43904163126500        2.38397545436100        0.87944662016755
H            3.28365980253917       -2.90162703578454        0.07588878663648
H           -1.68999644775356        3.12065736828390        0.03567185194039
H           -2.80809187265662        2.12953951874684       -0.94354941346748
H           -2.88297689044175        2.03797033684858        0.81958943756238
H           -1.04189289486098       -3.07867617907507        0.91854076448428
H           -0.99958601257654       -3.13418622347479       -0.88003977415144
H           -2.40256780136032       -2.47307568197369       -0.03113560537415
H            0.93319018872502       -2.96159750972692        0.06740048530428

          :  Hamiltonian                  GFN2-xTB          :
         :: total energy             -49.675818101893 Eh    ::
         :: gradient norm              0.003704246709 Eh/a0 ::
         :: HOMO-LUMO gap              1.421379497425 eV    ::
         :: SCC energy               -42.671038591124 Eh    ::
         :: -> dispersion             -0.022715788893 Eh    ::
         :: repulsion energy           1.555311091844 Eh    ::

    * Orbital Energies and Occupations

         #    Occupation            Energy/Eh            Energy/eV
      -------------------------------------------------------------
         1        2.0000           -0.8875703             -24.1520
       ...           ...                  ...                  ...
        25        1.9987           -0.6713223             -18.2676
        26        1.9981           -0.6623861             -18.0244
        27        1.9980           -0.6618476             -18.0098
        28        1.9952           -0.6408439             -17.4383
        29        1.9946           -0.6383244             -17.3697
        30        1.9939           -0.6353797             -17.2896
        31        1.9877           -0.6184944             -16.8301
        32        1.9829           -0.6106155             -16.6157
        33        1.9578           -0.5888236             -16.0227
        34        1.9190           -0.5728765             -15.5888
        35        1.9125           -0.5709769             -15.5371
        36        1.8770           -0.5624383             -15.3047
        37        1.5691           -0.5284071             -14.3787 (HOMO)
        38        0.5753           -0.4761724             -12.9573 (LUMO)
        39        0.2011           -0.4456635             -12.1271
        40        0.0274           -0.3961304             -10.7793
        41        0.0154           -0.3822471             -10.4015
        42        0.0004           -0.2968107              -8.0766
        43        0.0000           -0.2081458              -5.6639
        44        0.0000           -0.1594354              -4.3385
        45        0.0000           -0.1381992              -3.7606
        46        0.0000           -0.1230112              -3.3473
        47                         -0.0875512              -2.3824
        48                         -0.0249688              -0.6794
       ...                                ...                  ...
        67                          3.8225454             104.0168
      -------------------------------------------------------------
                  HL-Gap            0.0522347 Eh            1.4214 eV

     #   Z          covCN         q      C6AA      α(0)
     1   6 C        2.833    -0.029    28.704     8.780
     2   7 N        2.687    -0.035    21.916     6.953
     3   6 C        1.858    -0.120    34.488     9.486
     4   7 N        2.688    -0.017    21.577     6.899
     5   6 C        2.850     0.103    25.714     8.311
     6   6 C        2.923    -0.022    28.557     8.764
     7   6 C        2.769     0.262    22.593     7.784
     8   8 O        0.859    -0.354    20.784     6.112
     9   7 N        2.741    -0.068    22.553     7.053
    10   6 C        3.708    -0.062    21.839     6.680
    11   6 C        2.724     0.315    21.651     7.617
    12   8 O        0.860    -0.351    20.720     6.103
    13   7 N        2.744    -0.056    22.326     7.018
    14   6 C        3.699    -0.075    22.095     6.722
    15   1 H        0.926     0.125     1.570     1.959
    16   1 H        0.930     0.267     0.814     1.411
    17   1 H        0.926     0.145     1.427     1.868
    18   1 H        0.925     0.100     1.782     2.087
    19   1 H        0.925     0.123     1.586     1.969
    20   1 H        0.924     0.111     1.689     2.032
    21   1 H        0.924     0.112     1.678     2.026
    22   1 H        0.924     0.089     1.888     2.149
    23   1 H        0.924     0.089     1.888     2.149
    24   1 H        0.924     0.136     1.489     1.908
    25   1 H        0.859     0.209     1.062     1.614

Wiberg/Mayer (AO) data.
largest (>0.10) Wiberg bond orders for each atom

     #   Z sym  total        # sym  WBO       # sym  WBO       # sym  WBO
 ---------------------------------------------------------------------------
     1   6 C    3.497 --     2 N    1.450    15 H    0.959    17 H    0.955
     2   7 N    3.502 --     1 C    1.450     6 C    1.075    16 H    0.900
     3   6 C    2.536 --     4 N    1.503    18 H    0.928
     4   7 N    3.602 --     3 C    1.503     5 C    1.125    25 H    0.879
     5   6 C    3.796 --     6 C    1.345    13 N    1.177     4 N    1.125
     6   6 C    3.785 --     5 C    1.345     7 C    1.086     2 N    1.075
     7   6 C    3.914 --     8 O    1.637     9 N    1.099     6 C    1.086
     8   8 O    1.938 --     7 C    1.637     9 N    0.118
     9   7 N    3.496 --    11 C    1.122     7 C    1.099    10 C    0.975
                            12 O    0.120     8 O    0.118
    10   6 C    3.872 --     9 N    0.975    19 H    0.956    21 H    0.949
                            20 H    0.947
    11   6 C    3.937 --    12 O    1.667     9 N    1.122    13 N    1.063
    12   8 O    1.981 --    11 C    1.667     9 N    0.120    13 N    0.112
    13   7 N    3.482 --     5 C    1.177    11 C    1.063    14 C    0.980
                            12 O    0.112
    14   6 C    3.908 --    13 N    0.980    23 H    0.961    22 H    0.959
                            24 H    0.951
    15   1 H    0.980 --     1 C    0.959
    16   1 H    0.927 --     2 N    0.900
    17   1 H    0.974 --     1 C    0.955
    18   1 H    0.947 --     3 C    0.928
    19   1 H    0.974 --    10 C    0.956
    20   1 H    0.965 --    10 C    0.947
    21   1 H    0.967 --    10 C    0.949
    22   1 H    0.980 --    14 C    0.959
    23   1 H    0.981 --    14 C    0.961
    24   1 H    0.976 --    14 C    0.951
    25   1 H    0.920 --     4 N    0.879
 ---------------------------------------------------------------------------

molecular dipole:
                 x           y           z       tot (Debye)
 q only:        1.837      -1.166       0.046
   full:        1.853      -1.811       0.010       6.585

           -------------------------------------------------
          | TOTAL ENERGY              -49.675818101893 Eh   |
          | GRADIENT NORM               0.003704246709 Eh/α |
          | HOMO-LUMO GAP               1.421379497425 eV   |
           -------------------------------------------------

 * finished run on 2024/06/05 at 19:58:57.006
