   * xtb version 6.6.1 (8d0f1dd) compiled by 'conda@1efc2f54142f' on 2023-08-01
          program call               : xtb xtbopt.xyz --opt crude --input .xc2 --gfn2

   ID    Z sym.   atoms
    1    6 C      1, 3, 5-7, 10, 11, 14
    2    7 N      2, 4, 9, 13
    3    8 O      8, 12
    4    1 H      15-25
########################################################################
[WARNING] Please study the warnings concerning your input carefully
-1- readin_getIntValue: could not parse ''
########################################################################

          :  Hamiltonian                  GFN2-xTB          :
 * total energy  :   -41.1155904 Eh     change       -0.1193712E-11 Eh
 * total energy  :   -42.1065860 Eh     change       -0.9909956E+00 Eh
 * total energy  :   -42.1233629 Eh     change       -0.1677693E-01 Eh
 * total energy  :   -42.1275402 Eh     change       -0.4177315E-02 Eh
 * total energy  :   -42.1289267 Eh     change       -0.1386467E-02 Eh
 * total energy  :   -42.1302261 Eh     change       -0.1299340E-02 Eh
 * total energy  :   -42.1319309 Eh     change       -0.1704817E-02 Eh
 * total energy  :   -42.1343001 Eh     change       -0.2369238E-02 Eh
 * total energy  :   -42.1366697 Eh     change       -0.2369638E-02 Eh
 * total energy  :   -42.1384128 Eh     change       -0.1743004E-02 Eh
 * total energy  :   -42.1672484 Eh     change       -0.5813363E-02 Eh
 * total energy  :   -42.1702312 Eh     change       -0.2982752E-02 Eh
 * total energy  :   -42.1730286 Eh     change       -0.2797391E-02 Eh
 * total energy  :   -42.1759784 Eh     change       -0.2949856E-02 Eh
 * total energy  :   -42.1779400 Eh     change       -0.1961567E-02 Eh
 * total energy  :   -42.1787423 Eh     change       -0.8023341E-03 Eh
 * total energy  :   -42.1810682 Eh     change       -0.2325891E-02 Eh
 * total energy  :   -42.1819066 Eh     change       -0.8384368E-03 Eh
 * total energy  :   -42.1821097 Eh     change       -0.2031087E-03 Eh
   *** GEOMETRY OPTIMIZATION CONVERGED AFTER 24 ITERATIONS ***

 final structure:
================
25
 xtb: 6.6.1 (8d0f1dd)
C            2.95440372518204        1.81889061177250       -0.05019121555470
N            2.35021401783379        0.70808961958696        0.04361558097656
C            2.71685563221757       -2.01560957754872        0.22404517541785
N            1.42479691261204       -1.96748899411260       -0.07329575378155
C            0.57960149243541       -0.88673305216534       -0.02467566167342
C            1.02427775387069        0.44401895557743        0.02318864794610
C            0.04668500936414        1.53412656796733        0.04388882037458
O            0.35686224862092        2.70900560962252        0.08397494314537
N           -1.28252962461383        1.14443527270081        0.00476021131092
C           -2.30563072730400        2.17597739165967        0.02965228522861
C           -1.73723065658601       -0.15187061347579       -0.04438732454160
O           -2.91315971168763       -0.41611079850630       -0.06616822060593
N           -0.76588793957257       -1.15735116092507       -0.06746049980936
C           -1.26554598853684       -2.52115638189459       -0.08160574468443
H            4.02979154695853        1.81131666973899        0.03238157543918
H            3.21584304001250       -1.13312796301810        0.59582826562826
H            2.45012595887408        2.78183604999572       -0.19097676586807
H            3.24258943641794       -2.94172560206454        0.08070844916558
H           -1.81377959411770        3.14537085127538        0.08262768902206
H           -2.91858750553069        2.11124779938302       -0.87066841788514
H           -2.95435135227569        2.03156650079928        0.89453178316350
H           -0.88959783488410       -3.08555337758887        0.77277941830573
H           -1.02387245551436       -3.02578535413086       -1.01935702901895
H           -2.35275319638756       -2.46259722789877       -0.00662480221638
H            0.99131132671054       -2.83253325515063       -0.38539979158435

          :  Hamiltonian                  GFN2-xTB          :
         :: total energy             -42.182109750953 Eh    ::
         :: gradient norm              0.007822360633 Eh/a0 ::
         :: HOMO-LUMO gap              1.167018286948 eV    ::
         :: SCC energy               -42.707669623586 Eh    ::
         :: -> dispersion             -0.022477453552 Eh    ::
         :: repulsion energy           0.525437087494 Eh    ::

    * Orbital Energies and Occupations

         #    Occupation            Energy/Eh            Energy/eV
      -------------------------------------------------------------
         1        2.0000           -0.8856203             -24.0990
       ...           ...                  ...                  ...
        25        1.9984           -0.6687765             -18.1983
        26        1.9979           -0.6623082             -18.0223
        27        1.9972           -0.6551986             -17.8289
        28        1.9946           -0.6393727             -17.3982
        29        1.9940           -0.6369807             -17.3331
        30        1.9921           -0.6301698             -17.1478
        31        1.9869           -0.6182637             -16.8238
        32        1.9836           -0.6127811             -16.6746
        33        1.9674           -0.5963217             -16.2267
        34        1.9443           -0.5833153             -15.8728
        35        1.9158           -0.5731608             -15.5965
        36        1.8324           -0.5557572             -15.1229
        37        1.5569           -0.5288040             -14.3895 (HOMO)
        38        0.7322           -0.4859168             -13.2225 (LUMO)
        39        0.0702           -0.4202474             -11.4355
        40        0.0337           -0.4023615             -10.9488
        41        0.0077           -0.3670444              -9.9878
        42        0.0002           -0.2838528              -7.7240
        43        0.0000           -0.2016111              -5.4861
        44        0.0000           -0.1607788              -4.3750
        45        0.0000           -0.1382806              -3.7628
        46                         -0.0916903              -2.4950
        47                         -0.0788505              -2.1456
        48                         -0.0281261              -0.7654
       ...                                ...                  ...
        67                          0.5299958              14.4219
      -------------------------------------------------------------
                  HL-Gap            0.0428871 Eh            1.1670 eV

     #   Z          covCN         q      C6AA      α(0)
     1   6 C        2.784     0.019    27.562     8.599
     2   7 N        1.831    -0.105    24.067     7.270
     3   6 C        2.773    -0.044    29.080     8.832
     4   7 N        2.689    -0.013    21.513     6.889
     5   6 C        2.841     0.100    25.782     8.321
     6   6 C        2.908     0.020    27.572     8.610
     7   6 C        2.769     0.262    22.593     7.785
     8   8 O        0.859    -0.340    20.515     6.073
     9   7 N        2.740    -0.066    22.528     7.049
    10   6 C        3.708    -0.060    21.801     6.674
    11   6 C        2.724     0.316    21.622     7.612
    12   8 O        0.860    -0.352    20.738     6.106
    13   7 N        2.745    -0.056    22.320     7.017
    14   6 C        3.700    -0.079    22.173     6.734
    15   1 H        0.926     0.119     1.625     1.994
    16   1 H        0.926     0.134     1.501     1.916
    17   1 H        0.924     0.134     1.503     1.917
    18   1 H        0.926     0.119     1.617     1.989
    19   1 H        0.925     0.122     1.596     1.976
    20   1 H        0.924     0.111     1.688     2.032
    21   1 H        0.924     0.111     1.685     2.030
    22   1 H        0.924     0.090     1.884     2.146
    23   1 H        0.924     0.088     1.894     2.152
    24   1 H        0.924     0.138     1.477     1.901
    25   1 H        0.860     0.232     0.957     1.533

Wiberg/Mayer (AO) data.
largest (>0.10) Wiberg bond orders for each atom

     #   Z sym  total        # sym  WBO       # sym  WBO       # sym  WBO
 ---------------------------------------------------------------------------
     1   6 C    3.672 --     2 N    1.738    15 H    0.936    17 H    0.882
     2   7 N    3.037 --     1 C    1.738     6 C    1.205
     3   6 C    3.404 --     4 N    1.409    18 H    0.962    16 H    0.943
     4   7 N    3.559 --     3 C    1.409     5 C    1.157    25 H    0.897
     5   6 C    3.809 --     6 C    1.292    13 N    1.169     4 N    1.157
     6   6 C    3.749 --     5 C    1.292     2 N    1.205     7 C    1.038
     7   6 C    3.886 --     8 O    1.646     9 N    1.104     6 C    1.038
     8   8 O    1.932 --     7 C    1.646     9 N    0.112
     9   7 N    3.483 --    11 C    1.121     7 C    1.104    10 C    0.973
                            12 O    0.117     8 O    0.112
    10   6 C    3.868 --     9 N    0.973    19 H    0.956    21 H    0.948
                            20 H    0.948
    11   6 C    3.938 --    12 O    1.662     9 N    1.121    13 N    1.069
    12   8 O    1.971 --    11 C    1.662     9 N    0.117    13 N    0.112
    13   7 N    3.474 --     5 C    1.169    11 C    1.069    14 C    0.981
                            12 O    0.112
    14   6 C    3.909 --    13 N    0.981    22 H    0.963    23 H    0.957
                            24 H    0.951
    15   1 H    0.954 --     1 C    0.936
    16   1 H    0.978 --     3 C    0.943
    17   1 H    0.910 --     1 C    0.882
    18   1 H    0.980 --     3 C    0.962
    19   1 H    0.974 --    10 C    0.956
    20   1 H    0.965 --    10 C    0.948
    21   1 H    0.965 --    10 C    0.948
    22   1 H    0.981 --    14 C    0.963
    23   1 H    0.979 --    14 C    0.957
    24   1 H    0.976 --    14 C    0.951
    25   1 H    0.942 --     4 N    0.897
 ---------------------------------------------------------------------------

molecular dipole:
                 x           y           z       tot (Debye)
 q only:        1.826      -1.850      -0.088
   full:        1.864      -1.908      -0.159       6.793

           -------------------------------------------------
          | TOTAL ENERGY              -42.182109750953 Eh   |
          | GRADIENT NORM               0.007822360633 Eh/α |
          | HOMO-LUMO GAP               1.167018286948 eV   |
           -------------------------------------------------

 * finished run on 2024/06/05 at 19:58:57.841
