   * xtb version 6.6.1 (8d0f1dd) compiled by 'conda@1efc2f54142f' on 2023-08-01
          program call               : xtb struc.xyz --opt loose --input .xc1 --gfn2

   ID    Z sym.   atoms
    1    7 N      1, 17
    2    6 C      2-6, 8, 9, 11-16, 18-23, 25, 26, 28-33
    3    8 O      7, 10, 24, 27
    4    1 H      34-72
constraining bond 30 50 to    5.1400000 Å, actual value:    3.3693880 Å

          :  Hamiltonian                  GFN2-xTB          :
 * total energy  :   -98.8443547 Eh     change       -0.4035485E-08 Eh
 * total energy  :   -99.0480567 Eh     change       -0.2037020E+00 Eh
 * total energy  :   -99.1557379 Eh     change       -0.1076812E+00 Eh
 * total energy  :   -99.2022279 Eh     change       -0.4649001E-01 Eh
 * total energy  :   -99.2199090 Eh     change       -0.1768115E-01 Eh
 * total energy  :   -99.2257489 Eh     change       -0.5839817E-02 Eh
 * total energy  :   -99.2277831 Eh     change       -0.2034207E-02 Eh
 * total energy  :   -99.2293165 Eh     change       -0.1533468E-02 Eh
 * total energy  :   -99.2304376 Eh     change       -0.1121035E-02 Eh
 * total energy  :   -99.2317514 Eh     change       -0.1313834E-02 Eh
 * total energy  :   -99.3492231 Eh     change       -0.1392372E-03 Eh
 * total energy  :   -99.3493333 Eh     change       -0.1102448E-03 Eh
 * total energy  :   -99.3494070 Eh     change       -0.7367845E-04 Eh
 * total energy  :   -99.3494927 Eh     change       -0.8568766E-04 Eh
 * total energy  :   -99.3495736 Eh     change       -0.8088822E-04 Eh
 * total energy  :   -99.3496365 Eh     change       -0.6289860E-04 Eh
 * total energy  :   -99.3496947 Eh     change       -0.5821412E-04 Eh
 * total energy  :   -99.3497768 Eh     change       -0.8213420E-04 Eh
 * total energy  :   -99.3497974 Eh     change       -0.2058240E-04 Eh
   *** GEOMETRY OPTIMIZATION CONVERGED AFTER 68 ITERATIONS ***

 final structure:
================
72
 xtb: 6.6.1 (8d0f1dd)
N           -1.03876452893926        2.52588152782165        1.84531388483549
C           -1.28166821696348        1.70446447501832        0.93415988651433
C           -2.54757823322024        1.69030328663347        0.12126586562870
C           -3.29215565909704        0.38886792327446        0.36842299590278
C           -4.29569432501878       -0.02380691859603       -0.51001754002301
C           -5.02099987845740       -1.18210838084361       -0.28606351520330
O           -5.99220857984351       -1.66224460679788       -1.09119332267301
C           -6.35430109726252       -0.93863909530840       -2.24334836687596
C           -4.75768273259279       -1.96052946004903        0.87333517901296
O           -5.52608049414532       -3.05812388218047        1.02121457610416
C           -5.41344949973392       -3.81747357878608        2.20193734429893
C           -3.76342167216774       -1.54277653206914        1.74379192754082
C           -3.03777907957287       -0.38639018101195        1.49020492609261
C           -2.10045501825276        1.80053255067747       -1.36016508288677
C           -1.49134605986551        0.52114092092140       -1.96131808338961
C           -0.07550027410629        0.28679350743161       -1.57097471590974
N            0.44142444458870       -0.88159534141023       -1.18918780161558
C            1.74212884395498       -1.18465021289747       -1.19820489895414
C            2.80708762038846       -0.44515824578986       -1.94376820792475
C            3.97745986623040       -0.05671747112631       -1.07554605801028
C            4.07144376681482        1.35121661398634       -0.60443267627656
C            5.28070079071249        1.64449720116076        0.21133451421333
C            6.22412907085504        0.71210990569186        0.49334969454125
O            7.34843599067240        0.90695955424967        1.21128131163971
C            7.62963027418393        2.20017789289513        1.69632875146471
C            6.07411610469386       -0.63491391887101       -0.00063114314664
O            7.07043126204616       -1.46504637970592        0.31348056841670
C            7.06521108496708       -2.79364907978697       -0.15595694318812
C            4.94657839393643       -0.96538879831119       -0.76869487195013
C           -0.46914895648848       -1.91868786742840       -0.71478459244336
C           -3.52298133024282        2.85812794067375        0.45997073914566
C           -4.04240648192768        2.76645628903803        1.89296368524485
C           -2.91484884433590        4.23841886310758        0.22608362655471
H           -4.52136078750087        0.57790133823377       -1.37459475148062
H           -6.71983422561605        0.06145775206503       -1.99238065266091
H           -7.15777661506497       -1.50922677460080       -2.70494614894957
H           -5.51896082515491       -0.85832915954159       -2.94670145341352
H           -5.63199248421802       -3.21307222399360        3.08727625154227
H           -6.15534285560163       -4.60839268550573        2.11216080783494
H           -4.41897228129798       -4.26391464402226        2.30104980037272
H           -3.54931693559529       -2.10639717063603        2.63710358093488
H           -2.28845943472136       -0.07746807131061        2.20293734202818
H           -2.96573505301073        2.08114238363387       -1.96023171835803
H           -1.37210818582481        2.60823023837404       -1.44357637516838
H           -2.12512253334459       -0.33147585002765       -1.72908331177894
H           -1.50868902079521        0.65456771257646       -3.05154588358658
H           -0.56614074339709        0.93221502011943        0.60113726545358
H            0.61893007744970        1.07440655318952       -1.81311509693322
H            2.03434228442999       -2.09925341793171       -0.71363766094623
H            3.17791893645087        1.62571451243823       -0.02535480822524
H            2.40325641760016        0.43741157292045       -2.43629589069140
H            3.18141111505400       -1.11751008146915       -2.72698541024711
H            4.05581339340646        2.02475562643927       -1.47549585529126
H            5.37581557894096        2.65754107593618        0.56546741666803
H            6.86493982095770        2.53820345334106        2.40206279122329
H            7.71775070933480        2.92184474014999        0.87875787725659
H            8.58462343838898        2.11720215155861        2.21063486800529
H            7.99184612202263       -3.23451738041714        0.20713208402317
H            6.21649551518736       -3.35697533075565        0.24269252293334
H            7.05084499999023       -2.83240563390932       -1.24936576725418
H            4.85166049753923       -1.97283380393867       -1.14563554355499
H           -0.95501569390159       -2.40363859512689       -1.56161525152408
H           -1.23091514465858       -1.49189815394884       -0.06152231408027
H            0.08747940728915       -2.67152278776331       -0.16196294486369
H           -4.37987162667073        2.74319662910667       -0.21485616312108
H           -3.22312527336554        2.88800249948371        2.59447336118795
H           -4.52886893374595        1.81171925902211        2.07689985575276
H           -4.76768011208336        3.55694577945856        2.06749000332589
H           -2.04069280199188        4.37350547914214        0.85543171553693
H           -2.63689581180797        4.39058607895459       -0.81331155500416
H           -3.64556196962886        4.99858479934331        0.48985170815381
H           -0.13847991977843        2.45978813036916        2.31076849067804

          :  Hamiltonian                  GFN2-xTB          :
         :: total energy             -99.349797427804 Eh    ::
         :: gradient norm              0.001174836895 Eh/a0 ::
         :: HOMO-LUMO gap              0.888696903722 eV    ::
         :: SCC energy              -100.717866054450 Eh    ::
         :: -> dispersion             -0.074838242564 Eh    ::
         :: repulsion energy           1.366516460085 Eh    ::

    * Orbital Energies and Occupations

         #    Occupation            Energy/Eh            Energy/eV
      -------------------------------------------------------------
         1        2.0000           -0.8234111             -22.4062
       ...           ...                  ...                  ...
        78        1.9988           -0.5313577             -14.4590
        79        1.9982           -0.5243646             -14.2687
        80        1.9981           -0.5240404             -14.2599
        81        1.9973           -0.5181937             -14.1008
        82        1.9971           -0.5170367             -14.0693
        83        1.9955           -0.5102742             -13.8853
        84        1.9949           -0.5081823             -13.8283
        85        1.9936           -0.5046393             -13.7319
        86        1.9790           -0.4857223             -13.2172
        87        1.9710           -0.4805321             -13.0759
        88        1.9363           -0.4677986             -12.7294
        89        1.8624           -0.4549822             -12.3807
        90        1.5856           -0.4349783             -11.8364 (HOMO)
        91        0.6545           -0.4023193             -10.9477 (LUMO)
        92        0.0226           -0.3429193              -9.3313
        93        0.0118           -0.3326061              -9.0507
        94        0.0046           -0.3176693              -8.6442
        95        0.0032           -0.3116768              -8.4812
        96        0.0027           -0.3089726              -8.4076
        97        0.0000           -0.2305900              -6.2747
        98        0.0000           -0.1862741              -5.0688
        99                         -0.1158960              -3.1537
       100                         -0.0731536              -1.9906
       101                         -0.0637729              -1.7353
       ...                                ...                  ...
       171                          0.5763014              15.6820
      -------------------------------------------------------------
                  HL-Gap            0.0326590 Eh            0.8887 eV

     #   Z          covCN         q      C6AA      α(0)
     1   7 N        1.774    -0.275    27.950     7.829
     2   6 C        2.827     0.102    25.723     8.311
     3   6 C        3.907     0.007    20.408     6.421
     4   6 C        2.975     0.002    27.967     8.675
     5   6 C        2.920    -0.080    29.996     8.981
     6   6 C        2.862     0.129    25.172     8.224
     7   8 O        1.706    -0.231    17.824     5.700
     8   6 C        3.644     0.028    20.440     6.499
     9   6 C        2.864     0.129    25.173     8.224
    10   8 O        1.706    -0.229    17.789     5.695
    11   6 C        3.646     0.027    20.454     6.500
    12   6 C        2.913    -0.073    29.828     8.956
    13   6 C        2.922    -0.053    29.305     8.877
    14   6 C        3.812    -0.064    21.718     6.633
    15   6 C        3.801    -0.066    21.774     6.644
    16   6 C        2.858    -0.045    29.119     8.845
    17   7 N        2.729     0.076    19.916     6.628
    18   6 C        2.863    -0.051    29.252     8.865
    19   6 C        3.808    -0.068    21.792     6.645
    20   6 C        2.954     0.008    27.849     8.656
    21   6 C        3.812    -0.063    21.702     6.631
    22   6 C        2.901    -0.081    30.028     8.985
    23   6 C        2.850     0.135    25.054     8.204
    24   8 O        1.706    -0.234    17.871     5.708
    25   6 C        3.646     0.024    20.501     6.507
    26   6 C        2.861     0.137    24.997     8.195
    27   8 O        1.706    -0.196    17.267     5.610
    28   6 C        3.644     0.021    20.562     6.518
    29   6 C        2.903    -0.073    29.819     8.954
    30   6 C        3.719    -0.075    22.052     6.707
    31   6 C        3.854    -0.007    20.666     6.466
    32   6 C        3.756    -0.117    22.804     6.809
    33   6 C        3.755    -0.118    22.823     6.812
    34   1 H        0.926     0.053     2.285     2.364
    35   1 H        0.924     0.053     2.278     2.360
    36   1 H        0.925     0.080     1.975     2.198
    37   1 H        0.924     0.047     2.364     2.404
    38   1 H        0.924     0.055     2.260     2.351
    39   1 H        0.925     0.081     1.973     2.197
    40   1 H        0.924     0.049     2.329     2.387
    41   1 H        0.926     0.053     2.284     2.363
    42   1 H        0.926     0.041     2.436     2.441
    43   1 H        0.925     0.054     2.265     2.354
    44   1 H        0.924     0.050     2.321     2.382
    45   1 H        0.925     0.056     2.247     2.344
    46   1 H        0.923     0.062     2.173     2.305
    47   1 H        0.923     0.005     2.965     2.693
    48   1 H        0.926     0.049     2.334     2.389
    49   1 H        0.926     0.050     2.322     2.383
    50   1 H        0.923     0.077     2.015     2.220
    51   1 H        0.925     0.059     2.210     2.325
    52   1 H        0.923     0.072     2.064     2.247
    53   1 H        0.923     0.082     1.960     2.189
    54   1 H        0.926     0.061     2.189     2.313
    55   1 H        0.924     0.052     2.300     2.372
    56   1 H        0.924     0.053     2.283     2.363
    57   1 H        0.925     0.083     1.946     2.182
    58   1 H        0.925     0.089     1.893     2.152
    59   1 H        0.924     0.058     2.217     2.328
    60   1 H        0.924     0.061     2.191     2.315
    61   1 H        0.926     0.058     2.223     2.332
    62   1 H        0.925     0.081     1.973     2.196
    63   1 H        0.924     0.083     1.949     2.183
    64   1 H        0.925     0.079     1.988     2.205
    65   1 H        0.924     0.036     2.503     2.474
    66   1 H        0.925     0.066     2.129     2.282
    67   1 H        0.925     0.035     2.518     2.482
    68   1 H        0.925     0.050     2.321     2.382
    69   1 H        0.925     0.062     2.172     2.305
    70   1 H        0.925     0.035     2.520     2.482
    71   1 H        0.925     0.053     2.287     2.365
    72   1 H        0.860     0.151     1.393     1.849

Wiberg/Mayer (AO) data.
largest (>0.10) Wiberg bond orders for each atom

     #   Z sym  total        # sym  WBO       # sym  WBO       # sym  WBO
 ---------------------------------------------------------------------------
     1   7 N    3.018 --     2 C    1.951    72 H    0.944
     2   6 C    3.934 --     1 N    1.951     3 C    0.994    47 H    0.917
     3   6 C    3.974 --     2 C    0.994     4 C    0.973    14 C    0.956
                            31 C    0.941
     4   6 C    3.947 --    13 C    1.409     5 C    1.369     3 C    0.973
     5   6 C    3.962 --     6 C    1.400     4 C    1.369    34 H    0.958
     6   6 C    3.902 --     5 C    1.400     9 C    1.222     7 O    1.097
     7   8 O    2.252 --     6 C    1.097     8 C    0.979
     8   6 C    3.933 --     7 O    0.979    36 H    0.977    37 H    0.974
                            35 H    0.973
     9   6 C    3.899 --    12 C    1.390     6 C    1.222    10 O    1.101
    10   8 O    2.250 --     9 C    1.101    11 C    0.977
    11   6 C    3.931 --    10 O    0.977    39 H    0.977    38 H    0.973
                            40 H    0.973
    12   6 C    3.961 --    13 C    1.407     9 C    1.390    41 H    0.964
    13   6 C    3.952 --     4 C    1.409    12 C    1.407    42 H    0.963
    14   6 C    3.976 --    15 C    0.986    44 H    0.972    43 H    0.968
                             3 C    0.956
    15   6 C    3.986 --    16 C    1.046    14 C    0.986    45 H    0.962
                            46 H    0.939
    16   6 C    3.661 --    17 N    1.332    15 C    1.046    48 H    0.956
                            18 C    0.215
    17   7 N    3.719 --    16 C    1.332    18 C    1.331    30 C    0.980
    18   6 C    3.627 --    17 N    1.331    19 C    1.022    49 H    0.964
                            16 C    0.215
    19   6 C    3.987 --    18 C    1.022    20 C    0.998    51 H    0.962
                            52 H    0.935
    20   6 C    3.720 --    29 C    1.568    21 C    1.041    19 C    0.998
    21   6 C    3.985 --    22 C    1.044    20 C    1.041    50 H    0.920
                            53 H    0.916
    22   6 C    3.795 --    23 C    1.578    21 C    1.044    54 H    0.963
                            24 O    0.107
    23   6 C    3.936 --    22 C    1.578    26 C    1.131    24 O    1.096
    24   8 O    2.262 --    23 C    1.096    25 C    0.976    22 C    0.107
    25   6 C    3.931 --    57 H    0.977    24 O    0.976    56 H    0.974
                            55 H    0.974
    26   6 C    3.682 --    29 C    1.284    27 O    1.153    23 C    1.131
    27   8 O    2.269 --    26 C    1.153    28 C    0.971
    28   6 C    3.925 --    58 H    0.976    59 H    0.972    60 H    0.972
                            27 O    0.971
    29   6 C    3.976 --    20 C    1.568    26 C    1.284    61 H    0.958
    30   6 C    3.951 --    17 N    0.980    64 H    0.976    62 H    0.968
                            63 H    0.967
    31   6 C    3.972 --    32 C    1.008    33 C    1.008    65 H    0.961
                             3 C    0.941
    32   6 C    3.979 --    31 C    1.008    68 H    0.981    67 H    0.981
                            66 H    0.975
    33   6 C    3.981 --    31 C    1.008    70 H    0.983    71 H    0.980
                            69 H    0.975
    34   1 H    0.996 --     5 C    0.958
    35   1 H    0.993 --     8 C    0.973
    36   1 H    0.993 --     8 C    0.977
    37   1 H    0.994 --     8 C    0.974
    38   1 H    0.993 --    11 C    0.973
    39   1 H    0.993 --    11 C    0.977
    40   1 H    0.993 --    11 C    0.973
    41   1 H    0.995 --    12 C    0.964
    42   1 H    0.998 --    13 C    0.963
    43   1 H    0.995 --    14 C    0.968
    44   1 H    0.997 --    14 C    0.972
    45   1 H    0.996 --    15 C    0.962
    46   1 H    0.976 --    15 C    0.939
    47   1 H    0.983 --     2 C    0.917
    48   1 H    0.997 --    16 C    0.956
    49   1 H    0.997 --    18 C    0.964
    50   1 H    0.958 --    21 C    0.920
    51   1 H    0.994 --    19 C    0.962
    52   1 H    0.972 --    19 C    0.935
    53   1 H    0.955 --    21 C    0.916
    54   1 H    0.995 --    22 C    0.963
    55   1 H    0.995 --    25 C    0.974
    56   1 H    0.995 --    25 C    0.974
    57   1 H    0.992 --    25 C    0.977
    58   1 H    0.992 --    28 C    0.976
    59   1 H    0.990 --    28 C    0.972
    60   1 H    0.990 --    28 C    0.972
    61   1 H    0.995 --    29 C    0.958
    62   1 H    0.992 --    30 C    0.968
    63   1 H    0.992 --    30 C    0.967
    64   1 H    0.994 --    30 C    0.976
    65   1 H    0.992 --    31 C    0.961
    66   1 H    0.991 --    32 C    0.975
    67   1 H    0.997 --    32 C    0.981
    68   1 H    0.994 --    32 C    0.981
    69   1 H    0.992 --    33 C    0.975
    70   1 H    0.997 --    33 C    0.983
    71   1 H    0.994 --    33 C    0.980
    72   1 H    0.971 --     1 N    0.944
 ---------------------------------------------------------------------------

molecular dipole:
                 x           y           z       tot (Debye)
 q only:        1.589      -0.692      -0.927
   full:        1.803      -0.885      -1.153       5.887

           -------------------------------------------------
          | TOTAL ENERGY              -99.349797427804 Eh   |
          | GRADIENT NORM               0.001174836895 Eh/α |
          | HOMO-LUMO GAP               0.888696903722 eV   |
           -------------------------------------------------

 * finished run on 2024/04/06 at 11:14:49.442
