   * xtb version 6.6.1 (8d0f1dd) compiled by 'conda@1efc2f54142f' on 2023-08-01
          program call               : xtb xtbopt.xyz --opt crude --input .xc2 --gfn2

   ID    Z sym.   atoms
    1    6 C      1, 3, 5-7, 10, 11, 14
    2    7 N      2, 4, 9, 13
    3    8 O      8, 12
    4    1 H      15-25
########################################################################
[WARNING] Please study the warnings concerning your input carefully
-1- readin_getIntValue: could not parse ''
########################################################################

          :  Hamiltonian                  GFN2-xTB          :
 * total energy  :   -41.0858167 Eh     change       -0.1051603E-11 Eh
 * total energy  :   -42.0837085 Eh     change       -0.9978918E+00 Eh
 * total energy  :   -42.1016360 Eh     change       -0.1792747E-01 Eh
 * total energy  :   -42.1067647 Eh     change       -0.5128658E-02 Eh
 * total energy  :   -42.1080688 Eh     change       -0.1304109E-02 Eh
 * total energy  :   -42.1087098 Eh     change       -0.6410247E-03 Eh
 * total energy  :   -42.1093138 Eh     change       -0.6039830E-03 Eh
 * total energy  :   -42.1103329 Eh     change       -0.1019138E-02 Eh
 * total energy  :   -42.1123417 Eh     change       -0.2008786E-02 Eh
 * total energy  :   -42.1186735 Eh     change       -0.6331777E-02 Eh
 * total energy  :   -42.1367873 Eh     change       -0.1039563E-02 Eh
 * total energy  :   -42.1379693 Eh     change       -0.1182007E-02 Eh
 * total energy  :   -42.1394763 Eh     change       -0.1507050E-02 Eh
 * total energy  :   -42.1418955 Eh     change       -0.2419205E-02 Eh
 * total energy  :   -42.1480765 Eh     change       -0.6180947E-02 Eh
 * total energy  :   -42.1510763 Eh     change       -0.2999834E-02 Eh
 * total energy  :   -42.1519009 Eh     change       -0.8245562E-03 Eh
 * total energy  :   -42.1524971 Eh     change       -0.5962736E-03 Eh
 * total energy  :   -42.1527483 Eh     change       -0.2511606E-03 Eh
   *** GEOMETRY OPTIMIZATION CONVERGED AFTER 26 ITERATIONS ***

 final structure:
================
25
 xtb: 6.6.1 (8d0f1dd)
C            2.95771420818623        1.79635223548978        0.09202489260977
N            2.34454801285900        0.71296429459013       -0.11939466812348
C            2.71440097259883       -2.03311633535720       -0.18804346146984
N            1.41743672937079       -1.97340379196290        0.02869606282950
C            0.57666553996198       -0.88423060714688        0.00739814456540
C            1.02460034043644        0.43631344761605       -0.03103772357967
C            0.04958302025096        1.54190866870369       -0.03853615667116
O            0.38788142308318        2.70464984965070       -0.05173910595338
N           -1.27532557481055        1.15925228923136       -0.01767514535427
C           -2.29680911601993        2.19684591765050       -0.03546059719959
C           -1.73738963950494       -0.13519945098526        0.03424690902696
O           -2.90865081591571       -0.39815431758589        0.06162256095009
N           -0.76509877675304       -1.15054618293166        0.05443484169152
C           -1.27507704586100       -2.51146242408147        0.07848876646266
H            3.26214005683257       -1.14361039056544       -0.43877485518549
H            4.00508942200733        1.83448916638221       -0.17193170874403
H            2.50229762387077        2.68958296222671        0.52220014325151
H            3.20042032950671       -2.98901478084689       -0.11974335994439
H           -1.79959318918504        3.16364756574910       -0.06054484955705
H           -2.92978445934342        2.07449945334292       -0.91435442128374
H           -2.92312244320369        2.11548566391633        0.85290776440968
H           -1.02570042322673       -3.01404343033325        1.01586418498938
H           -0.92187443628082       -3.08138167788549       -0.78222229828056
H           -2.36279037751689       -2.44233399611047        0.01808743957459
H            0.93887013275867       -2.85125558715631        0.23465825888557

          :  Hamiltonian                  GFN2-xTB          :
         :: total energy             -42.152748300370 Eh    ::
         :: gradient norm              0.004529169098 Eh/a0 ::
         :: HOMO-LUMO gap              1.030914170690 eV    ::
         :: SCC energy               -42.685994074149 Eh    ::
         :: -> dispersion             -0.022497784989 Eh    ::
         :: repulsion energy           0.533122902329 Eh    ::

    * Orbital Energies and Occupations

         #    Occupation            Energy/Eh            Energy/eV
      -------------------------------------------------------------
         1        2.0000           -0.8871707             -24.1411
       ...           ...                  ...                  ...
        25        1.9999           -0.6690549             -18.2059
        26        1.9999           -0.6645027             -18.0820
        27        1.9999           -0.6601017             -17.9623
        28        1.9995           -0.6376238             -17.3506
        29        1.9994           -0.6347673             -17.2729
        30        1.9992           -0.6305435             -17.1580
        31        1.9985           -0.6206513             -16.8888
        32        1.9963           -0.6066267             -16.5072
        33        1.9912           -0.5929865             -16.1360
        34        1.9794           -0.5794846             -15.7686
        35        1.9586           -0.5682628             -15.4632
        36        1.9307           -0.5598791             -15.2351
        37        1.6003           -0.5291565             -14.3991 (HOMO)
        38        0.5357           -0.4912711             -13.3682 (LUMO)
        39        0.0092           -0.4221331             -11.4868
        40        0.0024           -0.4005187             -10.8987
        41        0.0003           -0.3662263              -9.9655
        42        0.0000           -0.2843672              -7.7380
        43                         -0.2019056              -5.4941
        44                         -0.1661416              -4.5209
        45                         -0.1345015              -3.6600
        46                         -0.1019327              -2.7737
        47                         -0.0794251              -2.1613
        48                         -0.0289703              -0.7883
       ...                                ...                  ...
        67                          0.5446686              14.8212
      -------------------------------------------------------------
                  HL-Gap            0.0378854 Eh            1.0309 eV

     #   Z          covCN         q      C6AA      α(0)
     1   6 C        2.786     0.031    27.299     8.558
     2   7 N        1.831    -0.107    24.100     7.275
     3   6 C        2.773    -0.034    28.835     8.795
     4   7 N        2.689    -0.004    21.335     6.860
     5   6 C        2.840     0.102    25.727     8.312
     6   6 C        2.910     0.021    27.539     8.605
     7   6 C        2.770     0.266    22.505     7.769
     8   8 O        0.859    -0.344    20.591     6.084
     9   7 N        2.740    -0.071    22.611     7.062
    10   6 C        3.708    -0.061    21.819     6.677
    11   6 C        2.722     0.319    21.582     7.605
    12   8 O        0.860    -0.357    20.840     6.121
    13   7 N        2.745    -0.062    22.441     7.036
    14   6 C        3.699    -0.080    22.204     6.739
    15   1 H        0.926     0.142     1.449     1.883
    16   1 H        0.926     0.118     1.631     1.997
    17   1 H        0.924     0.128     1.550     1.947
    18   1 H        0.926     0.126     1.569     1.959
    19   1 H        0.925     0.115     1.658     2.014
    20   1 H        0.925     0.104     1.748     2.067
    21   1 H        0.925     0.104     1.748     2.067
    22   1 H        0.924     0.085     1.928     2.172
    23   1 H        0.924     0.084     1.934     2.175
    24   1 H        0.924     0.138     1.478     1.901
    25   1 H        0.860     0.238     0.933     1.513

Wiberg/Mayer (AO) data.
largest (>0.10) Wiberg bond orders for each atom

     #   Z sym  total        # sym  WBO       # sym  WBO       # sym  WBO
 ---------------------------------------------------------------------------
     1   6 C    3.771 --     2 N    1.788    16 H    0.941    17 H    0.899
     2   7 N    3.110 --     1 C    1.788     6 C    1.213
     3   6 C    3.491 --     4 N    1.468    18 H    0.962    15 H    0.942
     4   7 N    3.592 --     3 C    1.468     5 C    1.143    25 H    0.891
     5   6 C    3.873 --     6 C    1.334    13 N    1.182     4 N    1.143
     6   6 C    3.810 --     5 C    1.334     2 N    1.213     7 C    1.017
     7   6 C    3.923 --     8 O    1.677     9 N    1.125     6 C    1.017
     8   8 O    1.997 --     7 C    1.677     9 N    0.130
     9   7 N    3.529 --     7 C    1.125    11 C    1.121    10 C    0.967
                             8 O    0.130    12 O    0.126
    10   6 C    3.896 --     9 N    0.967    19 H    0.967    21 H    0.959
                            20 H    0.958
    11   6 C    3.957 --    12 O    1.693     9 N    1.121    13 N    1.054
    12   8 O    2.028 --    11 C    1.693     9 N    0.126    13 N    0.119
    13   7 N    3.502 --     5 C    1.182    11 C    1.054    14 C    0.980
                            12 O    0.119
    14   6 C    3.922 --    13 N    0.980    23 H    0.966    22 H    0.962
                            24 H    0.954
    15   1 H    0.979 --     3 C    0.942
    16   1 H    0.963 --     1 C    0.941
    17   1 H    0.927 --     1 C    0.899
    18   1 H    0.981 --     3 C    0.962
    19   1 H    0.984 --    10 C    0.967
    20   1 H    0.978 --    10 C    0.958
    21   1 H    0.978 --    10 C    0.959
    22   1 H    0.984 --    14 C    0.962
    23   1 H    0.986 --    14 C    0.966
    24   1 H    0.980 --    14 C    0.954
    25   1 H    0.941 --     4 N    0.891
 ---------------------------------------------------------------------------

molecular dipole:
                 x           y           z       tot (Debye)
 q only:        2.154      -2.072       0.089
   full:        2.218      -2.148       0.169       7.860

           -------------------------------------------------
          | TOTAL ENERGY              -42.152748300370 Eh   |
          | GRADIENT NORM               0.004529169098 Eh/α |
          | HOMO-LUMO GAP               1.030914170690 eV   |
           -------------------------------------------------

 * finished run on 2024/06/05 at 19:58:06.740
