   * xtb version 6.6.1 (8d0f1dd) compiled by 'conda@1efc2f54142f' on 2023-08-01
          program call               : xtb xtbopt.xyz --opt crude --input .xc2 --gfn2

   ID    Z sym.   atoms
    1    7 N      1, 17
    2    6 C      2-6, 8, 9, 11-16, 18-23, 25, 26, 28-33
    3    8 O      7, 10, 24, 27
    4    1 H      34-72

          :  Hamiltonian                  GFN2-xTB          :
 * total energy  :   -99.3367036 Eh     change       -0.8810730E-12 Eh
   *** GEOMETRY OPTIMIZATION CONVERGED AFTER 1 ITERATIONS ***

 final structure:
================
72
 xtb: 6.6.1 (8d0f1dd)
N           -1.70741726696717        2.72163085782054        2.48042622526413
C           -1.62546114704533        2.07605014141971        1.41527003372973
C           -2.78153047916341        1.93231724433491        0.45828343582595
C           -3.32990827798431        0.51349196600960        0.47576013917814
C           -4.41432117123914        0.21737822026095       -0.35168940057347
C           -4.97116024679160       -1.04945150334574       -0.38236994216877
O           -6.01469617335503       -1.42409429937247       -1.15004650441854
C           -6.65444905315497       -0.46196668228110       -1.95464606164519
C           -4.43170953051903       -2.06954787585886        0.44829579022415
O           -5.03903319323076       -3.26948475736735        0.35588586470898
C           -4.62272143658357       -4.31878701584275        1.19779765119565
C           -3.36037644307981       -1.76347060656705        1.27217546172183
C           -2.81472116622574       -0.48469426521990        1.28514547311043
C           -2.24676986367899        2.26570244659468       -0.95504442890048
C           -1.34662278154836        1.17462199849188       -1.56028398017320
C           -0.00999543758330        1.09031999617974       -0.93262446504746
N            0.62255158563912       -0.03212536901597       -0.61340319728590
C            2.00587571995071        0.00324777742125       -0.20040962005651
C            2.95481861140126       -0.39157279331420       -1.34847052021799
C            4.38207557218824       -0.19335203366737       -0.92172562815054
C            5.01687159119633        1.01926879638075       -1.13473969041957
C            6.32448258041484        1.21902011104494       -0.72010442728942
C            7.02285646002368        0.20715876876774       -0.07730375418835
O            8.29167164018479        0.28643885295072        0.36477192735202
C            9.02092086689820        1.47295498145354        0.14914862239184
C            6.37757485148077       -1.04017791855173        0.15067793414587
O            7.13024320472545       -1.96627258417956        0.77690117227629
C            6.59058739318041       -3.24267073041781        1.02336207086851
C            5.06922577549561       -1.21569140191790       -0.27122643212924
C            0.01214629545935       -1.33022441061472       -0.77136520402823
C           -3.89075987650009        2.88181474763156        0.90170723204763
C           -4.64926391595283        2.45322241291813        2.12184946418129
C           -4.18392095489839        4.01877332783394        0.28395372524846
H           -4.83445553933237        1.00314605228784       -0.95843227800867
H           -7.05449943596653        0.36142137975099       -1.35539679301771
H           -7.47431285289134       -0.98673198567533       -2.44110776742990
H           -5.97792455996911       -0.06261536267301       -2.71760195390384
H           -4.73004549638102       -4.05308680080566        2.25380386242421
H           -5.28043264444373       -5.15522081340336        0.96873229612899
H           -3.58640588060531       -4.60885749419485        0.99652893558521
H           -2.94549258100625       -2.51495737936846        1.92491291452320
H           -1.99766025442536       -0.27536702257170        1.95937149978618
H           -3.09609659089924        2.39984882231138       -1.62347175332530
H           -1.69808223450750        3.20772252443952       -0.91074134906756
H           -1.86794378161876        0.21922420828490       -1.53583877238128
H           -1.19519942900037        1.44244530373236       -2.61434338356930
H           -0.70244092209528        1.58981203002302        1.04443515757840
H            0.55900299625021        2.00511112322531       -0.85040455192261
H            2.14795107540218       -0.67844673051840        0.64300739246796
H            2.25632568743835        1.01341201782052        0.13175109241449
H            2.73667190966144        0.23824384611778       -2.21272486564073
H            2.78334118074493       -1.43211971845375       -1.62598127047124
H            4.49760676400379        1.81913710243600       -1.64075390714894
H            6.79401090838246        2.17055871809684       -0.90772981406956
H            8.56200147015336        2.32408315894498        0.66197823407898
H            9.11533196731395        1.69565293451445       -0.91806508429351
H           10.00848061175267        1.28914982867913        0.56847840742980
H            7.38430196509885       -3.80613989625191        1.51017285927488
H            5.72399900463121       -3.18990602172157        1.69032231004793
H            6.30813449266890       -3.74583042920989        0.09327888703156
H            4.57324556215222       -2.16013241752621       -0.11048670011406
H           -0.10184068803103       -1.58689776738598       -1.82746090900788
H           -0.97163869662713       -1.34990214156679       -0.29719441278156
H            0.64005180523660       -2.08113383947739       -0.29721358566086
H           -6.94528202639859        3.32970088462021       -1.84509122635269
H           -4.84444123894813        3.31000943179049        2.76289377909448
H           -4.09677929164128        1.71274659021135        2.69058697954150
H           -5.60898693103064        2.01932876777520        1.83693803753784
H           -4.96087620985443        4.66008162667411        0.66387663885523
H           -3.67649338968100        4.37554919972342       -0.59475995499007
H           -6.38668655904905        3.46643413400568       -1.31916710689912
H           -0.87698830224699        2.79883725786634        3.05820403207283

          :  Hamiltonian                  GFN2-xTB          :
         :: total energy             -99.336703602834 Eh    ::
         :: gradient norm              0.003531419629 Eh/a0 ::
         :: HOMO-LUMO gap              1.665091970923 eV    ::
         :: SCC energy              -100.758421838172 Eh    ::
         :: -> dispersion             -0.075009412658 Eh    ::
         :: repulsion energy           1.420479044118 Eh    ::

    * Orbital Energies and Occupations

         #    Occupation            Energy/Eh            Energy/eV
      -------------------------------------------------------------
         1        2.0000           -0.8084356             -21.9987
       ...           ...                  ...                  ...
        78        1.9987           -0.5328793             -14.5004
        79        1.9985           -0.5301392             -14.4258
        80        1.9983           -0.5285636             -14.3829
        81        1.9981           -0.5266824             -14.3318
        82        1.9971           -0.5197845             -14.1441
        83        1.9965           -0.5167650             -14.0619
        84        1.9962           -0.5155101             -14.0277
        85        1.9821           -0.4908840             -13.3576
        86        1.9788           -0.4882089             -13.2848
        87        1.9658           -0.4805000             -13.0751
        88        1.9456           -0.4729870             -12.8706
        89        1.8774           -0.4595687             -12.5055
        90        1.8455           -0.4556343             -12.3984 (HOMO)
        91        0.4008           -0.3944433             -10.7333 (LUMO)
        92        0.0157           -0.3396886              -9.2434
        93        0.0037           -0.3167630              -8.6196
        94        0.0032           -0.3144245              -8.5559
        95        0.0028           -0.3121551              -8.4942
        96        0.0024           -0.3097515              -8.4288
        97        0.0006           -0.2868224              -7.8048
        98        0.0000           -0.1907844              -5.1915
        99        0.0000           -0.1872480              -5.0953
       100                         -0.1358327              -3.6962
       101                         -0.0677006              -1.8422
       ...                                ...                  ...
       171                          0.5770687              15.7028
      -------------------------------------------------------------
                  HL-Gap            0.0611910 Eh            1.6651 eV

     #   Z          covCN         q      C6AA      α(0)
     1   7 N        1.775    -0.270    27.817     7.810
     2   6 C        2.828     0.099    25.795     8.322
     3   6 C        3.915     0.007    20.407     6.421
     4   6 C        2.976     0.004    27.919     8.667
     5   6 C        2.921    -0.078    29.953     8.975
     6   6 C        2.863     0.131    25.135     8.218
     7   8 O        1.706    -0.229    17.791     5.695
     8   6 C        3.645     0.027    20.455     6.500
     9   6 C        2.863     0.129    25.166     8.223
    10   8 O        1.706    -0.228    17.785     5.694
    11   6 C        3.645     0.027    20.455     6.500
    12   6 C        2.914    -0.075    29.873     8.962
    13   6 C        2.920    -0.054    29.347     8.884
    14   6 C        3.811    -0.064    21.726     6.635
    15   6 C        3.802    -0.068    21.803     6.648
    16   6 C        2.844     0.007    27.858     8.650
    17   7 N        2.729     0.012    21.055     6.815
    18   6 C        3.756    -0.016    20.919     6.521
    19   6 C        3.808    -0.070    21.842     6.653
    20   6 C        2.969    -0.000    28.036     8.685
    21   6 C        2.922    -0.049    29.215     8.864
    22   6 C        2.914    -0.067    29.681     8.934
    23   6 C        2.865     0.133    25.081     8.209
    24   8 O        1.706    -0.222    17.683     5.678
    25   6 C        3.645     0.025    20.488     6.505
    26   6 C        2.863     0.133    25.087     8.210
    27   8 O        1.706    -0.225    17.726     5.684
    28   6 C        3.645     0.027    20.453     6.500
    29   6 C        2.919    -0.080    29.990     8.980
    30   6 C        3.699    -0.071    22.027     6.712
    31   6 C        2.948     0.033    27.265     8.564
    32   6 C        3.760    -0.118    22.805     6.808
    33   6 C        2.843    -0.103    30.580     9.063
    34   1 H        0.926     0.053     2.287     2.365
    35   1 H        0.924     0.054     2.276     2.359
    36   1 H        0.925     0.082     1.962     2.191
    37   1 H        0.924     0.048     2.344     2.394
    38   1 H        0.924     0.054     2.265     2.353
    39   1 H        0.925     0.081     1.966     2.193
    40   1 H        0.924     0.048     2.348     2.396
    41   1 H        0.926     0.051     2.312     2.378
    42   1 H        0.926     0.034     2.534     2.489
    43   1 H        0.925     0.064     2.148     2.292
    44   1 H        0.924     0.053     2.282     2.362
    45   1 H        0.925     0.066     2.131     2.283
    46   1 H        0.923     0.081     1.974     2.197
    47   1 H        0.922     0.007     2.947     2.685
    48   1 H        0.926     0.070     2.088     2.260
    49   1 H        0.924     0.067     2.116     2.275
    50   1 H        0.924     0.067     2.118     2.276
    51   1 H        0.924     0.055     2.262     2.352
    52   1 H        0.924     0.056     2.248     2.345
    53   1 H        0.926     0.045     2.384     2.414
    54   1 H        0.926     0.059     2.216     2.328
    55   1 H        0.924     0.054     2.268     2.355
    56   1 H        0.924     0.056     2.248     2.345
    57   1 H        0.925     0.082     1.955     2.187
    58   1 H        0.925     0.082     1.960     2.189
    59   1 H        0.924     0.049     2.338     2.391
    60   1 H        0.924     0.052     2.290     2.367
    61   1 H        0.926     0.047     2.358     2.401
    62   1 H        0.924     0.076     2.018     2.222
    63   1 H        0.924     0.081     1.969     2.194
    64   1 H        0.925     0.080     1.983     2.202
    65   1 H        0.806     0.004     3.048     2.742
    66   1 H        0.925     0.069     2.094     2.263
    67   1 H        0.925     0.056     2.246     2.344
    68   1 H        0.924     0.056     2.246     2.344
    69   1 H        0.926     0.059     2.212     2.326
    70   1 H        0.926     0.041     2.430     2.437
    71   1 H        0.806    -0.004     3.178     2.800
    72   1 H        0.860     0.160     1.334     1.809

Wiberg/Mayer (AO) data.
largest (>0.10) Wiberg bond orders for each atom

     #   Z sym  total        # sym  WBO       # sym  WBO       # sym  WBO
 ---------------------------------------------------------------------------
     1   7 N    3.034 --     2 C    1.966    72 H    0.942
     2   6 C    3.930 --     1 N    1.966     3 C    0.980    47 H    0.900
     3   6 C    3.979 --     2 C    0.980     4 C    0.960    14 C    0.958
                            31 C    0.958
     4   6 C    3.950 --    13 C    1.419     5 C    1.368     3 C    0.960
     5   6 C    3.963 --     6 C    1.403     4 C    1.368    34 H    0.960
     6   6 C    3.908 --     5 C    1.403     9 C    1.221     7 O    1.101
     7   8 O    2.257 --     6 C    1.101     8 C    0.978
     8   6 C    3.932 --     7 O    0.978    36 H    0.977    37 H    0.973
                            35 H    0.973
     9   6 C    3.903 --    12 C    1.395     6 C    1.221    10 O    1.102
    10   8 O    2.255 --     9 C    1.102    11 C    0.978
    11   6 C    3.932 --    10 O    0.978    39 H    0.977    40 H    0.974
                            38 H    0.973
    12   6 C    3.962 --    13 C    1.398     9 C    1.395    41 H    0.964
    13   6 C    3.956 --     4 C    1.419    12 C    1.398    42 H    0.964
    14   6 C    3.973 --    15 C    0.982    44 H    0.973    43 H    0.968
                             3 C    0.958
    15   6 C    3.987 --    16 C    1.060    14 C    0.982    45 H    0.962
                            46 H    0.927
    16   6 C    3.589 --    17 N    1.402    15 C    1.060    48 H    0.957
    17   7 N    3.478 --    16 C    1.402    30 C    0.998    18 C    0.988
    18   6 C    3.955 --    17 N    0.988    50 H    0.968    19 C    0.967
                            49 H    0.964
    19   6 C    3.976 --    20 C    1.008    51 H    0.972    52 H    0.972
                            18 C    0.967
    20   6 C    3.945 --    21 C    1.410    29 C    1.379    19 C    1.008
    21   6 C    3.950 --    22 C    1.416    20 C    1.410    53 H    0.968
    22   6 C    3.960 --    21 C    1.416    23 C    1.384    54 H    0.963
    23   6 C    3.895 --    22 C    1.384    26 C    1.219    24 O    1.110
    24   8 O    2.255 --    23 C    1.110    25 C    0.976
    25   6 C    3.928 --    57 H    0.977    24 O    0.976    56 H    0.973
                            55 H    0.973
    26   6 C    3.899 --    29 C    1.396    23 C    1.219    27 O    1.104
    27   8 O    2.255 --    26 C    1.104    28 C    0.978
    28   6 C    3.932 --    27 O    0.978    58 H    0.977    59 H    0.973
                            60 H    0.973
    29   6 C    3.959 --    26 C    1.396    20 C    1.379    61 H    0.963
    30   6 C    3.957 --    17 N    0.998    64 H    0.978    62 H    0.966
                            63 H    0.960
    31   6 C    3.948 --    33 C    1.901    32 C    1.025     3 C    0.958
    32   6 C    3.983 --    31 C    1.025    67 H    0.979    66 H    0.972
                            68 H    0.961
    33   6 C    3.945 --    31 C    1.901    70 H    0.971    69 H    0.969
    34   1 H    0.996 --     5 C    0.960
    35   1 H    0.993 --     8 C    0.973
    36   1 H    0.993 --     8 C    0.977
    37   1 H    0.994 --     8 C    0.973
    38   1 H    0.993 --    11 C    0.973
    39   1 H    0.993 --    11 C    0.977
    40   1 H    0.994 --    11 C    0.974
    41   1 H    0.996 --    12 C    0.964
    42   1 H    0.998 --    13 C    0.964
    43   1 H    0.994 --    14 C    0.968
    44   1 H    0.996 --    14 C    0.973
    45   1 H    0.995 --    15 C    0.962
    46   1 H    0.969 --    15 C    0.927
    47   1 H    0.988 --     2 C    0.900
    48   1 H    0.995 --    16 C    0.957
    49   1 H    0.991 --    18 C    0.964
    50   1 H    0.995 --    18 C    0.968
    51   1 H    0.996 --    19 C    0.972
    52   1 H    0.996 --    19 C    0.972
    53   1 H    0.997 --    21 C    0.968
    54   1 H    0.995 --    22 C    0.963
    55   1 H    0.992 --    25 C    0.973
    56   1 H    0.992 --    25 C    0.973
    57   1 H    0.992 --    25 C    0.977
    58   1 H    0.993 --    28 C    0.977
    59   1 H    0.993 --    28 C    0.973
    60   1 H    0.993 --    28 C    0.973
    61   1 H    0.997 --    29 C    0.963
    62   1 H    0.984 --    30 C    0.966
    63   1 H    0.987 --    30 C    0.960
    64   1 H    0.993 --    30 C    0.978
    65   1 H    0.998 --    71 H    0.994
    66   1 H    0.992 --    32 C    0.972
    67   1 H    0.995 --    32 C    0.979
    68   1 H    0.991 --    32 C    0.961
    69   1 H    0.994 --    33 C    0.969
    70   1 H    0.997 --    33 C    0.971
    71   1 H    0.999 --    65 H    0.994
    72   1 H    0.970 --     1 N    0.942
 ---------------------------------------------------------------------------

molecular dipole:
                 x           y           z       tot (Debye)
 q only:        0.722      -0.164      -0.698
   full:        1.057      -0.199      -0.829       3.452

           -------------------------------------------------
          | TOTAL ENERGY              -99.336703602834 Eh   |
          | GRADIENT NORM               0.003531419629 Eh/α |
          | HOMO-LUMO GAP               1.665091970923 eV   |
           -------------------------------------------------

 * finished run on 2024/04/06 at 11:12:28.373
