   * xtb version 6.6.1 (8d0f1dd) compiled by 'conda@1efc2f54142f' on 2023-08-01
          program call               : xtb struc.xyz --opt loose --input .xc1 --gfn2

   ID    Z sym.   atoms
    1    7 N      1, 17
    2    6 C      2-6, 8, 9, 11-16, 18-23, 25, 26, 28-33
    3    8 O      7, 10, 24, 27
    4    1 H      34-72
constraining bond 17 63 to    4.0600000 Å, actual value:    2.0952955 Å

          :  Hamiltonian                  GFN2-xTB          :
 * total energy  :   -98.7149041 Eh     change       -0.4035485E-08 Eh
 * total energy  :   -98.9409353 Eh     change       -0.2260312E+00 Eh
 * total energy  :   -99.0759957 Eh     change       -0.1350604E+00 Eh
 * total energy  :   -99.1479530 Eh     change       -0.7195729E-01 Eh
 * total energy  :   -99.1878970 Eh     change       -0.3994407E-01 Eh
 * total energy  :   -99.2065938 Eh     change       -0.1869675E-01 Eh
 * total energy  :   -99.2144736 Eh     change       -0.7879808E-02 Eh
 * total energy  :   -99.2234437 Eh     change       -0.8970064E-02 Eh
 * total energy  :   -99.2401056 Eh     change       -0.1666197E-01 Eh
 * total energy  :   -99.2501364 Eh     change       -0.1003081E-01 Eh
 * total energy  :   -99.3465778 Eh     change       -0.6177679E-03 Eh
 * total energy  :   -99.3468447 Eh     change       -0.2668957E-03 Eh
 * total energy  :   -99.3470514 Eh     change       -0.2067037E-03 Eh
 * total energy  :   -99.3472446 Eh     change       -0.1931790E-03 Eh
 * total energy  :   -99.3473959 Eh     change       -0.1512531E-03 Eh
 * total energy  :   -99.3475297 Eh     change       -0.1337929E-03 Eh
 * total energy  :   -99.3476244 Eh     change       -0.9474075E-04 Eh
 * total energy  :   -99.3477057 Eh     change       -0.8134089E-04 Eh
 * total energy  :   -99.3477385 Eh     change       -0.3272217E-04 Eh
   *** GEOMETRY OPTIMIZATION CONVERGED AFTER 44 ITERATIONS ***

 final structure:
================
72
 xtb: 6.6.1 (8d0f1dd)
N           -1.83652148111341        2.86967787587864        2.19281935846175
C           -1.74318837939849        2.18945793404491        1.14811914043830
C           -2.88318499789475        1.93337917028544        0.19871645320276
C           -3.29558922068965        0.47003763457028        0.27697910867670
C           -4.28493677255568        0.00511279744766       -0.62586112516993
C           -4.76303009958610       -1.30158299363872       -0.58082732981482
O           -5.73601041469168       -1.79368006016556       -1.38500302974178
C           -6.44414987052967       -0.90884588704463       -2.22279181670363
C           -4.23747101116350       -2.21162209555330        0.34323806275109
O           -4.74422725912579       -3.45018162322917        0.33023693150556
C           -4.31463035772388       -4.40016512062568        1.27638341009350
C           -3.15904086239437       -1.81177029255674        1.28514102724229
C           -2.76098613070132       -0.38134341203802        1.18440822828925
C           -2.34696174433895        2.24899711090337       -1.22334296233915
C           -1.45150311445271        1.16073611441612       -1.84524809211142
C           -0.11419866968449        1.04634489029473       -1.20584985151492
N            0.44339349881424       -0.07016355064710       -0.75207377105103
C            1.82044432901182        0.03758674335078       -0.27540925338112
C            2.81289175125378       -0.26267974607299       -1.40907024410756
C            4.22656793460789       -0.06980888165609       -0.93329441889250
C            4.88081007709093        1.13551278890721       -1.12777953965563
C            6.17962055494016        1.31991613917086       -0.67874238860418
C            6.84962742460605        0.30030916090398       -0.01833163320910
O            8.10858284590882        0.36295412913151        0.45342627506480
C            8.85777580001758        1.54079434808664        0.26109412932198
C            6.18298692288617       -0.93843194608354        0.19425725665144
O            6.90590025575985       -1.87239636336200        0.84432865654699
C            6.34476497809910       -3.14256668197679        1.07311545244048
C            4.88535184506131       -1.09934291741626       -0.26493455555773
C           -0.09818473470769       -1.28026761439519       -0.71781005546803
C           -4.13381767123989        2.80994177039060        0.50394767465966
C           -4.76710443477231        2.44073694091217        1.84369826385550
C           -3.83793532327074        4.30667977945369        0.46844729099663
H           -4.69243882590976        0.68650511636594       -1.35095212069916
H           -6.89306153187368       -0.09068365786071       -1.65219171593815
H           -7.23251268190059       -1.50713439488429       -2.67525486626828
H           -5.80585922190904       -0.50096591051674       -3.01276302381997
H           -4.50809174575966       -4.06526778403650        2.29956819139133
H           -4.89639705377891       -5.29807274482623        1.07652570962487
H           -3.24972775110886       -4.62692587283863        1.16651732558846
H           -3.46961921616700       -2.02359082407047        2.31988565561186
H           -2.02773763663504       -0.05088107875510        1.90179329557504
H           -3.19535827655850        2.40185271844132       -1.89031953916354
H           -1.78827769421891        3.18510927553421       -1.18521765209100
H           -1.97825076384880        0.20877913393833       -1.83524205433061
H           -1.30134775678627        1.44357259129290       -2.89444180924099
H           -0.80222254889127        1.73583707658934        0.79456660502860
H            0.50557652398006        1.92854604959409       -1.20628088525222
H            1.97302948910167       -0.66749034373125        0.54357538820588
H            1.99884982773741        1.04651073258408        0.10195004071124
H            2.60979052290015        0.40894711145622       -2.24490889186207
H            2.66556329327270       -1.28863381905165       -1.75094803800932
H            4.38509770129462        1.94176362294955       -1.64666292417390
H            6.66568026141546        2.26549792732149       -0.85436448586418
H            8.39379768589998        2.39709852739753        0.75990461526741
H            8.98788654088289        1.76312305958418       -0.80225570031130
H            9.82948596311305        1.34491023354049        0.71030832264671
H            7.11332462590663       -3.71226207146697        1.59185575661477
H            5.45340031380361       -3.07979253464482        1.70567215760999
H            6.09366970284830       -3.64530106967280        0.13396674828889
H            4.37539261962999       -2.03890282950087       -0.12033359434461
H           -1.07508127401072       -1.46021681312947       -1.11430640545299
H           -2.27164473903512       -2.44473915896311        1.12012680390277
H            0.46992607953535       -2.09269847639371       -0.31429398636400
H           -4.86687211006751        2.59825599623767       -0.28248813727701
H           -4.07518131324429        2.65320832956342        2.65201547901535
H           -5.03653876301410        1.38773713006377        1.87608010116068
H           -5.66843910889358        3.02894627372910        1.99459873457264
H           -3.11579796445556        4.56711934577869        1.23579653118030
H           -3.45992265047757        4.62104883745951       -0.50056965961807
H           -4.75506719623840        4.85633243206150        0.66391644771070
H           -0.99455339756102        3.00367124365734        2.74444977009543

          :  Hamiltonian                  GFN2-xTB          :
         :: total energy             -99.347738467451 Eh    ::
         :: gradient norm              0.001651298702 Eh/a0 ::
         :: HOMO-LUMO gap              0.893206334678 eV    ::
         :: SCC energy              -100.716957757826 Eh    ::
         :: -> dispersion             -0.075733510815 Eh    ::
         :: repulsion energy           1.367941727247 Eh    ::

    * Orbital Energies and Occupations

         #    Occupation            Energy/Eh            Energy/eV
      -------------------------------------------------------------
         1        2.0000           -0.8321908             -22.6451
       ...           ...                  ...                  ...
        78        1.9985           -0.5295671             -14.4103
        79        1.9985           -0.5292528             -14.4017
        80        1.9982           -0.5267423             -14.3334
        81        1.9981           -0.5258276             -14.3085
        82        1.9968           -0.5177045             -14.0875
        83        1.9956           -0.5124253             -13.9438
        84        1.9953           -0.5115553             -13.9201
        85        1.9943           -0.5085672             -13.8388
        86        1.9770           -0.4862168             -13.2306
        87        1.9558           -0.4757461             -12.9457
        88        1.9387           -0.4704222             -12.8008
        89        1.8366           -0.4540378             -12.3550
        90        1.6077           -0.4380551             -11.9201 (HOMO)
        91        0.6803           -0.4052304             -11.0269 (LUMO)
        92        0.0155           -0.3389274              -9.2227
        93        0.0122           -0.3350726              -9.1178
        94        0.0042           -0.3179524              -8.6519
        95        0.0025           -0.3098730              -8.4321
        96        0.0021           -0.3071791              -8.3588
        97        0.0000           -0.2353109              -6.4031
        98        0.0000           -0.1850058              -5.0343
        99                         -0.1151842              -3.1343
       100                         -0.0868490              -2.3633
       101                         -0.0700144              -1.9052
       ...                                ...                  ...
       171                          0.5790176              15.7559
      -------------------------------------------------------------
                  HL-Gap            0.0328247 Eh            0.8932 eV

     #   Z          covCN         q      C6AA      α(0)
     1   7 N        1.774    -0.271    27.844     7.814
     2   6 C        2.826     0.099    25.798     8.323
     3   6 C        3.908     0.006    20.426     6.424
     4   6 C        2.961     0.017    27.631     8.622
     5   6 C        2.919    -0.079    29.970     8.977
     6   6 C        2.847     0.128    25.194     8.226
     7   8 O        1.706    -0.241    17.986     5.726
     8   6 C        3.644     0.028    20.452     6.501
     9   6 C        2.852     0.125    25.250     8.236
    10   8 O        1.706    -0.195    17.261     5.609
    11   6 C        3.644     0.020    20.586     6.521
    12   6 C        3.809    -0.071    21.846     6.653
    13   6 C        2.908    -0.060    29.488     8.904
    14   6 C        3.811    -0.064    21.719     6.634
    15   6 C        3.801    -0.063    21.718     6.635
    16   6 C        2.862    -0.041    29.020     8.830
    17   7 N        2.730     0.088    19.722     6.596
    18   6 C        3.782    -0.018    20.921     6.516
    19   6 C        3.808    -0.068    21.803     6.647
    20   6 C        2.969     0.001    28.006     8.681
    21   6 C        2.922    -0.048    29.189     8.860
    22   6 C        2.914    -0.067    29.674     8.933
    23   6 C        2.865     0.133    25.079     8.209
    24   8 O        1.706    -0.222    17.680     5.677
    25   6 C        3.645     0.025    20.490     6.506
    26   6 C        2.863     0.133    25.089     8.210
    27   8 O        1.706    -0.225    17.728     5.685
    28   6 C        3.645     0.027    20.450     6.500
    29   6 C        2.919    -0.079    29.978     8.979
    30   6 C        2.810    -0.110    30.779     9.089
    31   6 C        3.853    -0.008    20.688     6.469
    32   6 C        3.755    -0.119    22.836     6.814
    33   6 C        3.755    -0.118    22.821     6.812
    34   1 H        0.926     0.061     2.183     2.310
    35   1 H        0.924     0.053     2.277     2.360
    36   1 H        0.925     0.082     1.960     2.189
    37   1 H        0.924     0.050     2.320     2.382
    38   1 H        0.924     0.063     2.164     2.301
    39   1 H        0.925     0.092     1.855     2.130
    40   1 H        0.924     0.059     2.207     2.323
    41   1 H        0.923     0.087     1.911     2.162
    42   1 H        0.926     0.044     2.396     2.420
    43   1 H        0.925     0.055     2.255     2.348
    44   1 H        0.924     0.051     2.302     2.373
    45   1 H        0.925     0.053     2.278     2.360
    46   1 H        0.924     0.065     2.144     2.290
    47   1 H        0.923     0.011     2.878     2.653
    48   1 H        0.926     0.051     2.308     2.376
    49   1 H        0.924     0.070     2.085     2.258
    50   1 H        0.924     0.066     2.130     2.282
    51   1 H        0.924     0.057     2.235     2.338
    52   1 H        0.924     0.058     2.221     2.331
    53   1 H        0.926     0.047     2.355     2.400
    54   1 H        0.926     0.059     2.212     2.326
    55   1 H        0.924     0.054     2.265     2.354
    56   1 H        0.924     0.056     2.245     2.343
    57   1 H        0.925     0.082     1.957     2.188
    58   1 H        0.925     0.081     1.964     2.192
    59   1 H        0.924     0.048     2.343     2.394
    60   1 H        0.924     0.053     2.287     2.365
    61   1 H        0.926     0.048     2.350     2.397
    62   1 H        0.927     0.052     2.289     2.366
    63   1 H        0.923     0.082     1.961     2.190
    64   1 H        0.927     0.052     2.295     2.369
    65   1 H        0.924     0.036     2.497     2.471
    66   1 H        0.925     0.069     2.092     2.262
    67   1 H        0.925     0.030     2.580     2.512
    68   1 H        0.925     0.051     2.308     2.376
    69   1 H        0.925     0.062     2.180     2.309
    70   1 H        0.925     0.036     2.499     2.472
    71   1 H        0.925     0.053     2.284     2.363
    72   1 H        0.860     0.156     1.361     1.827

Wiberg/Mayer (AO) data.
largest (>0.10) Wiberg bond orders for each atom

     #   Z sym  total        # sym  WBO       # sym  WBO       # sym  WBO
 ---------------------------------------------------------------------------
     1   7 N    3.020 --     2 C    1.955    72 H    0.942
     2   6 C    3.931 --     1 N    1.955     3 C    0.993    47 H    0.912
     3   6 C    3.975 --     2 C    0.993     4 C    0.966    14 C    0.957
                            31 C    0.946
     4   6 C    3.977 --    13 C    1.626     5 C    1.245     3 C    0.966
     5   6 C    3.732 --     6 C    1.354     4 C    1.245    34 H    0.958
     6   6 C    3.910 --     5 C    1.354     9 C    1.311     7 O    1.084
     7   8 O    2.241 --     6 C    1.084     8 C    0.977
     8   6 C    3.930 --     7 O    0.977    36 H    0.976    35 H    0.974
                            37 H    0.974
     9   6 C    3.665 --     6 C    1.311    10 O    1.153    12 C    1.038
    10   8 O    2.272 --     9 C    1.153    11 C    0.974
    11   6 C    3.922 --    39 H    0.975    10 O    0.974    40 H    0.969
                            38 H    0.967
    12   6 C    3.983 --    13 C    1.042     9 C    1.038    41 H    0.915
                            63 H    0.912
    13   6 C    3.793 --     4 C    1.626    12 C    1.042    42 H    0.962
    14   6 C    3.976 --    15 C    0.983    44 H    0.973    43 H    0.969
                             3 C    0.957
    15   6 C    3.986 --    16 C    1.046    14 C    0.983    45 H    0.962
                            46 H    0.943
    16   6 C    3.690 --    17 N    1.350    15 C    1.046    48 H    0.962
                            30 C    0.235
    17   7 N    3.737 --    30 C    1.359    16 C    1.350    18 C    0.966
    18   6 C    3.955 --    19 C    0.977    50 H    0.969    49 H    0.968
                            17 N    0.966
    19   6 C    3.987 --    20 C    1.007    18 C    0.977    51 H    0.972
                            52 H    0.970
    20   6 C    3.943 --    21 C    1.411    29 C    1.380    19 C    1.007
    21   6 C    3.949 --    22 C    1.415    20 C    1.411    53 H    0.968
    22   6 C    3.958 --    21 C    1.415    23 C    1.384    54 H    0.963
    23   6 C    3.894 --    22 C    1.384    26 C    1.219    24 O    1.110
    24   8 O    2.254 --    23 C    1.110    25 C    0.976
    25   6 C    3.928 --    57 H    0.977    24 O    0.976    56 H    0.972
                            55 H    0.972
    26   6 C    3.897 --    29 C    1.396    23 C    1.219    27 O    1.103
    27   8 O    2.253 --    26 C    1.103    28 C    0.979
    28   6 C    3.932 --    27 O    0.979    58 H    0.977    59 H    0.973
                            60 H    0.973
    29   6 C    3.959 --    26 C    1.396    20 C    1.380    61 H    0.963
    30   6 C    3.613 --    17 N    1.359    64 H    0.976    62 H    0.969
                            16 C    0.235
    31   6 C    3.976 --    33 C    1.009    32 C    1.008    65 H    0.959
                             3 C    0.946
    32   6 C    3.980 --    31 C    1.008    67 H    0.983    68 H    0.982
                            66 H    0.974
    33   6 C    3.983 --    31 C    1.009    70 H    0.983    71 H    0.981
                            69 H    0.976
    34   1 H    0.995 --     5 C    0.958
    35   1 H    0.994 --     8 C    0.974
    36   1 H    0.992 --     8 C    0.976
    37   1 H    0.994 --     8 C    0.974
    38   1 H    0.989 --    11 C    0.967
    39   1 H    0.991 --    11 C    0.975
    40   1 H    0.990 --    11 C    0.969
    41   1 H    0.956 --    12 C    0.915
    42   1 H    0.998 --    13 C    0.962
    43   1 H    0.995 --    14 C    0.969
    44   1 H    0.996 --    14 C    0.973
    45   1 H    0.997 --    15 C    0.962
    46   1 H    0.978 --    15 C    0.943
    47   1 H    0.983 --     2 C    0.912
    48   1 H    0.997 --    16 C    0.962
    49   1 H    0.994 --    18 C    0.968
    50   1 H    0.995 --    18 C    0.969
    51   1 H    0.996 --    19 C    0.972
    52   1 H    0.995 --    19 C    0.970
    53   1 H    0.997 --    21 C    0.968
    54   1 H    0.995 --    22 C    0.963
    55   1 H    0.991 --    25 C    0.972
    56   1 H    0.991 --    25 C    0.972
    57   1 H    0.992 --    25 C    0.977
    58   1 H    0.993 --    28 C    0.977
    59   1 H    0.993 --    28 C    0.973
    60   1 H    0.993 --    28 C    0.973
    61   1 H    0.996 --    29 C    0.963
    62   1 H    0.997 --    30 C    0.969
    63   1 H    0.952 --    12 C    0.912
    64   1 H    0.997 --    30 C    0.976
    65   1 H    0.992 --    31 C    0.959
    66   1 H    0.991 --    32 C    0.974
    67   1 H    0.997 --    32 C    0.983
    68   1 H    0.994 --    32 C    0.982
    69   1 H    0.993 --    33 C    0.976
    70   1 H    0.997 --    33 C    0.983
    71   1 H    0.994 --    33 C    0.981
    72   1 H    0.970 --     1 N    0.942
 ---------------------------------------------------------------------------

molecular dipole:
                 x           y           z       tot (Debye)
 q only:       -0.134      -0.661      -0.069
   full:        0.187      -0.793      -0.207       2.136

           -------------------------------------------------
          | TOTAL ENERGY              -99.347738467451 Eh   |
          | GRADIENT NORM               0.001651298702 Eh/α |
          | HOMO-LUMO GAP               0.893206334678 eV   |
           -------------------------------------------------

 * finished run on 2024/04/06 at 11:13:37.612
