   * xtb version 6.6.1 (8d0f1dd) compiled by 'conda@1efc2f54142f' on 2023-08-01
          program call               : xtb xtbopt.xyz --opt crude --input .xc2 --gfn2

   ID    Z sym.   atoms
    1    7 N      1, 17
    2    6 C      2-6, 8, 9, 11-16, 18-23, 25, 26, 28-33
    3    8 O      7, 10, 24, 27
    4    1 H      34-72

          :  Hamiltonian                  GFN2-xTB          :
 * total energy  :   -99.3234830 Eh     change       -0.6437517E-11 Eh
   *** GEOMETRY OPTIMIZATION CONVERGED AFTER 1 ITERATIONS ***

 final structure:
================
72
 xtb: 6.6.1 (8d0f1dd)
N           -1.02712593483887        4.63144547269667        1.82435161746627
C           -1.68575776822299        4.00850263841814        1.02575136834627
C           -2.42770047032127        3.54730165760568        0.05097294425853
C           -4.07430221920576        0.03035703428353        1.00197916202888
C           -4.82369478816284       -0.37391274744710       -0.09266567654664
C           -4.92813178607646       -1.72015101838424       -0.41343481308869
O           -5.63348250478229       -2.22786930542806       -1.44183836866004
C           -6.39026115812125       -1.35915171133224       -2.25227165509757
C           -4.25604859183340       -2.67721178227276        0.39775152602505
O           -4.42956029304290       -3.96131124395346        0.02611412536785
C           -3.89924679041032       -4.98845530946527        0.83007295206003
C           -3.50352570117410       -2.24580577310791        1.48041291664128
C           -3.41389629106662       -0.89292835720029        1.78459404077946
C           -1.79382560227773        3.06921168661197       -1.22934721671350
C           -1.47263108245424        1.56847671117723       -1.19845213577417
C           -0.44738943851540        1.23275156277780       -0.10505888971468
N            0.34139462268233        0.07664119543666       -0.45731821839175
C            1.72553180891253        0.05587025197065       -0.04957987525631
C            2.63044327870128       -0.46448243213830       -1.18623503998137
C            4.07647243708371       -0.28945242591430       -0.83106562101870
C            4.71483854110496        0.92399254893826       -1.05437815840635
C            6.04444369742373        1.10497521986435       -0.71248586911018
C            6.77100944080245        0.07281079019029       -0.13233319868742
O            8.06373342652061        0.13022361887591        0.23289973199970
C            8.79347939256464        1.31476727917347        0.00863389995339
C            6.12539043961811       -1.17334246495803        0.10873594220780
O            6.90064754337326       -2.11767105529639        0.67460513262845
C            6.36484480230122       -3.39668991198598        0.91826547006034
C            4.79228074851529       -1.32829160205316       -0.24296783431891
C           -0.34632481698559       -1.18096193963490       -0.32395206110823
C           -3.93244422547685        3.48298563120928        0.19166603925487
C           -4.38313120438197        2.88013702145961        1.46746136173085
C           -4.51405835413623        4.91598885723097        0.07813148739871
H           -5.33858791185209        0.36720515289291       -0.68313962273569
H           -7.14038131325661       -0.81797587175690       -1.66755239217946
H           -6.89101375802942       -1.99755451508024       -2.97736551462540
H           -5.75141242447569       -0.64436565989363       -2.78053904146661
H           -4.28471525834114       -4.93573699340044        1.85282900086362
H           -4.22658981634389       -5.91841556049690        0.36919367769266
H           -2.80520162197830       -4.95974363673760        0.84961882073317
H           -2.99228114992166       -2.96119524040813        2.10390379263590
H           -2.83852054774128       -0.57740013220331        2.64109051331185
H           -2.48046204313927        3.26877153801135       -2.05397689377748
H           -0.87302299062625        3.62549272269546       -1.41440143291395
H           -2.38934496225043        0.99757860134437       -1.04307800139777
H           -1.05021264321458        1.28507481158325       -2.16350929095888
H           -0.96936169441501        1.08149277949016        0.85313355276401
H            0.22757585933944        2.08394501245729        0.00761726554742
H            1.87354357608722       -0.56982731596331        0.84259551222964
H            2.04418119479353        1.07051180764723        0.19683047178828
H            2.39659559160937        0.10262471021412       -2.08788488798024
H            2.41463408516092       -1.51564311357197       -1.37547481585287
H            4.17236343378359        1.73724494015705       -1.51185300726234
H            6.51301584126128        2.05599418996785       -0.90653218030573
H            8.37803363085119        2.15369253201434        0.57509951745946
H            8.82431734580930        1.57081458435063       -1.05450518625047
H            9.80250010314094        1.10685633018951        0.35944043640325
H            7.17615985328831       -3.97479981040137        1.35645020874625
H            5.52909222019423       -3.35373820118819        1.62376585564150
H            6.03728570041629       -3.87640205625996       -0.00908382043332
H            4.29610202913067       -2.27061626325543       -0.07157880689857
H           -1.29698366113297       -1.13825708751415       -0.85042136741804
H           -0.54746611838583       -1.43114476716533        0.72860242993464
H            0.25640091211584       -1.97503533639756       -0.75931648816860
H           -4.33377833083964        2.90838627255439       -0.65172827652493
H           -3.78764446249832        3.02069487348745        2.35313218393883
H           -4.04689255043778        1.11149494664315        1.24946133415003
H           -5.44339870151205        2.76158510626867        1.61578497006726
H           -4.15779931381934        5.52855287077162        0.90206534763501
H           -4.19457969056549        5.36814196176431       -0.85739294903657
H           -5.60007713676608        4.88535426754927        0.10219362582599
H           -0.55752883662289        4.24173097462776        2.62877521507716

          :  Hamiltonian                  GFN2-xTB          :
         :: total energy             -99.323482992522 Eh    ::
         :: gradient norm              0.002586498570 Eh/a0 ::
         :: HOMO-LUMO gap              0.927936746137 eV    ::
         :: SCC energy              -100.734967795072 Eh    ::
         :: -> dispersion             -0.069151425666 Eh    ::
         :: repulsion energy           1.410266634318 Eh    ::

    * Orbital Energies and Occupations

         #    Occupation            Energy/Eh            Energy/eV
      -------------------------------------------------------------
         1        2.0000           -0.8103228             -22.0500
       ...           ...                  ...                  ...
        78        1.9981           -0.5323040             -14.4847
        79        1.9978           -0.5296594             -14.4128
        80        1.9976           -0.5288840             -14.3917
        81        1.9973           -0.5266060             -14.3297
        82        1.9968           -0.5238384             -14.2544
        83        1.9966           -0.5231212             -14.2349
        84        1.9948           -0.5165089             -14.0549
        85        1.9765           -0.4923461             -13.3974
        86        1.9661           -0.4864567             -13.2372
        87        1.8574           -0.4627959             -12.5933
        88        1.8375           -0.4605575             -12.5324
        89        1.8006           -0.4569933             -12.4354
        90        1.7290           -0.4514925             -12.2857 (HOMO)
        91        0.8508           -0.4173915             -11.3578 (LUMO)
        92        0.0070           -0.3326759              -9.0526
        93        0.0024           -0.3156090              -8.5882
        94        0.0019           -0.3121148              -8.4931
        95        0.0016           -0.3097158              -8.4278
        96        0.0015           -0.3080092              -8.3814
        97        0.0002           -0.2798469              -7.6150
        98        0.0000           -0.1872130              -5.0943
        99        0.0000           -0.1853974              -5.0449
       100                         -0.0999062              -2.7186
       101                         -0.0640097              -1.7418
       ...                                ...                  ...
       171                          0.9945843              27.0640
      -------------------------------------------------------------
                  HL-Gap            0.0341010 Eh            0.9279 eV

     #   Z          covCN         q      C6AA      α(0)
     1   7 N        1.772    -0.210    26.360     7.603
     2   6 C        1.908     0.103    28.547     8.629
     3   6 C        2.945    -0.029    28.734     8.792
     4   6 C        2.915    -0.045    29.126     8.850
     5   6 C        2.915    -0.070    29.743     8.943
     6   6 C        2.864     0.134    25.073     8.208
     7   8 O        1.706    -0.225    17.725     5.684
     8   6 C        3.645     0.027    20.459     6.501
     9   6 C        2.864     0.133    25.096     8.212
    10   8 O        1.706    -0.225    17.739     5.687
    11   6 C        3.645     0.026    20.470     6.503
    12   6 C        2.916    -0.068    29.684     8.934
    13   6 C        2.916    -0.038    28.933     8.821
    14   6 C        3.811    -0.055    21.562     6.610
    15   6 C        3.802    -0.067    21.791     6.646
    16   6 C        3.749    -0.002    20.681     6.486
    17   7 N        2.728    -0.111    23.429     7.189
    18   6 C        3.750     0.001    20.624     6.477
    19   6 C        3.808    -0.072    21.875     6.658
    20   6 C        2.967     0.010    27.795     8.648
    21   6 C        2.922    -0.045    29.110     8.848
    22   6 C        2.913    -0.066    29.634     8.927
    23   6 C        2.864     0.135    25.054     8.205
    24   8 O        1.706    -0.217    17.596     5.664
    25   6 C        3.645     0.024    20.509     6.509
    26   6 C        2.862     0.135    25.047     8.203
    27   8 O        1.706    -0.219    17.640     5.671
    28   6 C        3.645     0.026    20.479     6.504
    29   6 C        2.919    -0.076    29.891     8.966
    30   6 C        3.704    -0.048    21.582     6.642
    31   6 C        3.859     0.004    20.470     6.434
    32   6 C        2.842    -0.093    30.320     9.024
    33   6 C        3.758    -0.105    22.566     6.773
    34   1 H        0.926     0.050     2.324     2.384
    35   1 H        0.924     0.055     2.258     2.350
    36   1 H        0.925     0.082     1.955     2.187
    37   1 H        0.924     0.050     2.317     2.380
    38   1 H        0.924     0.056     2.249     2.345
    39   1 H        0.925     0.082     1.959     2.189
    40   1 H        0.924     0.051     2.313     2.378
    41   1 H        0.926     0.054     2.269     2.356
    42   1 H        0.926     0.044     2.392     2.418
    43   1 H        0.924     0.060     2.204     2.322
    44   1 H        0.924     0.051     2.308     2.376
    45   1 H        0.924     0.044     2.400     2.423
    46   1 H        0.924     0.061     2.193     2.316
    47   1 H        0.923     0.030     2.582     2.513
    48   1 H        0.924     0.048     2.347     2.396
    49   1 H        0.923     0.038     2.476     2.461
    50   1 H        0.924     0.048     2.346     2.395
    51   1 H        0.924     0.063     2.166     2.302
    52   1 H        0.925     0.053     2.288     2.365
    53   1 H        0.926     0.052     2.298     2.370
    54   1 H        0.926     0.060     2.201     2.320
    55   1 H        0.924     0.057     2.237     2.339
    56   1 H        0.924     0.058     2.220     2.330
    57   1 H        0.925     0.084     1.940     2.178
    58   1 H        0.925     0.083     1.948     2.183
    59   1 H        0.924     0.053     2.286     2.365
    60   1 H        0.924     0.056     2.250     2.346
    61   1 H        0.926     0.053     2.282     2.362
    62   1 H        0.925     0.055     2.254     2.348
    63   1 H        0.923     0.035     2.516     2.481
    64   1 H        0.925     0.060     2.201     2.320
    65   1 H        0.924     0.061     2.186     2.312
    66   1 H        0.926     0.048     2.349     2.397
    67   1 H        0.924     0.073     2.058     2.243
    68   1 H        0.926     0.060     2.203     2.321
    69   1 H        0.925     0.054     2.270     2.356
    70   1 H        0.925     0.059     2.210     2.325
    71   1 H        0.925     0.058     2.227     2.334
    72   1 H        0.860     0.194     1.138     1.671

Wiberg/Mayer (AO) data.
largest (>0.10) Wiberg bond orders for each atom

     #   Z sym  total        # sym  WBO       # sym  WBO       # sym  WBO
 ---------------------------------------------------------------------------
     1   7 N    3.230 --     2 C    2.090    72 H    0.907     3 C    0.135
     2   6 C    3.876 --     1 N    2.090     3 C    1.679
     3   6 C    3.837 --     2 C    1.679    14 C    0.978    31 C    0.963
                             1 N    0.135
     4   6 C    3.848 --    13 C    1.437     5 C    1.408    67 H    0.846
     5   6 C    3.956 --     4 C    1.408     6 C    1.383    34 H    0.962
     6   6 C    3.890 --     5 C    1.383     9 C    1.221     7 O    1.106
     7   8 O    2.252 --     6 C    1.106     8 C    0.977
     8   6 C    3.929 --     7 O    0.977    36 H    0.977    37 H    0.973
                            35 H    0.973
     9   6 C    3.895 --    12 C    1.390     6 C    1.221    10 O    1.104
    10   8 O    2.250 --     9 C    1.104    11 C    0.977
    11   6 C    3.929 --    10 O    0.977    39 H    0.977    38 H    0.973
                            40 H    0.973
    12   6 C    3.952 --    13 C    1.402     9 C    1.390    41 H    0.962
    13   6 C    3.944 --     4 C    1.437    12 C    1.402    42 H    0.969
    14   6 C    3.986 --    15 C    0.987     3 C    0.978    44 H    0.971
                            43 H    0.963
    15   6 C    3.971 --    16 C    0.992    14 C    0.987    45 H    0.974
                            46 H    0.971
    16   6 C    3.972 --    17 N    1.008    15 C    0.992    48 H    0.968
                            47 H    0.957
    17   7 N    3.104 --    30 C    1.019    18 C    1.009    16 C    1.008
    18   6 C    3.965 --    17 N    1.009    50 H    0.969    19 C    0.968
                            49 H    0.959
    19   6 C    3.975 --    20 C    1.016    52 H    0.970    51 H    0.968
                            18 C    0.968
    20   6 C    3.926 --    21 C    1.388    29 C    1.387    19 C    1.016
    21   6 C    3.928 --    22 C    1.427    20 C    1.388    53 H    0.967
    22   6 C    3.950 --    21 C    1.427    23 C    1.372    54 H    0.962
    23   6 C    3.872 --    22 C    1.372    26 C    1.211    24 O    1.115
    24   8 O    2.246 --    23 C    1.115    25 C    0.975
    25   6 C    3.925 --    57 H    0.976    24 O    0.975    56 H    0.971
                            55 H    0.971
    26   6 C    3.880 --    29 C    1.386    23 C    1.211    27 O    1.110
    27   8 O    2.248 --    26 C    1.110    28 C    0.977
    28   6 C    3.928 --    27 O    0.977    58 H    0.976    59 H    0.972
                            60 H    0.972
    29   6 C    3.951 --    20 C    1.387    26 C    1.386    61 H    0.961
    30   6 C    3.971 --    17 N    1.019    62 H    0.978    64 H    0.977
                            63 H    0.962
    31   6 C    3.977 --    32 C    1.069     3 C    0.963    65 H    0.943
                            33 C    0.927
    32   6 C    3.223 --    31 C    1.069    66 H    0.978    68 H    0.977
                            67 H    0.121
    33   6 C    3.917 --    69 H    0.987    71 H    0.982    70 H    0.977
                            31 C    0.927
    34   1 H    0.995 --     5 C    0.962
    35   1 H    0.992 --     8 C    0.973
    36   1 H    0.992 --     8 C    0.977
    37   1 H    0.992 --     8 C    0.973
    38   1 H    0.992 --    11 C    0.973
    39   1 H    0.992 --    11 C    0.977
    40   1 H    0.992 --    11 C    0.973
    41   1 H    0.994 --    12 C    0.962
    42   1 H    0.996 --    13 C    0.969
    43   1 H    0.991 --    14 C    0.963
    44   1 H    0.994 --    14 C    0.971
    45   1 H    0.997 --    15 C    0.974
    46   1 H    0.995 --    15 C    0.971
    47   1 H    0.979 --    16 C    0.957
    48   1 H    0.997 --    16 C    0.968
    49   1 H    0.981 --    18 C    0.959
    50   1 H    0.997 --    18 C    0.969
    51   1 H    0.993 --    19 C    0.968
    52   1 H    0.995 --    19 C    0.970
    53   1 H    0.996 --    21 C    0.967
    54   1 H    0.994 --    22 C    0.962
    55   1 H    0.989 --    25 C    0.971
    56   1 H    0.989 --    25 C    0.971
    57   1 H    0.992 --    25 C    0.976
    58   1 H    0.992 --    28 C    0.976
    59   1 H    0.991 --    28 C    0.972
    60   1 H    0.991 --    28 C    0.972
    61   1 H    0.996 --    29 C    0.961
    62   1 H    0.993 --    30 C    0.978
    63   1 H    0.977 --    30 C    0.962
    64   1 H    0.994 --    30 C    0.977
    65   1 H    0.978 --    31 C    0.943
    66   1 H    0.994 --    32 C    0.978
    67   1 H    0.993 --     4 C    0.846    32 C    0.121
    68   1 H    0.993 --    32 C    0.977
    69   1 H    0.996 --    33 C    0.987
    70   1 H    0.988 --    33 C    0.977
    71   1 H    0.995 --    33 C    0.982
    72   1 H    0.953 --     1 N    0.907
 ---------------------------------------------------------------------------

molecular dipole:
                 x           y           z       tot (Debye)
 q only:       -0.172       0.638       0.068
   full:       -0.320       0.555       0.429       1.958

           -------------------------------------------------
          | TOTAL ENERGY              -99.323482992522 Eh   |
          | GRADIENT NORM               0.002586498570 Eh/α |
          | HOMO-LUMO GAP               0.927936746137 eV   |
           -------------------------------------------------

 * finished run on 2024/04/06 at 11:11:54.724
