   * xtb version 6.6.1 (8d0f1dd) compiled by 'conda@1efc2f54142f' on 2023-08-01
          program call               : xtb struc.xyz --opt loose --input .xc1 --gfn2

   ID    Z sym.   atoms
    1    6 C      1, 3, 5-7, 10, 11, 14
    2    7 N      2, 4, 9, 13
    3    8 O      8, 12
    4    1 H      15-25
constraining bond 5 14 to    5.0000000 Å, actual value:    2.4460888 Å

          :  Hamiltonian                  GFN2-xTB          :
 * total energy  :   -30.5992173 Eh     change       -0.6633627E-10 Eh
 * total energy  :   -34.8048900 Eh     change       -0.4205673E+01 Eh
 * total energy  :   -37.9665387 Eh     change       -0.3161649E+01 Eh
 * total energy  :   -40.0083316 Eh     change       -0.2041793E+01 Eh
 * total energy  :   -41.0321020 Eh     change       -0.1023770E+01 Eh
 * total energy  :   -41.3133456 Eh     change       -0.2812436E+00 Eh
 * total energy  :   -41.3619321 Eh     change       -0.4858657E-01 Eh
 * total energy  :   -41.4041382 Eh     change       -0.4220607E-01 Eh
 * total energy  :   -41.4461392 Eh     change       -0.4200101E-01 Eh
 * total energy  :   -41.4880669 Eh     change       -0.4192763E-01 Eh
 * total energy  :   -42.1592959 Eh     change        0.1203587E-01 Eh
 * total energy  :   -42.1805020 Eh     change       -0.2120611E-01 Eh
 * total energy  :   -42.1864044 Eh     change       -0.5902369E-02 Eh
 * total energy  :   -42.1904254 Eh     change       -0.4021017E-02 Eh
 * total energy  :   -42.1922921 Eh     change       -0.1866711E-02 Eh
 * total energy  :   -42.1928681 Eh     change       -0.5760322E-03 Eh
 * total energy  :   -42.1929949 Eh     change       -0.1267268E-03 Eh
 * total energy  :   -42.1930450 Eh     change       -0.5016821E-04 Eh
 * total energy  :   -42.1930690 Eh     change       -0.2393118E-04 Eh
   *** GEOMETRY OPTIMIZATION CONVERGED AFTER 51 ITERATIONS ***

 final structure:
================
25
 xtb: 6.6.1 (8d0f1dd)
C            3.35937661114742        1.76002535973201        0.00250715564716
N            2.73669099528574        0.46175579034318        0.03156931221777
C            3.34597098582456       -0.71374239803381        0.07545506751595
N            2.44396759047643       -1.71105245264333        0.08857177824625
C            1.21246465536342       -1.14139528857552        0.05189163321674
C            1.38637262519339        0.22842787355659        0.01789913297390
C            0.23957804115397        1.11413402778321       -0.02077433272004
O            0.29158586782815        2.32090728455221       -0.05362267671358
N           -0.97535306841461        0.40946637039980       -0.01381234851963
C           -2.17153598881099        1.23953254666328       -0.02764205187460
C           -1.11959355574615       -0.98106367261399       -0.00133693168237
O           -2.42594529258468       -1.24078562599590       -0.02847499657095
N           -0.03175638680312       -1.74338401193901        0.03514573358757
C           -3.64622613613573       -2.19072632833180       -0.05573613859223
H            3.88665227369184        1.94932683300655        0.93782546360847
H            4.07049542749849        1.82029362529750       -0.82126131715130
H            2.58261330481356        2.51353489754286       -0.12759982510158
H            4.41023962204518       -0.85224284206789        0.09705326421392
H           -1.85337207544186        2.27942328913407       -0.01334320717532
H           -2.75329588581658        1.04416782036101       -0.92662671438883
H           -2.78153301212298        1.02640672392987        0.84818410651421
H           -3.66236132172431       -2.74877233358953        0.87400233990767
H           -3.56058360765554       -2.84121029283106       -0.92007531206245
H           -4.45800485614168       -1.48161115937747       -0.13911515436308
H            2.63398470117210       -2.70317749470448        0.12048763716810

          :  Hamiltonian                  GFN2-xTB          :
         :: total energy             -42.193068961626 Eh    ::
         :: gradient norm              0.001710498585 Eh/a0 ::
         :: HOMO-LUMO gap              3.174971924842 eV    ::
         :: SCC energy               -42.697105635889 Eh    ::
         :: -> dispersion             -0.021527909059 Eh    ::
         :: repulsion energy           0.502609391306 Eh    ::

    * Orbital Energies and Occupations

         #    Occupation            Energy/Eh            Energy/eV
      -------------------------------------------------------------
         1        2.0000           -0.8991394             -24.4668
       ...           ...                  ...                  ...
        25        2.0000           -0.6575880             -17.8939
        26        2.0000           -0.6460967             -17.5812
        27        2.0000           -0.6395103             -17.4020
        28        2.0000           -0.6280117             -17.0891
        29        2.0000           -0.6275678             -17.0770
        30        2.0000           -0.6102242             -16.6050
        31        2.0000           -0.5998524             -16.3228
        32        2.0000           -0.5996026             -16.3160
        33        2.0000           -0.5848438             -15.9144
        34        1.9999           -0.5604886             -15.2517
        35        1.9998           -0.5530244             -15.0486
        36        1.9992           -0.5412992             -14.7295
        37        1.9991           -0.5401637             -14.6986 (HOMO)
        38        0.0018           -0.4234857             -11.5236 (LUMO)
        39        0.0001           -0.3971488             -10.8070
        40        0.0000           -0.3658532              -9.9554
        41                         -0.3011878              -8.1957
        42                         -0.2729508              -7.4274
        43                         -0.1816279              -4.9423
        44                         -0.1645714              -4.4782
        45                         -0.1382021              -3.7607
        46                         -0.0716694              -1.9502
        47                         -0.0466916              -1.2705
        48                         -0.0190588              -0.5186
       ...                                ...                  ...
        67                          0.5378687              14.6362
      -------------------------------------------------------------
                  HL-Gap            0.1166781 Eh            3.1750 eV

     #   Z          covCN         q      C6AA      α(0)
     1   6 C        3.691    -0.093    22.475     6.784
     2   7 N        2.841     0.087    19.736     6.598
     3   6 C        3.097     0.061    26.517     8.439
     4   7 N        2.795    -0.040    22.009     6.968
     5   6 C        3.082     0.139    24.898     8.180
     6   6 C        3.130    -0.021    28.330     8.714
     7   6 C        2.769     0.275    22.343     7.741
     8   8 O        0.858    -0.382    21.323     6.191
     9   7 N        2.748    -0.074    22.681     7.073
    10   6 C        3.703    -0.066    21.929     6.696
    11   6 C        2.721     0.314    21.659     7.619
    12   8 O        1.678    -0.257    18.267     5.770
    13   7 N        1.829    -0.296    28.529     7.915
    14   6 C        3.593     0.014    20.974     6.634
    15   1 H        0.924     0.107     1.724     2.053
    16   1 H        0.925     0.104     1.746     2.066
    17   1 H        0.925     0.135     1.494     1.912
    18   1 H        0.926     0.125     1.574     1.962
    19   1 H        0.925     0.116     1.649     2.008
    20   1 H        0.925     0.088     1.899     2.155
    21   1 H        0.925     0.088     1.900     2.155
    22   1 H        0.925     0.109     1.708     2.044
    23   1 H        0.925     0.108     1.717     2.049
    24   1 H        0.926     0.122     1.594     1.975
    25   1 H        0.860     0.239     0.928     1.509

Wiberg/Mayer (AO) data.
largest (>0.10) Wiberg bond orders for each atom

     #   Z sym  total        # sym  WBO       # sym  WBO       # sym  WBO
 ---------------------------------------------------------------------------
     1   6 C    3.918 --     2 N    0.983    16 H    0.963    17 H    0.963
                            15 H    0.959
     2   7 N    3.727 --     3 C    1.414     6 C    1.173     1 C    0.983
     3   6 C    3.934 --     2 N    1.414     4 N    1.315    18 H    0.952
     4   7 N    3.633 --     3 C    1.315     5 C    1.195    25 H    0.915
     5   6 C    3.963 --     6 C    1.360    13 N    1.224     4 N    1.195
     6   6 C    3.943 --     5 C    1.360     2 N    1.173     7 C    1.076
     7   6 C    3.964 --     8 O    1.688     9 N    1.100     6 C    1.076
     8   8 O    2.062 --     7 C    1.688     9 N    0.159
     9   7 N    3.594 --    11 C    1.148     7 C    1.100    10 C    0.976
                             8 O    0.159
    10   6 C    3.930 --     9 N    0.976    21 H    0.968    20 H    0.967
                            19 H    0.965
    11   6 C    3.938 --    13 N    1.417    12 O    1.216     9 N    1.148
    12   8 O    2.326 --    11 C    1.216    14 C    0.856    13 N    0.115
    13   7 N    3.008 --    11 C    1.417     5 C    1.224    12 O    0.115
    14   6 C    3.836 --    23 H    0.976    22 H    0.976    24 H    0.973
                            12 O    0.856
    15   1 H    0.988 --     1 C    0.959
    16   1 H    0.988 --     1 C    0.963
    17   1 H    0.982 --     1 C    0.963
    18   1 H    0.983 --     3 C    0.952
    19   1 H    0.987 --    10 C    0.965
    20   1 H    0.991 --    10 C    0.967
    21   1 H    0.991 --    10 C    0.968
    22   1 H    0.987 --    14 C    0.976
    23   1 H    0.987 --    14 C    0.976
    24   1 H    0.985 --    14 C    0.973
    25   1 H    0.942 --     4 N    0.915
 ---------------------------------------------------------------------------

molecular dipole:
                 x           y           z       tot (Debye)
 q only:        1.727      -1.531       0.061
   full:        2.018      -1.848       0.079       6.957

           -------------------------------------------------
          | TOTAL ENERGY              -42.193068961626 Eh   |
          | GRADIENT NORM               0.001710498585 Eh/α |
          | HOMO-LUMO GAP               3.174971924842 eV   |
           -------------------------------------------------

 * finished run on 2024/06/05 at 19:57:59.437
