   * xtb version 6.6.1 (8d0f1dd) compiled by 'conda@1efc2f54142f' on 2023-08-01
          program call               : xtb xtbopt.xyz --opt crude --input .xc2 --gfn2

   ID    Z sym.   atoms
    1    6 C      1, 3, 5-7, 10, 11, 14
    2    7 N      2, 4, 9, 13
    3    8 O      8, 12
    4    1 H      15-25
########################################################################
[WARNING] Please study the warnings concerning your input carefully
-1- readin_getIntValue: could not parse ''
########################################################################

          :  Hamiltonian                  GFN2-xTB          :
 * total energy  :   -42.1944812 Eh     change       -0.3765876E-12 Eh
 * total energy  :   -42.2090102 Eh     change       -0.1452900E-01 Eh
 * total energy  :   -42.2196062 Eh     change       -0.1059605E-01 Eh
 * total energy  :   -42.2258055 Eh     change       -0.6199289E-02 Eh
 * total energy  :   -42.2315890 Eh     change       -0.5783499E-02 Eh
 * total energy  :   -42.2363471 Eh     change       -0.4758104E-02 Eh
 * total energy  :   -42.2396019 Eh     change       -0.3254829E-02 Eh
 * total energy  :   -42.2412345 Eh     change       -0.1632587E-02 Eh
 * total energy  :   -42.2417737 Eh     change       -0.5392189E-03 Eh
 * total energy  :   -42.2421654 Eh     change       -0.3916375E-03 Eh
   *** GEOMETRY OPTIMIZATION CONVERGED AFTER 10 ITERATIONS ***

 final structure:
================
25
 xtb: 6.6.1 (8d0f1dd)
C            3.32355021932250        1.55968518441376        0.02368358226065
N            2.56608625690650        0.33351662137334        0.03037695570340
C            3.03599962782667       -0.90179482521753        0.05753310210971
N            2.02294313884565       -1.78634464646311        0.05961210394148
C            0.85272214822844       -1.08761117353700        0.03258720762282
C            1.19608740513143        0.25956784001309        0.01508323046585
C            0.17671596827786        1.28391463789390       -0.01952675222312
O            0.34750390538889        2.47695396854361       -0.04422399518931
N           -1.10508180390793        0.69996347599458       -0.02354319935723
C           -2.24891117815163        1.59652610908947       -0.05082881391569
C           -1.32756572307769       -0.64403610848353       -0.00822966676081
O           -2.58848180675488       -0.98579948602145       -0.02896228614438
N           -0.39228061219039       -1.56554216614699        0.02022128972337
C           -2.89100833935147       -2.38361863812055       -0.02183819171341
H            3.86840150821613        1.67521082364709        0.96149288020313
H            4.03777008423691        1.56178137154732       -0.79940767617433
H            2.62982024630787        2.39311236927149       -0.09085796422552
H            4.07588337766817       -1.16793196278730        0.07482775168820
H           -1.86848988057139        2.61638214071029       -0.04941789763473
H           -2.84024343138744        1.42088462026921       -0.94802055384299
H           -2.87373397000536        1.42974311722989        0.82508390742634
H           -2.54295582934062       -2.84707937652269        0.90439807217281
H           -2.41717464771222       -2.88087076207838       -0.86796933853437
H           -3.97815957954772       -2.44437729392304       -0.09821091734116
H            2.10103442973801       -2.79399729909723        0.07730878764110

          :  Hamiltonian                  GFN2-xTB          :
         :: total energy             -42.242165374944 Eh    ::
         :: gradient norm              0.006604609802 Eh/a0 ::
         :: HOMO-LUMO gap              3.282561746458 eV    ::
         :: SCC energy               -42.763282910879 Eh    ::
         :: -> dispersion             -0.022047269704 Eh    ::
         :: repulsion energy           0.521058521404 Eh    ::

    * Orbital Energies and Occupations

         #    Occupation            Energy/Eh            Energy/eV
      -------------------------------------------------------------
         1        2.0000           -0.9032438             -24.5785
       ...           ...                  ...                  ...
        25        2.0000           -0.6652979             -18.1037
        26        2.0000           -0.6526239             -17.7588
        27        2.0000           -0.6465405             -17.5933
        28        2.0000           -0.6372165             -17.3395
        29        2.0000           -0.6317607             -17.1911
        30        2.0000           -0.6134735             -16.6935
        31        2.0000           -0.6084155             -16.5558
        32        2.0000           -0.6002938             -16.3348
        33        2.0000           -0.5973602             -16.2550
        34        1.9999           -0.5670685             -15.4307
        35        1.9999           -0.5638763             -15.3439
        36        1.9997           -0.5564221             -15.1410
        37        1.9992           -0.5483181             -14.9205 (HOMO)
        38        0.0012           -0.4276861             -11.6379 (LUMO)
        39        0.0000           -0.4015130             -10.9257
        40        0.0000           -0.3690611             -10.0427
        41                         -0.2744085              -7.4670
        42                         -0.1886746              -5.1341
        43                         -0.1740978              -4.7374
        44                         -0.1357473              -3.6939
        45                         -0.1127473              -3.0680
        46                         -0.0666738              -1.8143
        47                         -0.0346417              -0.9426
        48                         -0.0200906              -0.5467
       ...                                ...                  ...
        67                          0.5458935              14.8545
      -------------------------------------------------------------
                  HL-Gap            0.1206319 Eh            3.2826 eV

     #   Z          covCN         q      C6AA      α(0)
     1   6 C        3.691    -0.094    22.489     6.786
     2   7 N        2.834     0.087    19.732     6.598
     3   6 C        3.076     0.063    26.516     8.443
     4   7 N        2.801    -0.051    22.217     7.001
     5   6 C        3.131     0.144    24.687     8.134
     6   6 C        3.136    -0.030    28.526     8.742
     7   6 C        2.768     0.275    22.353     7.743
     8   8 O        0.858    -0.374    21.163     6.168
     9   7 N        2.748    -0.071    22.614     7.063
    10   6 C        3.702    -0.067    21.945     6.698
    11   6 C        2.845     0.304    21.843     7.660
    12   8 O        1.707    -0.190    17.177     5.596
    13   7 N        1.832    -0.301    28.638     7.930
    14   6 C        3.656     0.004    20.800     6.547
    15   1 H        0.924     0.108     1.717     2.049
    16   1 H        0.925     0.106     1.736     2.060
    17   1 H        0.924     0.135     1.494     1.912
    18   1 H        0.926     0.126     1.568     1.958
    19   1 H        0.925     0.118     1.632     1.998
    20   1 H        0.925     0.093     1.849     2.126
    21   1 H        0.925     0.093     1.850     2.127
    22   1 H        0.924     0.088     1.899     2.155
    23   1 H        0.925     0.088     1.899     2.155
    24   1 H        0.924     0.108     1.715     2.048
    25   1 H        0.860     0.238     0.931     1.511

Wiberg/Mayer (AO) data.
largest (>0.10) Wiberg bond orders for each atom

     #   Z sym  total        # sym  WBO       # sym  WBO       # sym  WBO
 ---------------------------------------------------------------------------
     1   6 C    3.917 --     2 N    0.982    16 H    0.963    17 H    0.962
                            15 H    0.958
     2   7 N    3.728 --     3 C    1.420     6 C    1.168     1 C    0.982
     3   6 C    3.936 --     2 N    1.420     4 N    1.312    18 H    0.951
     4   7 N    3.626 --     3 C    1.312     5 C    1.182    25 H    0.916
     5   6 C    3.965 --     6 C    1.335    13 N    1.267     4 N    1.182
     6   6 C    3.941 --     5 C    1.335     2 N    1.168     7 C    1.087
     7   6 C    3.963 --     8 O    1.700     6 C    1.087     9 N    1.074
     8   8 O    2.073 --     7 C    1.700     9 N    0.151
     9   7 N    3.601 --    11 C    1.204     7 C    1.074    10 C    0.972
                             8 O    0.151
    10   6 C    3.924 --     9 N    0.972    19 H    0.967    21 H    0.967
                            20 H    0.967
    11   6 C    3.951 --    13 N    1.385    12 O    1.209     9 N    1.204
    12   8 O    2.368 --    11 C    1.209    14 C    0.931
    13   7 N    3.014 --    11 C    1.385     5 C    1.267
    14   6 C    3.885 --    24 H    0.975    23 H    0.973    22 H    0.973
                            12 O    0.931
    15   1 H    0.988 --     1 C    0.958
    16   1 H    0.988 --     1 C    0.963
    17   1 H    0.982 --     1 C    0.962
    18   1 H    0.983 --     3 C    0.951
    19   1 H    0.986 --    10 C    0.967
    20   1 H    0.990 --    10 C    0.967
    21   1 H    0.990 --    10 C    0.967
    22   1 H    0.992 --    14 C    0.973
    23   1 H    0.992 --    14 C    0.973
    24   1 H    0.988 --    14 C    0.975
    25   1 H    0.943 --     4 N    0.916
 ---------------------------------------------------------------------------

molecular dipole:
                 x           y           z       tot (Debye)
 q only:        1.928      -1.630       0.053
   full:        2.239      -1.846       0.068       7.377

           -------------------------------------------------
          | TOTAL ENERGY              -42.242165374944 Eh   |
          | GRADIENT NORM               0.006604609802 Eh/α |
          | HOMO-LUMO GAP               3.282561746458 eV   |
           -------------------------------------------------

 * finished run on 2024/06/05 at 19:57:59.845
