   * xtb version 6.6.1 (8d0f1dd) compiled by 'conda@1efc2f54142f' on 2023-08-01
          program call               : xtb struc.xyz --opt loose --input .xc1 --gfn2

   ID    Z sym.   atoms
    1    7 N      1, 17
    2    6 C      2-6, 8, 9, 11-16, 18-23, 25, 26, 28-33
    3    8 O      7, 10, 24, 27
    4    1 H      34-72
constraining bond 21 54 to    2.7133300 Å, actual value:    2.1296845 Å

          :  Hamiltonian                  GFN2-xTB          :
 * total energy  :   -99.4649537 Eh     change       -0.4035485E-08 Eh
 * total energy  :   -99.5397166 Eh     change       -0.7476292E-01 Eh
 * total energy  :   -99.6273033 Eh     change       -0.8758669E-01 Eh
 * total energy  :   -99.6688086 Eh     change       -0.4150537E-01 Eh
 * total energy  :   -99.6994882 Eh     change       -0.3067959E-01 Eh
 * total energy  :   -99.7241726 Eh     change       -0.2468440E-01 Eh
 * total energy  :   -99.7303019 Eh     change       -0.6129288E-02 Eh
 * total energy  :   -99.7485985 Eh     change       -0.1829662E-01 Eh
 * total energy  :   -99.7550377 Eh     change       -0.6439207E-02 Eh
 * total energy  :   -99.7705339 Eh     change       -0.1549620E-01 Eh
 * total energy  :   -99.8625492 Eh     change       -0.1688436E-02 Eh
 * total energy  :   -99.8637708 Eh     change       -0.1221627E-02 Eh
 * total energy  :   -99.8647330 Eh     change       -0.9621502E-03 Eh
 * total energy  :   -99.8653401 Eh     change       -0.6071496E-03 Eh
 * total energy  :   -99.8657752 Eh     change       -0.4350978E-03 Eh
 * total energy  :   -99.8662313 Eh     change       -0.4560589E-03 Eh
 * total energy  :   -99.8664637 Eh     change       -0.2324009E-03 Eh
 * total energy  :   -99.8665544 Eh     change       -0.9075894E-04 Eh
 * total energy  :   -99.8665871 Eh     change       -0.3267085E-04 Eh
   *** GEOMETRY OPTIMIZATION CONVERGED AFTER 29 ITERATIONS ***

 final structure:
================
72
 xtb: 6.6.1 (8d0f1dd)
N           -1.85625452157120        2.81959767491732        2.21311028908528
C           -1.80724322482404        2.13001891819116        1.17298936805350
C           -2.95927720851735        1.91462385634919        0.23140822097670
C           -3.42975794765462        0.47020343980602        0.32429168665575
C           -4.38216928006736       -0.00519582213605       -0.57956114222539
C           -4.86061182375976       -1.30267994539907       -0.51242324778377
O           -5.79071276885959       -1.83346983735616       -1.33375106247367
C           -6.43005516571305       -1.00509008417229       -2.27605207389968
C           -4.36185216076832       -2.18158591342426        0.48624160635251
O           -4.87800852253547       -3.42765447101202        0.47277282680404
C           -4.50084745505064       -4.33591521513303        1.48073149137917
C           -3.41444519058073       -1.70524042669416        1.37759240812446
C           -2.95829746914451       -0.39485212873399        1.29893304593329
C           -2.41091482934559        2.19676057683119       -1.19187800092093
C           -1.46541956455286        1.11048010237863       -1.73670253677569
C           -0.12651276907243        1.12523403363063       -1.10595471219841
N            0.55698444143913        0.04789455873069       -0.71633458541348
C            1.93621490828687        0.16258845869151       -0.31460338682232
C            2.90374519303399       -0.25251099755299       -1.44843622344037
C            4.32609785078961       -0.12401697670814       -0.99858782637194
C            5.04387697503401        1.16158345601337       -1.33270620512375
C            6.36187942903653        1.25466048357439       -0.67931884814337
C            6.93206871844551        0.28041159512328        0.06017866905210
O            8.13893572356998        0.36275785683521        0.66160382788356
C            8.81715951380664        1.58827909106647        0.50584615249467
C            6.24797167805489       -0.98240468098154        0.21874173814555
O            6.92772166078663       -1.92951862146034        0.85905814954399
C            6.39230284026542       -3.22815722624049        0.99031422794476
C            4.94332172113425       -1.11289625041963       -0.29281921443041
C           -0.02319041759573       -1.27332139258958       -0.74735631050136
C           -4.17281534410012        2.84584369847155        0.52642230405830
C           -4.81086665503658        2.52204551009897        1.87532548850513
C           -3.81966153978620        4.32943809721591        0.46618985978643
H           -4.76766988800339        0.65629993182704       -1.33727377041428
H           -6.92720029858297       -0.15836369991727       -1.79319000196085
H           -7.17658183635205       -1.63346040743830       -2.75775167440853
H           -5.72820467306152       -0.63683985516343       -3.03149881699778
H           -4.74792820341494       -3.95550763347527        2.47630702881185
H           -5.07412072826378       -5.24053539333531        1.28779013497455
H           -3.43198598924652       -4.56823633395763        1.43298110473073
H           -3.03110620842526       -2.34386253506434        2.15689608515644
H           -2.24649176001454       -0.05155597591372        2.03376566705518
H           -3.25189806219902        2.28727985692498       -1.87830504225623
H           -1.88695788626133        3.15321538195248       -1.18506293339745
H           -1.94157074760671        0.13538298053619       -1.64965498134116
H           -1.32912267512698        1.32011883728238       -2.80601187581555
H           -0.88732733809686        1.63249834580230        0.80686949242220
H            0.40815235507873        2.06336100349846       -1.09593813655390
H            2.11159995972408       -0.47328767291222        0.55720300947625
H            2.14229220941026        1.19636085270218       -0.02955842911387
H            2.71907883465836        0.38740191194429       -2.31335409556674
H            2.69258864233612       -1.28537485148656       -1.73112020503656
H            4.43174689943918        1.99388420186715       -0.93191450904242
H            5.11880496082638        1.25906085800868       -2.16855996464488
H            8.23994650640798        2.40882163682595        0.94138687035429
H            8.99123367325270        1.80516862119372       -0.55145240902962
H            9.76505372803358        1.47896922910141        1.02773627655243
H            7.15962120984640       -3.81128252569403        1.49574695896777
H            5.48292620353581       -3.22594730607960        1.59840950003384
H            6.18211698228131       -3.67225612116136        0.01331538354489
H            4.40997172932527       -2.03501792458871       -0.11100208746164
H           -0.19091699151958       -1.60904157321985       -1.77321845919548
H           -0.97778347458673       -1.28233137487749       -0.21529705230799
H            0.65049536722648       -1.97297136918310       -0.25909610227745
H           -4.91570125813582        2.64485821764273       -0.25371080743485
H           -4.10997979059875        2.72879634066487        2.67745478802855
H           -5.11047892300668        1.47822050694726        1.92835395544406
H           -5.69382478039309        3.13946713520753        2.01793405977833
H           -3.06367148914066        4.56856857735626        1.20768611278943
H           -3.46373760144439        4.62297599087186       -0.51787227399093
H           -4.70770766527940        4.91585475865963        0.68673234602771
H           -1.00651219076713        2.91553548123260        2.76027371244675

          :  Hamiltonian                  GFN2-xTB          :
         :: total energy             -99.866587097101 Eh    ::
         :: gradient norm              0.002095572183 Eh/a0 ::
         :: HOMO-LUMO gap              0.726073245270 eV    ::
         :: SCC energy              -100.677718205447 Eh    ::
         :: -> dispersion             -0.074572725105 Eh    ::
         :: repulsion energy           1.433213066487 Eh    ::

    * Orbital Energies and Occupations

         #    Occupation            Energy/Eh            Energy/eV
      -------------------------------------------------------------
         1        2.0000           -0.8231025             -22.3978
       ...           ...                  ...                  ...
        78        1.9987           -0.5298778             -14.4187
        79        1.9984           -0.5266626             -14.3312
        80        1.9984           -0.5261600             -14.3175
        81        1.9977           -0.5206623             -14.1679
        82        1.9975           -0.5190568             -14.1243
        83        1.9963           -0.5130100             -13.9597
        84        1.9956           -0.5103017             -13.8860
        85        1.9948           -0.5074910             -13.8095
        86        1.9824           -0.4880913             -13.2816
        87        1.9443           -0.4695449             -12.7770
        88        1.9249           -0.4646405             -12.6435
        89        1.8823           -0.4571799             -12.4405
        90        1.3535           -0.4249809             -11.5643 (HOMO)
        91        0.5593           -0.3982982             -10.8382 (LUMO)
        92        0.3563           -0.3890729             -10.5872
        93        0.0162           -0.3371359              -9.1739
        94        0.0038           -0.3141141              -8.5475
        95        0.0031           -0.3110384              -8.4638
        96        0.0026           -0.3083037              -8.3894
        97        0.0000           -0.2206619              -6.0045
        98        0.0000           -0.1883336              -5.1248
        99                         -0.1384281              -3.7668
       100                         -0.0673466              -1.8326
       101                         -0.0654309              -1.7805
       ...                                ...                  ...
       171                          0.7982875              21.7225
      -------------------------------------------------------------
                  HL-Gap            0.0266827 Eh            0.7261 eV

     #   Z          covCN         q      C6AA      α(0)
     1   7 N        1.774    -0.270    27.820     7.810
     2   6 C        2.826     0.101    25.755     8.316
     3   6 C        3.907     0.006    20.413     6.422
     4   6 C        2.974     0.002    27.969     8.675
     5   6 C        2.921    -0.080    29.994     8.981
     6   6 C        2.862     0.129    25.167     8.223
     7   8 O        1.706    -0.231    17.836     5.702
     8   6 C        3.644     0.028    20.439     6.498
     9   6 C        2.864     0.128    25.193     8.227
    10   8 O        1.706    -0.230    17.819     5.699
    11   6 C        3.645     0.028    20.443     6.498
    12   6 C        2.914    -0.075    29.874     8.963
    13   6 C        2.921    -0.054    29.340     8.883
    14   6 C        3.812    -0.065    21.732     6.635
    15   6 C        3.802    -0.068    21.804     6.648
    16   6 C        2.842     0.002    27.983     8.669
    17   7 N        2.729     0.002    21.237     6.844
    18   6 C        3.754    -0.014    20.887     6.517
    19   6 C        3.806    -0.072    21.871     6.658
    20   6 C        2.954    -0.002    28.076     8.691
    21   6 C        3.815    -0.078    21.979     6.673
    22   6 C        1.979    -0.138    34.940     9.546
    23   6 C        2.862     0.135    25.056     8.205
    24   8 O        1.705    -0.235    17.898     5.712
    25   6 C        3.659     0.025    20.433     6.487
    26   6 C        2.861     0.142    24.904     8.180
    27   8 O        1.706    -0.195    17.256     5.609
    28   6 C        3.645     0.023    20.533     6.513
    29   6 C        2.902    -0.075    29.883     8.963
    30   6 C        3.699    -0.069    21.986     6.706
    31   6 C        3.853    -0.007    20.674     6.467
    32   6 C        3.756    -0.119    22.828     6.812
    33   6 C        3.755    -0.118    22.814     6.811
    34   1 H        0.926     0.052     2.301     2.372
    35   1 H        0.924     0.053     2.280     2.362
    36   1 H        0.925     0.080     1.975     2.197
    37   1 H        0.924     0.047     2.360     2.402
    38   1 H        0.924     0.054     2.268     2.355
    39   1 H        0.925     0.080     1.976     2.198
    40   1 H        0.924     0.047     2.362     2.403
    41   1 H        0.926     0.050     2.315     2.379
    42   1 H        0.926     0.037     2.490     2.468
    43   1 H        0.925     0.059     2.211     2.325
    44   1 H        0.924     0.052     2.290     2.366
    45   1 H        0.925     0.065     2.143     2.289
    46   1 H        0.923     0.077     2.013     2.219
    47   1 H        0.922     0.006     2.957     2.689
    48   1 H        0.926     0.065     2.146     2.291
    49   1 H        0.924     0.066     2.131     2.283
    50   1 H        0.924     0.065     2.146     2.291
    51   1 H        0.924     0.058     2.222     2.331
    52   1 H        0.924     0.060     2.199     2.319
    53   1 H        0.922     0.083     1.952     2.185
    54   1 H        0.930     0.124     1.579     1.965
    55   1 H        0.924     0.056     2.252     2.347
    56   1 H        0.924     0.059     2.214     2.327
    57   1 H        0.925     0.077     2.009     2.216
    58   1 H        0.925     0.088     1.896     2.153
    59   1 H        0.924     0.055     2.253     2.347
    60   1 H        0.924     0.059     2.208     2.324
    61   1 H        0.926     0.050     2.325     2.384
    62   1 H        0.924     0.074     2.044     2.236
    63   1 H        0.924     0.079     1.985     2.203
    64   1 H        0.925     0.076     2.020     2.223
    65   1 H        0.924     0.037     2.495     2.470
    66   1 H        0.925     0.069     2.096     2.264
    67   1 H        0.925     0.035     2.515     2.480
    68   1 H        0.925     0.050     2.316     2.380
    69   1 H        0.925     0.059     2.208     2.324
    70   1 H        0.925     0.034     2.534     2.489
    71   1 H        0.925     0.054     2.273     2.358
    72   1 H        0.860     0.155     1.366     1.831

Wiberg/Mayer (AO) data.
largest (>0.10) Wiberg bond orders for each atom

     #   Z sym  total        # sym  WBO       # sym  WBO       # sym  WBO
 ---------------------------------------------------------------------------
     1   7 N    3.040 --     2 C    1.955    72 H    0.942
     2   6 C    3.925 --     1 N    1.955     3 C    0.995    47 H    0.897
     3   6 C    3.977 --     2 C    0.995     4 C    0.968    14 C    0.958
                            31 C    0.943
     4   6 C    3.952 --    13 C    1.416     5 C    1.368     3 C    0.968
     5   6 C    3.963 --     6 C    1.403     4 C    1.368    34 H    0.958
     6   6 C    3.908 --     5 C    1.403     9 C    1.224     7 O    1.098
     7   8 O    2.254 --     6 C    1.098     8 C    0.978
     8   6 C    3.933 --     7 O    0.978    36 H    0.977    35 H    0.974
                            37 H    0.974
     9   6 C    3.904 --    12 C    1.394     6 C    1.224    10 O    1.099
    10   8 O    2.252 --     9 C    1.099    11 C    0.978
    11   6 C    3.932 --    10 O    0.978    39 H    0.977    40 H    0.974
                            38 H    0.974
    12   6 C    3.964 --    13 C    1.402     9 C    1.394    41 H    0.964
    13   6 C    3.957 --     4 C    1.416    12 C    1.402    42 H    0.963
    14   6 C    3.972 --    15 C    0.982    44 H    0.972    43 H    0.969
                             3 C    0.958
    15   6 C    3.987 --    16 C    1.059    14 C    0.982    45 H    0.962
                            46 H    0.928
    16   6 C    3.559 --    17 N    1.369    15 C    1.059    48 H    0.958
    17   7 N    3.456 --    16 C    1.369    30 C    0.999    18 C    0.995
    18   6 C    3.951 --    17 N    0.995    50 H    0.968    49 H    0.965
                            19 C    0.957
    19   6 C    3.970 --    20 C    1.020    51 H    0.972    52 H    0.966
                            18 C    0.957
    20   6 C    3.728 --    29 C    1.580    19 C    1.020    21 C    0.996
    21   6 C    3.953 --    22 C    1.063    20 C    0.996    54 H    0.925
                            53 H    0.903
    22   6 C    2.851 --    23 C    1.536    21 C    1.063
    23   6 C    3.878 --    22 C    1.536    26 C    1.122    24 O    1.085
    24   8 O    2.229 --    23 C    1.085    25 C    0.975
    25   6 C    3.922 --    57 H    0.978    24 O    0.975    55 H    0.972
                            56 H    0.972
    26   6 C    3.690 --    29 C    1.272    27 O    1.160    23 C    1.122
    27   8 O    2.291 --    26 C    1.160    28 C    0.967
    28   6 C    3.922 --    58 H    0.976    60 H    0.973    59 H    0.972
                            27 O    0.967
    29   6 C    3.967 --    20 C    1.580    26 C    1.272    61 H    0.955
    30   6 C    3.959 --    17 N    0.999    64 H    0.978    62 H    0.967
                            63 H    0.962
    31   6 C    3.973 --    33 C    1.009    32 C    1.008    65 H    0.960
                             3 C    0.943
    32   6 C    3.980 --    31 C    1.008    67 H    0.982    68 H    0.982
                            66 H    0.974
    33   6 C    3.984 --    31 C    1.009    70 H    0.983    71 H    0.980
                            69 H    0.977
    34   1 H    0.996 --     5 C    0.958
    35   1 H    0.994 --     8 C    0.974
    36   1 H    0.993 --     8 C    0.977
    37   1 H    0.994 --     8 C    0.974
    38   1 H    0.993 --    11 C    0.974
    39   1 H    0.993 --    11 C    0.977
    40   1 H    0.994 --    11 C    0.974
    41   1 H    0.996 --    12 C    0.964
    42   1 H    0.998 --    13 C    0.963
    43   1 H    0.995 --    14 C    0.969
    44   1 H    0.996 --    14 C    0.972
    45   1 H    0.995 --    15 C    0.962
    46   1 H    0.968 --    15 C    0.928
    47   1 H    0.988 --     2 C    0.897
    48   1 H    0.995 --    16 C    0.958
    49   1 H    0.991 --    18 C    0.965
    50   1 H    0.995 --    18 C    0.968
    51   1 H    0.994 --    19 C    0.972
    52   1 H    0.991 --    19 C    0.966
    53   1 H    0.958 --    21 C    0.903
    54   1 H    0.966 --    21 C    0.925
    55   1 H    0.991 --    25 C    0.972
    56   1 H    0.991 --    25 C    0.972
    57   1 H    0.993 --    25 C    0.978
    58   1 H    0.991 --    28 C    0.976
    59   1 H    0.992 --    28 C    0.972
    60   1 H    0.992 --    28 C    0.973
    61   1 H    0.990 --    29 C    0.955
    62   1 H    0.985 --    30 C    0.967
    63   1 H    0.987 --    30 C    0.962
    64   1 H    0.994 --    30 C    0.978
    65   1 H    0.993 --    31 C    0.960
    66   1 H    0.991 --    32 C    0.974
    67   1 H    0.997 --    32 C    0.982
    68   1 H    0.994 --    32 C    0.982
    69   1 H    0.994 --    33 C    0.977
    70   1 H    0.997 --    33 C    0.983
    71   1 H    0.994 --    33 C    0.980
    72   1 H    0.971 --     1 N    0.942
 ---------------------------------------------------------------------------

molecular dipole:
                 x           y           z       tot (Debye)
 q only:        1.003      -0.342      -0.993
   full:        1.123      -0.674      -1.121       4.381

           -------------------------------------------------
          | TOTAL ENERGY              -99.866587097101 Eh   |
          | GRADIENT NORM               0.002095572183 Eh/α |
          | HOMO-LUMO GAP               0.726073245270 eV   |
           -------------------------------------------------

 * finished run on 2024/04/06 at 11:16:58.155
