   * xtb version 6.6.1 (8d0f1dd) compiled by 'conda@1efc2f54142f' on 2023-08-01
          program call               : xtb xtbopt.xyz --opt crude --input .xc2 --gfn2

   ID    Z sym.   atoms
    1    7 N      1, 17
    2    6 C      2-6, 8, 9, 11-16, 18-23, 25, 26, 28-33
    3    8 O      7, 10, 24, 27
    4    1 H      34-72
########################################################################
[WARNING] Please study the warnings concerning your input carefully
-1- readin_getIntValue: could not parse ''
########################################################################

          :  Hamiltonian                  GFN2-xTB          :
 * total energy  :   -99.2432175 Eh     change       -0.1512035E-10 Eh
 * total energy  :   -99.3040445 Eh     change       -0.6082703E-01 Eh
 * total energy  :   -99.3054028 Eh     change       -0.1358319E-02 Eh
 * total energy  :   -99.3060697 Eh     change       -0.6668082E-03 Eh
 * total energy  :   -99.3061046 Eh     change       -0.3490372E-04 Eh
   *** GEOMETRY OPTIMIZATION CONVERGED AFTER 5 ITERATIONS ***

 final structure:
================
72
 xtb: 6.6.1 (8d0f1dd)
N           -1.85762702583158        2.82413290659479        2.21337775712736
C           -1.80866687694053        2.13297225986294        1.17437818427639
C           -2.95992801334289        1.91682258632460        0.23214592518448
C           -3.42883435887469        0.47183568867579        0.32396065551930
C           -4.37929041325953       -0.00474326397241       -0.58132034180777
C           -4.85665323158143       -1.30265357694671       -0.51438995105316
O           -5.78498334471010       -1.83484886055180       -1.33676000563102
C           -6.42396054987131       -1.00793902101316       -2.28060137082488
C           -4.35882529269857       -2.18068280639388        0.48551245371272
O           -4.87398701748336       -3.42715427659230        0.47178607743458
C           -4.49876840860059       -4.33411703264721        1.48162733242537
C           -3.41329443354251       -1.70319074049107        1.37822967553749
C           -2.95819191644247       -0.39244408432701        1.29971665435072
C           -2.41062163577780        2.20068577585214       -1.19039758192066
C           -1.46412761278787        1.11542507843097       -1.73516353380485
C           -0.12698719971370        1.12695291493234       -1.10050743535311
N            0.55345075634809        0.04719487300902       -0.71265214701226
C            1.93210137992165        0.15799280356759       -0.30824524265596
C            2.90195038432304       -0.25875938919537       -1.43937842532670
C            4.32136872300452       -0.12581472000003       -0.98378288250243
C            5.02638593146877        1.16481816160390       -1.25976317588670
C            6.34644315548185        1.26839453845249       -0.63863558313668
C            6.92911019494330        0.27958389279141        0.07565136335277
O            8.14181990448439        0.35714742051991        0.66466772840494
C            8.81954172117934        1.58328982556514        0.50346677041653
C            6.24976465994684       -0.98658550670526        0.22230839743573
O            6.93382797355124       -1.93530349642940        0.85760892492150
C            6.39828640417765       -3.23358457653226        0.99374998635550
C            4.94790113973606       -1.12206666061141       -0.29455014650033
C           -0.02857909315333       -1.27310645028023       -0.74744094030006
C           -4.17484928942019        2.84622290828264        0.52692280604694
C           -4.81252860030299        2.52127286710658        1.87570550341430
C           -3.82394955991961        4.33032531141863        0.46678795283326
H           -4.76426340550591        0.65601802210709       -1.33996547755999
H           -6.92307192785345       -0.16159299285032       -1.79909517831706
H           -7.16885305925443       -1.63772766531446       -2.76300833004338
H           -5.72146440594464       -0.63921658788534       -3.03520559076071
H           -4.74793303993915       -3.95246974884884        2.47619233710768
H           -5.07152299484177       -5.23905512075895        1.28865973307676
H           -3.42978702181889       -4.56633834479679        1.43634044037423
H           -3.03073936545638       -2.34112117275937        2.15847311263820
H           -2.24788210005673       -0.04815532427984        2.03552353211618
H           -3.25111582429854        2.29118449275995       -1.87744476141004
H           -1.88735077749257        3.15750598607200       -1.18222564324622
H           -1.94104274158215        0.14038754419418       -1.65173166869914
H           -1.32434878182334        1.32758884039293       -2.80351614194797
H           -0.88877658844037        1.63423731024678        0.80921993710197
H            0.40985765281944        2.06379435343433       -1.08732380309472
H            2.10396431614946       -0.47825172419590        0.56417364018623
H            2.14063128247625        1.19121353982100       -0.02291489462455
H            2.72003704091212        0.38031233856978       -2.30534910668024
H            2.69281740742094       -1.29221468665971       -1.72158819172775
H            4.40437993862832        2.00997262471284       -0.93628209186415
H            5.13553402223037        1.29278566214427       -2.34665679375536
H            8.24189590259780        2.40535515799748        0.93635073726368
H            8.99065867960719        1.79527519846330       -0.55579093562726
H            9.76874545020664        1.47787288812297        1.02339218306114
H            7.17000103684256       -3.81680520555305        1.49226258525136
H            5.49444122758328       -3.22998511719631        1.61047134934041
H            6.17865714009868       -3.67862229556738        0.01901800862234
H            4.42521702967783       -2.05487365020138       -0.13473965769852
H           -0.19684633703062       -1.60576422865226       -1.77414871300070
H           -0.98309154103742       -1.28252048429059       -0.21517320948681
H            0.64450020239571       -1.97471112394066       -0.26125844890393
H           -4.91725288500715        2.64403931088529       -0.25335635192200
H           -4.11180230266999        2.72833346875691        2.67790124886191
H           -5.11112718020047        1.47713430777966        1.92824229431490
H           -5.69605293218440        3.13777895864786        2.01864506490559
H           -3.06855271816740        4.57060174282984        1.20850019849304
H           -3.46815367431671        4.62439695458648       -0.51716160622234
H           -4.71298340768502        4.91535434144319        0.68699062267952
H           -1.00810617434813        2.92034660197514        2.76082902876609

          :  Hamiltonian                  GFN2-xTB          :
         :: total energy             -99.306104559699 Eh    ::
         :: gradient norm              0.000893359631 Eh/a0 ::
         :: HOMO-LUMO gap              0.718165292236 eV    ::
         :: SCC energy              -100.656423715006 Eh    ::
         :: -> dispersion             -0.074575109800 Eh    ::
         :: repulsion energy           1.349030654217 Eh    ::

    * Orbital Energies and Occupations

         #    Occupation            Energy/Eh            Energy/eV
      -------------------------------------------------------------
         1        2.0000           -0.8225949             -22.3839
       ...           ...                  ...                  ...
        78        1.9987           -0.5298033             -14.4167
        79        1.9984           -0.5266842             -14.3318
        80        1.9984           -0.5261815             -14.3181
        81        1.9977           -0.5206532             -14.1677
        82        1.9974           -0.5182346             -14.1019
        83        1.9963           -0.5130245             -13.9601
        84        1.9956           -0.5103162             -13.8864
        85        1.9948           -0.5075162             -13.8102
        86        1.9824           -0.4881256             -13.2826
        87        1.9444           -0.4695760             -12.7778
        88        1.9228           -0.4642015             -12.6316
        89        1.8824           -0.4572064             -12.4412
        90        1.3500           -0.4248682             -11.5613 (HOMO)
        91        0.5634           -0.3984761             -10.8431 (LUMO)
        92        0.3578           -0.3891691             -10.5898
        93        0.0162           -0.3371342              -9.1739
        94        0.0038           -0.3141495              -8.5484
        95        0.0031           -0.3110726              -8.4647
        96        0.0026           -0.3080555              -8.3826
        97        0.0000           -0.2218633              -6.0372
        98        0.0000           -0.1883711              -5.1258
        99                         -0.1380216              -3.7558
       100                         -0.0673477              -1.8326
       101                         -0.0653315              -1.7778
       ...                                ...                  ...
       171                          0.5750251              15.6472
      -------------------------------------------------------------
                  HL-Gap            0.0263921 Eh            0.7182 eV

     #   Z          covCN         q      C6AA      α(0)
     1   7 N        1.774    -0.270    27.817     7.810
     2   6 C        2.826     0.101    25.755     8.316
     3   6 C        3.907     0.006    20.413     6.422
     4   6 C        2.974     0.002    27.970     8.675
     5   6 C        2.921    -0.080    29.994     8.981
     6   6 C        2.862     0.129    25.167     8.223
     7   8 O        1.706    -0.231    17.836     5.702
     8   6 C        3.644     0.028    20.439     6.498
     9   6 C        2.864     0.128    25.194     8.227
    10   8 O        1.706    -0.230    17.819     5.699
    11   6 C        3.645     0.028    20.443     6.498
    12   6 C        2.914    -0.075    29.874     8.963
    13   6 C        2.921    -0.054    29.340     8.883
    14   6 C        3.812    -0.065    21.731     6.635
    15   6 C        3.802    -0.068    21.804     6.648
    16   6 C        2.842     0.002    27.980     8.669
    17   7 N        2.729     0.002    21.235     6.844
    18   6 C        3.754    -0.014    20.882     6.516
    19   6 C        3.806    -0.072    21.869     6.657
    20   6 C        2.955     0.001    27.995     8.678
    21   6 C        3.814    -0.057    21.582     6.612
    22   6 C        1.979    -0.135    34.854     9.534
    23   6 C        2.864     0.135    25.045     8.203
    24   8 O        1.705    -0.234    17.885     5.710
    25   6 C        3.660     0.025    20.434     6.487
    26   6 C        2.860     0.142    24.907     8.180
    27   8 O        1.706    -0.196    17.270     5.611
    28   6 C        3.644     0.023    20.533     6.513
    29   6 C        2.903    -0.075    29.876     8.962
    30   6 C        3.699    -0.069    21.987     6.706
    31   6 C        3.853    -0.007    20.674     6.467
    32   6 C        3.756    -0.119    22.827     6.812
    33   6 C        3.755    -0.118    22.815     6.811
    34   1 H        0.926     0.051     2.301     2.372
    35   1 H        0.924     0.053     2.280     2.361
    36   1 H        0.925     0.080     1.974     2.197
    37   1 H        0.924     0.047     2.360     2.402
    38   1 H        0.924     0.054     2.268     2.355
    39   1 H        0.925     0.080     1.976     2.198
    40   1 H        0.924     0.047     2.362     2.403
    41   1 H        0.926     0.050     2.315     2.379
    42   1 H        0.926     0.037     2.490     2.467
    43   1 H        0.925     0.059     2.210     2.325
    44   1 H        0.924     0.052     2.289     2.366
    45   1 H        0.925     0.065     2.143     2.289
    46   1 H        0.923     0.077     2.013     2.219
    47   1 H        0.922     0.006     2.956     2.689
    48   1 H        0.926     0.065     2.146     2.291
    49   1 H        0.924     0.066     2.132     2.284
    50   1 H        0.924     0.065     2.146     2.291
    51   1 H        0.924     0.058     2.223     2.332
    52   1 H        0.924     0.060     2.198     2.319
    53   1 H        0.923     0.083     1.952     2.185
    54   1 H        0.923     0.094     1.839     2.121
    55   1 H        0.924     0.056     2.244     2.343
    56   1 H        0.924     0.059     2.215     2.327
    57   1 H        0.925     0.077     2.006     2.215
    58   1 H        0.925     0.088     1.896     2.154
    59   1 H        0.924     0.055     2.253     2.347
    60   1 H        0.924     0.059     2.212     2.326
    61   1 H        0.926     0.050     2.321     2.383
    62   1 H        0.924     0.074     2.044     2.236
    63   1 H        0.924     0.079     1.985     2.203
    64   1 H        0.925     0.076     2.019     2.222
    65   1 H        0.924     0.037     2.495     2.470
    66   1 H        0.925     0.069     2.097     2.264
    67   1 H        0.925     0.035     2.515     2.480
    68   1 H        0.925     0.050     2.316     2.380
    69   1 H        0.925     0.059     2.207     2.323
    70   1 H        0.925     0.034     2.534     2.489
    71   1 H        0.925     0.054     2.273     2.358
    72   1 H        0.860     0.155     1.365     1.830

Wiberg/Mayer (AO) data.
largest (>0.10) Wiberg bond orders for each atom

     #   Z sym  total        # sym  WBO       # sym  WBO       # sym  WBO
 ---------------------------------------------------------------------------
     1   7 N    3.041 --     2 C    1.955    72 H    0.942
     2   6 C    3.925 --     1 N    1.955     3 C    0.995    47 H    0.897
     3   6 C    3.977 --     2 C    0.995     4 C    0.968    14 C    0.958
                            31 C    0.943
     4   6 C    3.952 --    13 C    1.416     5 C    1.368     3 C    0.968
     5   6 C    3.963 --     6 C    1.403     4 C    1.368    34 H    0.958
     6   6 C    3.908 --     5 C    1.403     9 C    1.224     7 O    1.098
     7   8 O    2.254 --     6 C    1.098     8 C    0.978
     8   6 C    3.933 --     7 O    0.978    36 H    0.977    35 H    0.974
                            37 H    0.974
     9   6 C    3.904 --    12 C    1.394     6 C    1.224    10 O    1.099
    10   8 O    2.252 --     9 C    1.099    11 C    0.978
    11   6 C    3.932 --    10 O    0.978    39 H    0.977    40 H    0.974
                            38 H    0.974
    12   6 C    3.964 --    13 C    1.402     9 C    1.394    41 H    0.964
    13   6 C    3.957 --     4 C    1.416    12 C    1.402    42 H    0.963
    14   6 C    3.972 --    15 C    0.982    44 H    0.972    43 H    0.969
                             3 C    0.958
    15   6 C    3.987 --    16 C    1.059    14 C    0.982    45 H    0.962
                            46 H    0.928
    16   6 C    3.560 --    17 N    1.369    15 C    1.059    48 H    0.958
    17   7 N    3.456 --    16 C    1.369    30 C    0.999    18 C    0.995
    18   6 C    3.951 --    17 N    0.995    50 H    0.968    49 H    0.965
                            19 C    0.957
    19   6 C    3.970 --    20 C    1.019    51 H    0.971    52 H    0.966
                            18 C    0.957
    20   6 C    3.730 --    29 C    1.574    19 C    1.019    21 C    1.008
    21   6 C    3.961 --    22 C    1.074    20 C    1.008    53 H    0.913
                            54 H    0.903
    22   6 C    2.847 --    23 C    1.527    21 C    1.074
    23   6 C    3.877 --    22 C    1.527    26 C    1.125    24 O    1.086
    24   8 O    2.229 --    23 C    1.086    25 C    0.975
    25   6 C    3.922 --    57 H    0.978    24 O    0.975    55 H    0.972
                            56 H    0.972
    26   6 C    3.692 --    29 C    1.274    27 O    1.159    23 C    1.125
    27   8 O    2.289 --    26 C    1.159    28 C    0.968
    28   6 C    3.922 --    58 H    0.976    60 H    0.973    59 H    0.972
                            27 O    0.968
    29   6 C    3.966 --    20 C    1.574    26 C    1.274    61 H    0.956
    30   6 C    3.959 --    17 N    0.999    64 H    0.978    62 H    0.967
                            63 H    0.962
    31   6 C    3.973 --    33 C    1.009    32 C    1.008    65 H    0.960
                             3 C    0.943
    32   6 C    3.980 --    31 C    1.008    67 H    0.982    68 H    0.982
                            66 H    0.974
    33   6 C    3.984 --    31 C    1.009    70 H    0.983    71 H    0.980
                            69 H    0.977
    34   1 H    0.996 --     5 C    0.958
    35   1 H    0.994 --     8 C    0.974
    36   1 H    0.993 --     8 C    0.977
    37   1 H    0.994 --     8 C    0.974
    38   1 H    0.993 --    11 C    0.974
    39   1 H    0.993 --    11 C    0.977
    40   1 H    0.994 --    11 C    0.974
    41   1 H    0.996 --    12 C    0.964
    42   1 H    0.998 --    13 C    0.963
    43   1 H    0.995 --    14 C    0.969
    44   1 H    0.996 --    14 C    0.972
    45   1 H    0.995 --    15 C    0.962
    46   1 H    0.968 --    15 C    0.928
    47   1 H    0.988 --     2 C    0.897
    48   1 H    0.995 --    16 C    0.958
    49   1 H    0.991 --    18 C    0.965
    50   1 H    0.995 --    18 C    0.968
    51   1 H    0.994 --    19 C    0.971
    52   1 H    0.991 --    19 C    0.966
    53   1 H    0.961 --    21 C    0.913
    54   1 H    0.953 --    21 C    0.903
    55   1 H    0.991 --    25 C    0.972
    56   1 H    0.991 --    25 C    0.972
    57   1 H    0.993 --    25 C    0.978
    58   1 H    0.991 --    28 C    0.976
    59   1 H    0.992 --    28 C    0.972
    60   1 H    0.992 --    28 C    0.973
    61   1 H    0.991 --    29 C    0.956
    62   1 H    0.985 --    30 C    0.967
    63   1 H    0.987 --    30 C    0.962
    64   1 H    0.994 --    30 C    0.978
    65   1 H    0.993 --    31 C    0.960
    66   1 H    0.991 --    32 C    0.974
    67   1 H    0.997 --    32 C    0.982
    68   1 H    0.994 --    32 C    0.982
    69   1 H    0.994 --    33 C    0.977
    70   1 H    0.997 --    33 C    0.983
    71   1 H    0.994 --    33 C    0.980
    72   1 H    0.971 --     1 N    0.942
 ---------------------------------------------------------------------------

molecular dipole:
                 x           y           z       tot (Debye)
 q only:        1.001      -0.349      -0.979
   full:        1.121      -0.671      -1.138       4.404

           -------------------------------------------------
          | TOTAL ENERGY              -99.306104559699 Eh   |
          | GRADIENT NORM               0.000893359631 Eh/α |
          | HOMO-LUMO GAP               0.718165292236 eV   |
           -------------------------------------------------

 * finished run on 2024/04/06 at 11:16:59.284
