   * xtb version 6.6.1 (8d0f1dd) compiled by 'conda@1efc2f54142f' on 2023-08-01
          program call               : xtb xtbopt.xyz --opt crude --input .xc2 --gfn2

   ID    Z sym.   atoms
    1    6 C      1, 3, 5-7, 10, 11, 14
    2    7 N      2, 4, 9, 13
    3    8 O      8, 12
    4    1 H      15-25
########################################################################
[WARNING] Please study the warnings concerning your input carefully
-1- readin_getIntValue: could not parse ''
########################################################################

          :  Hamiltonian                  GFN2-xTB          :
 * total energy  :   -42.0738608 Eh     change       -0.5854872E-10 Eh
 * total energy  :   -42.0830655 Eh     change       -0.9204660E-02 Eh
 * total energy  :   -42.0917258 Eh     change       -0.8660326E-02 Eh
 * total energy  :   -42.0954016 Eh     change       -0.3675777E-02 Eh
 * total energy  :   -42.0969648 Eh     change       -0.1563280E-02 Eh
 * total energy  :   -42.0976998 Eh     change       -0.7349180E-03 Eh
 * total energy  :   -42.0979260 Eh     change       -0.2262457E-03 Eh
 * total energy  :   -42.0981063 Eh     change       -0.1802497E-03 Eh
   *** GEOMETRY OPTIMIZATION CONVERGED AFTER 8 ITERATIONS ***

 final structure:
================
25
 xtb: 6.6.1 (8d0f1dd)
C            3.11159180070186        1.14572040970942        0.03134257561910
N            2.27504621684856       -0.04839255703142       -0.01366872145904
C            2.86483535463438       -1.19438891024732       -0.04193186302570
N            0.94040175304086       -2.36695221846921       -0.02228882108440
C            0.26489193111144       -1.27406676964925       -0.00683974401640
C            0.90834588820283        0.01633423022433       -0.00388309940570
C            0.11938762029349        1.23181896897593       -0.01817300273656
O            0.57630783690203        2.35877376099939       -0.04826352111242
N           -1.25190610375510        1.02098859632003        0.00041302919645
C           -2.12680984242768        2.18043799861731       -0.00443617670045
C           -1.89928621169209       -0.20241338897553        0.01572302641353
O           -3.09798836097012       -0.28512292172990        0.03136988197743
N           -1.09205261540258       -1.33393087525467        0.00895296308431
C           -1.71668627361861       -2.64225504597634        0.01134785915656
H            3.54843972049444        1.24713947970806        1.02585085607566
H            3.91520505798176        1.06702247269691       -0.69912839642193
H            2.50556927433257        2.02976936670307       -0.17562337384464
H            3.91583666121559       -1.40410083535186       -0.03049048922215
H           -1.51340726210247        3.07868346506765        0.00448667083236
H           -2.75970640049762        2.16224065983398       -0.89317539052874
H           -2.77733143154266        2.15328011081012        0.87098388379461
H           -1.39721011013525       -3.19967473027977        0.89286691987694
H           -1.40899352783532       -3.19693128031913       -0.87607722050308
H           -2.79664214599941       -2.50938824815051        0.01907672734383
H            2.05259268431913       -2.21635319663126       -0.04726295540958

          :  Hamiltonian                  GFN2-xTB          :
         :: total energy             -42.098106259638 Eh    ::
         :: gradient norm              0.006145010417 Eh/a0 ::
         :: HOMO-LUMO gap              1.362193206911 eV    ::
         :: SCC energy               -42.605354608417 Eh    ::
         :: -> dispersion             -0.022443489848 Eh    ::
         :: repulsion energy           0.507131253097 Eh    ::

    * Orbital Energies and Occupations

         #    Occupation            Energy/Eh            Energy/eV
      -------------------------------------------------------------
         1        2.0000           -0.8968583             -24.4048
       ...           ...                  ...                  ...
        25        1.9998           -0.6747038             -18.3596
        26        1.9993           -0.6566974             -17.8696
        27        1.9990           -0.6504770             -17.7004
        28        1.9985           -0.6441713             -17.5288
        29        1.9974           -0.6358573             -17.3026
        30        1.9941           -0.6227872             -16.9469
        31        1.9907           -0.6156110             -16.7516
        32        1.9831           -0.6060475             -16.4914
        33        1.9557           -0.5905913             -16.0708
        34        1.9335           -0.5839890             -15.8911
        35        1.9101           -0.5790182             -15.7559
        36        1.8739           -0.5733506             -15.6017
        37        1.7930           -0.5648054             -15.3691 (HOMO)
        38        0.5369           -0.5147457             -14.0069 (LUMO)
        39        0.0345           -0.4666122             -12.6972
        40        0.0007           -0.4035566             -10.9813
        41        0.0002           -0.3846156             -10.4659
        42        0.0000           -0.2965674              -8.0700
        43                         -0.2105960              -5.7306
        44                         -0.1639336              -4.4609
        45                         -0.1460084              -3.9731
        46                         -0.0796759              -2.1681
        47                         -0.0455636              -1.2398
        48                         -0.0392760              -1.0688
       ...                                ...                  ...
        67                          0.5261549              14.3174
      -------------------------------------------------------------
                  HL-Gap            0.0500597 Eh            1.3622 eV

     #   Z          covCN         q      C6AA      α(0)
     1   6 C        3.716    -0.102    22.582     6.789
     2   7 N        2.740     0.149    18.733     6.428
     3   6 C        2.723    -0.044    29.075     8.827
     4   7 N        1.816    -0.264    27.706     7.799
     5   6 C        2.844     0.160    24.546     8.120
     6   6 C        2.950    -0.039    28.967     8.827
     7   6 C        2.764     0.272    22.410     7.753
     8   8 O        0.859    -0.360    20.902     6.130
     9   7 N        2.743    -0.069    22.586     7.058
    10   6 C        3.709    -0.062    21.830     6.678
    11   6 C        2.720     0.321    21.552     7.600
    12   8 O        0.860    -0.333    20.388     6.054
    13   7 N        2.753    -0.036    21.936     6.956
    14   6 C        3.705    -0.070    22.000     6.706
    15   1 H        0.924     0.120     1.610     1.985
    16   1 H        0.925     0.114     1.661     2.016
    17   1 H        0.924     0.156     1.352     1.819
    18   1 H        0.926     0.150     1.388     1.843
    19   1 H        0.925     0.121     1.606     1.982
    20   1 H        0.924     0.113     1.675     2.024
    21   1 H        0.924     0.113     1.670     2.021
    22   1 H        0.924     0.109     1.704     2.041
    23   1 H        0.924     0.109     1.703     2.041
    24   1 H        0.925     0.125     1.576     1.963
    25   1 H        1.599     0.249     0.875     1.460

Wiberg/Mayer (AO) data.
largest (>0.10) Wiberg bond orders for each atom

     #   Z sym  total        # sym  WBO       # sym  WBO       # sym  WBO
 ---------------------------------------------------------------------------
     1   6 C    3.855 --    16 H    0.962    15 H    0.950     2 N    0.938
                            17 H    0.932
     2   7 N    3.761 --     3 C    1.570     6 C    1.181     1 C    0.938
     3   6 C    3.435 --     2 N    1.570    18 H    0.929    25 H    0.380
                             4 N    0.251     6 C    0.137
     4   7 N    2.623 --     5 C    1.578    25 H    0.538     3 C    0.251
     5   6 C    3.965 --     4 N    1.578    13 N    1.162     6 C    1.122
     6   6 C    3.741 --     2 N    1.181     5 C    1.122     7 C    1.101
                             3 C    0.137
     7   6 C    3.951 --     8 O    1.634     9 N    1.113     6 C    1.101
     8   8 O    1.970 --     7 C    1.634     9 N    0.122
     9   7 N    3.499 --     7 C    1.113    11 C    1.101    10 C    0.978
                             8 O    0.122    12 O    0.113
    10   6 C    3.873 --     9 N    0.978    19 H    0.961    21 H    0.946
                            20 H    0.945
    11   6 C    3.956 --    12 O    1.688     9 N    1.101    13 N    1.081
    12   8 O    2.002 --    11 C    1.688     9 N    0.113    13 N    0.112
    13   7 N    3.499 --     5 C    1.162    11 C    1.081    14 C    0.976
                            12 O    0.112
    14   6 C    3.884 --    13 N    0.976    24 H    0.962    22 H    0.950
                            23 H    0.950
    15   1 H    0.983 --     1 C    0.950
    16   1 H    0.985 --     1 C    0.962
    17   1 H    0.969 --     1 C    0.932
    18   1 H    0.959 --     3 C    0.929
    19   1 H    0.979 --    10 C    0.961
    20   1 H    0.962 --    10 C    0.945
    21   1 H    0.963 --    10 C    0.946
    22   1 H    0.969 --    14 C    0.950
    23   1 H    0.969 --    14 C    0.950
    24   1 H    0.980 --    14 C    0.962
    25   1 H    0.937 --     4 N    0.538     3 C    0.380
 ---------------------------------------------------------------------------

molecular dipole:
                 x           y           z       tot (Debye)
 q only:        2.229      -0.821       0.020
   full:        2.522      -0.759       0.033       6.694

           -------------------------------------------------
          | TOTAL ENERGY              -42.098106259638 Eh   |
          | GRADIENT NORM               0.006145010417 Eh/α |
          | HOMO-LUMO GAP               1.362193206911 eV   |
           -------------------------------------------------

 * finished run on 2024/06/05 at 19:58:19.337
