   * xtb version 6.6.1 (8d0f1dd) compiled by 'conda@1efc2f54142f' on 2023-08-01
          program call               : xtb struc.xyz --opt loose --input .xc1 --gfn2

   ID    Z sym.   atoms
    1    6 C      1, 3, 5-7, 10, 11, 14
    2    7 N      2, 4, 9, 13
    3    8 O      8, 12
    4    1 H      15-25
constraining bond 11 22 to    3.7133300 Å, actual value:    3.1884051 Å

          :  Hamiltonian                  GFN2-xTB          :
 * total energy  :   -43.2318515 Eh     change       -0.6650680E-10 Eh
 * total energy  :   -47.8043523 Eh     change       -0.4572501E+01 Eh
 * total energy  :   -55.9398681 Eh     change       -0.8135516E+01 Eh
 * total energy  :   -67.9331721 Eh     change       -0.1199330E+02 Eh
 * total energy  :   -78.2185015 Eh     change       -0.1028533E+02 Eh
 * total energy  :   -76.1039222 Eh     change        0.2114579E+01 Eh
 * total energy  :   -78.5996856 Eh     change       -0.2495763E+01 Eh
 * total energy  :   -75.5617693 Eh     change        0.3037916E+01 Eh
 * total energy  :   -77.0114582 Eh     change       -0.1449689E+01 Eh
 * total energy  :   -79.0942271 Eh     change       -0.2082769E+01 Eh
 * total energy  :   -71.0928407 Eh     change        0.8664000E+01 Eh
 * total energy  :   -79.7382528 Eh     change       -0.8645412E+01 Eh
 * total energy  :   -79.7480573 Eh     change       -0.9804464E-02 Eh
 * total energy  :   -79.7544863 Eh     change       -0.6429058E-02 Eh
 * total energy  :   -79.7562811 Eh     change       -0.1794770E-02 Eh
 * total energy  :   -79.7567631 Eh     change       -0.4819812E-03 Eh
 * total energy  :   -79.7568681 Eh     change       -0.1050357E-03 Eh
 * total energy  :   -79.7568818 Eh     change       -0.1371323E-04 Eh
 * total energy  :   -79.7568896 Eh     change       -0.7803268E-05 Eh
   *** GEOMETRY OPTIMIZATION CONVERGED AFTER 76 ITERATIONS ***

 final structure:
================
25
 xtb: 6.6.1 (8d0f1dd)
C            2.98996111736216        1.09224723310281        0.21706928925622
N            2.15712687083501       -0.06392106382767        0.02377256783059
C            2.58896592510871       -1.30777755597600       -0.11276038451388
N            1.54466338740707       -2.12866029751463       -0.27391706496009
C            0.38137701484616       -1.38511019039803       -0.21167767099929
C            0.78255234854708       -0.06551260488143       -0.00093133296923
C           -0.02206582603679        1.18296421936493       -0.10611861543167
O            0.45284218367358        2.17938082474019       -0.60615770935037
N           -1.31497261070653        1.08984136032385        0.32746866023947
C           -2.25226532328334        2.13349995728688       -0.02136184160926
C           -1.73330703816699        0.00194834757578        1.24768727901669
O           -2.94408147874088        0.03087409773674        1.48860473533915
N           -0.88027452475786       -1.84525062955332       -0.24962654949475
C           -1.32022619851629       -2.87801719059760       -0.84283089896922
H            2.91202148899693        1.44393150008353        1.24718872221574
H            4.02492144451261        0.83982891780929        0.00024493809230
H            2.65363242520091        1.89584004447813       -0.43974033391762
H            3.61782798372214       -1.61315317639828       -0.09328268106156
H           -1.70528792357928        3.02941419153286       -0.30601829158680
H           -2.87751253853479        1.80546364079514       -0.85330796272265
H           -2.89709048081799        2.32877191213213        0.83453720463588
H           -1.49524847645022       -0.18482666752097        1.35133105678690
H           -0.73884283960822       -3.51217065343016       -1.51009760954749
H           -2.36194813148348       -3.11926112937382       -0.69784320130162
H            1.59766271457026       -3.13210654588863       -0.38106068708264

          :  Hamiltonian                  GFN2-xTB          :
         :: total energy             -79.756889645722 Eh    ::
         :: gradient norm              0.002055786283 Eh/a0 ::
         :: HOMO-LUMO gap              2.410101583180 eV    ::
         :: SCC energy               -42.682604980634 Eh    ::
         :: -> dispersion             -0.022415733584 Eh    ::
         :: repulsion energy           4.049051546666 Eh    ::

    * Orbital Energies and Occupations

         #    Occupation            Energy/Eh            Energy/eV
      -------------------------------------------------------------
         1        2.0000           -0.9124606             -24.8293
       ...           ...                  ...                  ...
        25        2.0000           -0.6646555             -18.0862
        26        1.9999           -0.6609381             -17.9850
        27        1.9999           -0.6542666             -17.8035
        28        1.9999           -0.6477966             -17.6274
        29        1.9997           -0.6388026             -17.3827
        30        1.9994           -0.6263070             -17.0427
        31        1.9990           -0.6167718             -16.7832
        32        1.9960           -0.5951846             -16.1958
        33        1.9955           -0.5932885             -16.1442
        34        1.9804           -0.5698947             -15.5076
        35        1.9641           -0.5601830             -15.2434
        36        1.9428           -0.5526161             -15.0374
        37        1.9192           -0.5469615             -14.8836 (HOMO)
        38        0.1624           -0.4583919             -12.4735 (LUMO)
        39        0.0339           -0.4325231             -11.7696
        40        0.0074           -0.4081062             -11.1051
        41        0.0006           -0.3686149             -10.0305
        42        0.0000           -0.3215495              -8.7498
        43                         -0.1913211              -5.2061
        44                         -0.1762399              -4.7957
        45                         -0.1491746              -4.0592
        46                         -0.0872481              -2.3741
        47                         -0.0545923              -1.4855
        48                         -0.0473668              -1.2889
       ...                                ...                  ...
        67                         21.1114970             574.4731
      -------------------------------------------------------------
                  HL-Gap            0.0885696 Eh            2.4101 eV

     #   Z          covCN         q      C6AA      α(0)
     1   6 C        3.693    -0.094    22.490     6.785
     2   7 N        2.844     0.090    19.690     6.590
     3   6 C        3.031     0.061    26.597     8.459
     4   7 N        2.802    -0.060    22.401     7.029
     5   6 C        3.019     0.122    25.308     8.252
     6   6 C        3.092    -0.015    28.285     8.717
     7   6 C        2.761     0.274    22.372     7.746
     8   8 O        0.859    -0.359    20.870     6.125
     9   7 N        2.747    -0.095    23.093     7.137
    10   6 C        3.695    -0.061    21.851     6.687
    11   6 C        2.699     0.170    24.329     8.073
    12   8 O        0.893    -0.302    19.806     5.968
    13   7 N        1.825    -0.159    25.236     7.444
    14   6 C        2.792     0.038    27.144     8.534
    15   1 H        0.924     0.111     1.688     2.032
    16   1 H        0.925     0.102     1.770     2.080
    17   1 H        0.924     0.141     1.452     1.884
    18   1 H        0.926     0.125     1.577     1.964
    19   1 H        0.925     0.106     1.732     2.058
    20   1 H        0.924     0.096     1.819     2.109
    21   1 H        0.925     0.105     1.739     2.062
    22   1 H        0.981     0.193     1.133     1.663
    23   1 H        0.925     0.068     2.102     2.267
    24   1 H        0.926     0.118     1.631     1.997
    25   1 H        0.860     0.227     0.977     1.548

Wiberg/Mayer (AO) data.
largest (>0.10) Wiberg bond orders for each atom

     #   Z sym  total        # sym  WBO       # sym  WBO       # sym  WBO
 ---------------------------------------------------------------------------
     1   6 C    3.915 --     2 N    0.987    16 H    0.974    15 H    0.954
                            17 H    0.947
     2   7 N    3.713 --     3 C    1.392     6 C    1.187     1 C    0.987
     3   6 C    3.906 --     2 N    1.392     4 N    1.322    18 H    0.950
     4   7 N    3.596 --     3 C    1.322     5 C    1.147    25 H    0.920
     5   6 C    3.916 --     6 C    1.378    13 N    1.209     4 N    1.147
     6   6 C    3.880 --     5 C    1.378     2 N    1.187     7 C    0.994
     7   6 C    3.941 --     8 O    1.687     9 N    1.176     6 C    0.994
     8   8 O    2.017 --     7 C    1.687     9 N    0.144
     9   7 N    3.521 --     7 C    1.176    11 C    1.018    10 C    0.989
                            12 O    0.152     8 O    0.144
    10   6 C    3.911 --     9 N    0.989    19 H    0.963    21 H    0.961
                            20 H    0.950
    11   6 C    3.879 --    12 O    1.826     9 N    1.018    22 H    0.942
    12   8 O    2.073 --    11 C    1.826     9 N    0.152
    13   7 N    3.159 --    14 C    1.777     5 C    1.209
    14   6 C    3.804 --    13 N    1.777    24 H    0.956    23 H    0.949
    15   1 H    0.986 --     1 C    0.954
    16   1 H    0.989 --     1 C    0.974
    17   1 H    0.978 --     1 C    0.947
    18   1 H    0.984 --     3 C    0.950
    19   1 H    0.983 --    10 C    0.963
    20   1 H    0.974 --    10 C    0.950
    21   1 H    0.981 --    10 C    0.961
    22   1 H    0.959 --    11 C    0.942
    23   1 H    0.984 --    14 C    0.949
    24   1 H    0.981 --    14 C    0.956
    25   1 H    0.948 --     4 N    0.920
 ---------------------------------------------------------------------------

molecular dipole:
                 x           y           z       tot (Debye)
 q only:        2.518      -1.975      -0.151
   full:        2.916      -2.592      -0.340       9.955

           -------------------------------------------------
          | TOTAL ENERGY              -79.756889645722 Eh   |
          | GRADIENT NORM               0.002055786283 Eh/α |
          | HOMO-LUMO GAP               2.410101583180 eV   |
           -------------------------------------------------

 * finished run on 2024/06/05 at 19:58:01.282
