   * xtb version 6.6.1 (8d0f1dd) compiled by 'conda@1efc2f54142f' on 2023-08-01
          program call               : xtb struc.xyz --opt loose --input .xc1 --gfn2

   ID    Z sym.   atoms
    1    6 C      1, 3, 5-7, 10, 11, 14
    2    7 N      2, 4, 9, 13
    3    8 O      8, 12
    4    1 H      15-25
constraining bond 2 16 to    2.6866700 Å, actual value:    2.0856233 Å

          :  Hamiltonian                  GFN2-xTB          :
 * total energy  :   -42.8928947 Eh     change       -0.6650680E-10 Eh
 * total energy  :   -45.2052237 Eh     change       -0.2312329E+01 Eh
 * total energy  :   -48.8688314 Eh     change       -0.3663608E+01 Eh
 * total energy  :   -20.8982322 Eh     change        0.2797060E+02 Eh
 * total energy  :   -47.8420511 Eh     change       -0.2694382E+02 Eh
 * total energy  :   -47.8847826 Eh     change       -0.4273154E-01 Eh
 * total energy  :   -48.0771791 Eh     change       -0.1923965E+00 Eh
 * total energy  :   -48.2216879 Eh     change       -0.1445088E+00 Eh
 * total energy  :   -48.5810632 Eh     change       -0.3593753E+00 Eh
 * total energy  :   -49.1743874 Eh     change       -0.5933242E+00 Eh
 * total energy  :   -49.7344161 Eh     change       -0.1494472E-03 Eh
 * total energy  :   -49.7345472 Eh     change       -0.1311395E-03 Eh
 * total energy  :   -49.7346977 Eh     change       -0.1504724E-03 Eh
 * total energy  :   -49.7348082 Eh     change       -0.1104352E-03 Eh
 * total energy  :   -49.7348751 Eh     change       -0.6690203E-04 Eh
 * total energy  :   -49.7349125 Eh     change       -0.3743906E-04 Eh
 * total energy  :   -49.7349415 Eh     change       -0.2895990E-04 Eh
 * total energy  :   -49.7349646 Eh     change       -0.2318612E-04 Eh
 * total energy  :   -49.7349832 Eh     change       -0.1856248E-04 Eh
   *** GEOMETRY OPTIMIZATION CONVERGED AFTER 108 ITERATIONS ***

 final structure:
================
25
 xtb: 6.6.1 (8d0f1dd)
C            3.08190561027048        0.16319338098811        0.77839687425957
N            2.32433103033121        0.58310186817457       -0.43457494221010
C            2.75457750729794       -0.85651520512379       -0.24053503800191
N            1.59167950605510       -1.63375768678929       -0.06031975410076
C            0.50019981824452       -0.79569419945642       -0.06112946825808
C            0.88678488305160        0.50485537542888       -0.27499553963092
C           -0.04418097234379        1.60154869835178       -0.35950571240776
O            0.24966659285160        2.75369972228236       -0.56263790596074
N           -1.35585732882461        1.15456949869869       -0.17116365530738
C           -2.41705270843430        2.15331341240205       -0.22224393873242
C           -1.78221480887270       -0.13373074969889        0.05626443414848
O           -2.93387856100684       -0.42586912684487        0.20556115841324
N           -0.77898567068906       -1.14140495958664        0.10680717743092
C           -1.18720638561452       -2.51635509650220        0.31922385151914
H            2.53483650993312        0.18498034012746        1.71105963445366
H            2.51892044763271        0.90781910347398       -0.75671515795169
H            4.09341551154576        0.54249956003898        0.83185100030998
H            3.53019402396261       -1.26235334311986       -0.88141090429055
H           -1.95425119445717        3.12641551440963       -0.36522478098509
H           -3.09319868390689        1.93208573228345       -1.04716530262351
H           -2.98506730370641        2.13387597208540        0.70665542391341
H           -0.66030898346357       -2.93937627665484        1.17379179300790
H           -0.99957075979971       -3.11510125153024       -0.57264199081771
H           -2.25817232634026       -2.51065984266400        0.51936476019833
H            1.54386576038598       -2.59290189917348       -0.36754039847558

          :  Hamiltonian                  GFN2-xTB          :
         :: total energy             -49.734983204035 Eh    ::
         :: gradient norm              0.003015953975 Eh/a0 ::
         :: HOMO-LUMO gap              3.844626835865 eV    ::
         :: SCC energy               -42.732043113051 Eh    ::
         :: -> dispersion             -0.022657050853 Eh    ::
         :: repulsion energy           1.557345360828 Eh    ::

    * Orbital Energies and Occupations

         #    Occupation            Energy/Eh            Energy/eV
      -------------------------------------------------------------
         1        2.0000           -0.9365435             -25.4846
       ...           ...                  ...                  ...
        25        2.0000           -0.6740332             -18.3414
        26        2.0000           -0.6735770             -18.3290
        27        2.0000           -0.6575004             -17.8915
        28        2.0000           -0.6479695             -17.6321
        29        2.0000           -0.6434922             -17.5103
        30        1.9998           -0.6206056             -16.8875
        31        1.9998           -0.6197910             -16.8654
        32        1.9989           -0.5908063             -16.0767
        33        1.9989           -0.5900466             -16.0560
        34        1.9963           -0.5716456             -15.5553
        35        1.9893           -0.5545950             -15.0913
        36        1.9884           -0.5533419             -15.0572
        37        1.9862           -0.5505754             -14.9819 (HOMO)
        38        0.0376           -0.4092879             -11.1373 (LUMO)
        39        0.0043           -0.3745216             -10.1913
        40        0.0006           -0.3424512              -9.3186
        41        0.0000           -0.2887582              -7.8575
        42        0.0000           -0.2440826              -6.6418
        43        0.0000           -0.2084172              -5.6713
        44                         -0.1751009              -4.7647
        45                         -0.1548726              -4.2143
        46                         -0.1112209              -3.0265
        47                         -0.0971643              -2.6440
        48                         -0.0643839              -1.7520
       ...                                ...                  ...
        67                          3.7442773             101.8870
      -------------------------------------------------------------
                  HL-Gap            0.1412874 Eh            3.8446 eV

     #   Z          covCN         q      C6AA      α(0)
     1   6 C        3.745    -0.049    21.514     6.616
     2   7 N        3.601     0.037    20.593     6.740
     3   6 C        3.844     0.091    19.044     6.208
     4   7 N        2.725    -0.148    24.193     7.305
     5   6 C        2.938     0.128    25.186     8.231
     6   6 C        2.995    -0.078    29.926     8.974
     7   6 C        2.764     0.270    22.445     7.759
     8   8 O        0.858    -0.382    21.325     6.191
     9   7 N        2.747    -0.090    23.000     7.123
    10   6 C        3.710    -0.061    21.810     6.674
    11   6 C        2.725     0.317    21.620     7.612
    12   8 O        0.859    -0.359    20.873     6.125
    13   7 N        2.741    -0.057    22.345     7.021
    14   6 C        3.697    -0.073    22.078     6.721
    15   1 H        0.925     0.133     1.511     1.922
    16   1 H        0.874     0.250     0.880     1.469
    17   1 H        0.925     0.132     1.523     1.930
    18   1 H        0.925     0.120     1.616     1.988
    19   1 H        0.925     0.112     1.679     2.027
    20   1 H        0.925     0.095     1.834     2.118
    21   1 H        0.925     0.096     1.822     2.111
    22   1 H        0.925     0.085     1.927     2.171
    23   1 H        0.924     0.081     1.967     2.194
    24   1 H        0.925     0.129     1.546     1.945
    25   1 H        0.860     0.221     1.006     1.571

Wiberg/Mayer (AO) data.
largest (>0.10) Wiberg bond orders for each atom

     #   Z sym  total        # sym  WBO       # sym  WBO       # sym  WBO
 ---------------------------------------------------------------------------
     1   6 C    3.868 --     3 C    0.968    15 H    0.963    17 H    0.962
                             2 N    0.867
     2   7 N    3.672 --     6 C    0.957    16 H    0.919     1 C    0.867
                             3 C    0.846
     3   6 C    3.893 --     4 N    1.076     1 C    0.968    18 H    0.952
                             2 N    0.846
     4   7 N    3.381 --     5 C    1.141     3 C    1.076    25 H    0.919
     5   6 C    3.939 --     6 C    1.404    13 N    1.249     4 N    1.141
     6   6 C    3.819 --     5 C    1.404     7 C    1.100     2 N    0.957
     7   6 C    3.957 --     8 O    1.685     6 C    1.100     9 N    1.080
     8   8 O    2.034 --     7 C    1.685     9 N    0.142
     9   7 N    3.554 --    11 C    1.143     7 C    1.080    10 C    0.967
                            12 O    0.146     8 O    0.142
    10   6 C    3.917 --    19 H    0.969    21 H    0.967     9 N    0.967
                            20 H    0.966
    11   6 C    3.957 --    12 O    1.713     9 N    1.143    13 N    1.011
    12   8 O    2.075 --    11 C    1.713     9 N    0.146    13 N    0.117
    13   7 N    3.567 --     5 C    1.249    11 C    1.011    14 C    0.975
                            12 O    0.117
    14   6 C    3.925 --    13 N    0.975    22 H    0.972    23 H    0.969
                            24 H    0.963
    15   1 H    0.982 --     1 C    0.963
    16   1 H    0.937 --     2 N    0.919
    17   1 H    0.982 --     1 C    0.962
    18   1 H    0.985 --     3 C    0.952
    19   1 H    0.986 --    10 C    0.969
    20   1 H    0.987 --    10 C    0.966
    21   1 H    0.987 --    10 C    0.967
    22   1 H    0.990 --    14 C    0.972
    23   1 H    0.990 --    14 C    0.969
    24   1 H    0.983 --    14 C    0.963
    25   1 H    0.950 --     4 N    0.919
 ---------------------------------------------------------------------------

molecular dipole:
                 x           y           z       tot (Debye)
 q only:        3.352      -1.789       0.033
   full:        3.745      -1.966      -0.267      10.773

           -------------------------------------------------
          | TOTAL ENERGY              -49.734983204035 Eh   |
          | GRADIENT NORM               0.003015953975 Eh/α |
          | HOMO-LUMO GAP               3.844626835865 eV   |
           -------------------------------------------------

 * finished run on 2024/06/05 at 19:59:11.548
