   * xtb version 6.6.1 (8d0f1dd) compiled by 'conda@1efc2f54142f' on 2023-08-01
          program call               : xtb xtbopt.xyz --opt crude --input .xc2 --gfn2

   ID    Z sym.   atoms
    1    7 N      1, 17
    2    6 C      2-6, 8, 9, 11-16, 18-23, 25, 26, 28-33
    3    8 O      7, 10, 24, 27
    4    1 H      34-72

          :  Hamiltonian                  GFN2-xTB          :
 * total energy  :   -99.3068642 Eh     change       -0.1989520E-12 Eh
   *** GEOMETRY OPTIMIZATION CONVERGED AFTER 1 ITERATIONS ***

 final structure:
================
72
 xtb: 6.6.1 (8d0f1dd)
N           -1.55246466312987        2.66855647303174        2.45462080933300
C           -1.51864603476347        1.78795893050818        1.56890649712433
C           -2.55169308492766        1.65982674685996        0.47280677034239
C           -3.18748585986752        0.28191642874601        0.51531301491543
C           -4.09277885888962       -0.09095750000053       -0.48027015892609
C           -4.69498121135318       -1.33997035176394       -0.48224678649558
O           -5.56361998262536       -1.78187071372029       -1.40963554988605
C           -5.95103339348676       -0.92820572504482       -2.46152177263673
C           -4.39476730826938       -2.26466121849168        0.55839265493889
O           -5.00588312574496       -3.45753385733682        0.46621637741708
C           -4.79278657823062       -4.42237870569216        1.47101244345180
C           -3.52448275187729       -1.87127764053090        1.56498370387114
C           -2.93500179326617       -0.61557493612697        1.54552187787134
C           -1.75978653045004        1.87400993765001       -0.82434531762572
C           -1.70444409920858        0.93615290114427       -1.98511398843560
C           -0.45465850303826        1.15800318300753       -1.20866620632674
N            0.14629402328494        0.13961059100138       -0.41526305829371
C            1.55059284251228        0.31909233098208       -0.13353728559262
C            2.48610304672147       -0.02545447161515       -1.31413978582694
C            3.91698667540062        0.13063231218727       -0.89936104170930
C            4.59166791045808        1.32926237464907       -1.09083495030605
C            5.90879746483103        1.47620729061396       -0.68897847573428
C            6.58334310570951        0.42669779419458       -0.07672224529880
O            7.85687034806100        0.45158710685067        0.34537452655620
C            8.62848975317718        1.61589728123400        0.15617974394842
C            5.89608859753287       -0.80427467231502        0.13606823502471
O            6.61876490871891       -1.76568986537877        0.73673265208765
C            6.03675482329071       -3.02621379833988        0.97264864288277
C            4.57807914467788       -0.92574995926510       -0.27762232456622
C           -0.26983377227369       -1.22869427411506       -0.62317381965222
C           -3.69763172775314        2.71625758109024        0.59231235406303
C           -4.50346848382473        2.49050369574309        1.87122409764314
C           -3.23407267006356        4.17041485546700        0.54674848003167
H           -4.33574939172356        0.61224032813883       -1.25986041966570
H           -6.44956050194423       -0.03021624579541       -2.08538789809838
H           -6.65197370392948       -1.50542665582983       -3.06094491718656
H           -5.09659306302195       -0.64004899188879       -3.08200221452340
H           -5.12501442354741       -4.06176810409079        2.44886634663017
H           -5.39192105917168       -5.28313082397085        1.18071246836859
H           -3.73988875866164       -4.71554604492685        1.52767874768479
H           -3.29969179732625       -2.53932107100953        2.38020769445146
H           -2.28295851768758       -0.34370003513905        2.35974907032887
H           -2.07385549401449        1.92351345189220       -4.23717955173774
H           -1.72112520041176        2.92336065780316       -1.08594417650352
H           -2.18750136380404       -0.02492641884652       -1.92375434362360
H           -1.80115055567529        1.38817660163585       -3.02528301294830
H           -0.71236811037388        1.04974096480126        1.46775674546087
H            0.28318271487801        1.83024493933036       -1.63710715918969
H            1.80683441494364       -0.32139672045207        0.71491720316156
H            1.71608182606132        1.35731032649924        0.16404865828983
H            2.26343167424940        0.63504243714846       -2.15306529921904
H            2.30051458021994       -1.05402088740899       -1.62463886589344
H            4.09231411183395        2.15744595203418       -1.56983295453944
H            6.40849490995517        2.41550973101350       -0.86054948406924
H            8.20315825573516        2.46926600162378        0.69253599166758
H            8.72574723820220        1.86217611774197       -0.90520171247572
H            9.61013358376002        1.38476660846762        0.56519967705503
H            6.81297156797278       -3.62196453698376        1.44887306579165
H            5.17582713850273       -2.95033228065896        1.64422016079377
H            5.73217088520563       -3.50794992354761        0.03860108627427
H            4.05253009140779       -1.85651175458027       -0.13153576367959
H           -0.10303185332005       -1.56574383329786       -1.65266882825569
H           -1.32754209646050       -1.33595378096663       -0.38718594806895
H            0.29180209454909       -1.87208077190510        0.05149363588048
H           -4.36108122499735        2.55110189953461       -0.26376728727663
H           -3.88984489306790        2.71538442611969        2.73894882178364
H           -4.85684280063536        1.46462197442339        1.94564858152581
H           -5.36747950467645        3.15005288978313        1.88114396751044
H           -2.47685168607086        4.35139136183720        1.30392431973157
H           -2.84458871598365        4.45440008418797       -0.42799656290470
H           -4.08412337836592        4.81518522138993        0.75553941874919
H           -0.79725360692892        2.69916630316992        3.13147546714254

          :  Hamiltonian                  GFN2-xTB          :
         :: total energy             -99.306864188701 Eh    ::
         :: gradient norm              0.003219190623 Eh/a0 ::
         :: HOMO-LUMO gap              0.734898770646 eV    ::
         :: SCC energy              -100.670034710973 Eh    ::
         :: -> dispersion             -0.076712424211 Eh    ::
         :: repulsion energy           1.361686694070 Eh    ::

    * Orbital Energies and Occupations

         #    Occupation            Energy/Eh            Energy/eV
      -------------------------------------------------------------
         1        2.0000           -0.8193452             -22.2955
       ...           ...                  ...                  ...
        78        1.9967           -0.5356022             -14.5745
        79        1.9962           -0.5330323             -14.5045
        80        1.9953           -0.5297004             -14.4139
        81        1.9944           -0.5271679             -14.3450
        82        1.9930           -0.5234075             -14.2426
        83        1.9914           -0.5201776             -14.1548
        84        1.9889           -0.5161685             -14.0457
        85        1.9665           -0.4985146             -13.5653
        86        1.9639           -0.4973009             -13.5322
        87        1.9066           -0.4817751             -13.1098
        88        1.7979           -0.4686306             -12.7521
        89        1.7757           -0.4667814             -12.7018
        90        1.6750           -0.4599847             -12.5168 (HOMO)
        91        0.9670           -0.4329776             -11.7819 (LUMO)
        92        0.0070           -0.3446297              -9.3779
        93        0.0020           -0.3248185              -8.8388
        94        0.0017           -0.3221765              -8.7669
        95        0.0015           -0.3205440              -8.7224
        96        0.0013           -0.3183891              -8.6638
        97        0.0000           -0.1999243              -5.4402
        98        0.0000           -0.1961477              -5.3375
        99        0.0000           -0.1783107              -4.8521
       100                         -0.1110016              -3.0205
       101                         -0.0721792              -1.9641
       ...                                ...                  ...
       171                          0.5663429              15.4110
      -------------------------------------------------------------
                  HL-Gap            0.0270070 Eh            0.7349 eV

     #   Z          covCN         q      C6AA      α(0)
     1   7 N        1.774    -0.257    27.497     7.765
     2   6 C        2.832     0.098    25.814     8.326
     3   6 C        3.908     0.012    20.325     6.408
     4   6 C        2.973     0.009    27.814     8.651
     5   6 C        2.920    -0.077    29.925     8.971
     6   6 C        2.861     0.133    25.097     8.211
     7   8 O        1.706    -0.220    17.644     5.671
     8   6 C        3.644     0.024    20.508     6.509
     9   6 C        2.863     0.133    25.087     8.210
    10   8 O        1.706    -0.217    17.599     5.664
    11   6 C        3.645     0.024    20.511     6.509
    12   6 C        2.913    -0.070    29.738     8.942
    13   6 C        2.921    -0.046    29.137     8.852
    14   6 C        3.871    -0.031    21.080     6.529
    15   6 C        3.797    -0.077    21.969     6.674
    16   6 C        3.804     0.037    19.956     6.360
    17   7 N        2.725    -0.104    23.279     7.166
    18   6 C        3.755    -0.001    20.657     6.481
    19   6 C        3.807    -0.072    21.869     6.657
    20   6 C        2.968     0.009    27.810     8.650
    21   6 C        2.921    -0.043    29.064     8.841
    22   6 C        2.913    -0.064    29.600     8.921
    23   6 C        2.864     0.137    25.009     8.197
    24   8 O        1.706    -0.211    17.504     5.649
    25   6 C        3.645     0.022    20.541     6.514
    26   6 C        2.862     0.137    25.015     8.198
    27   8 O        1.706    -0.215    17.571     5.660
    28   6 C        3.645     0.024    20.499     6.507
    29   6 C        2.919    -0.076    29.907     8.968
    30   6 C        3.697    -0.049    21.622     6.651
    31   6 C        3.852    -0.008    20.693     6.470
    32   6 C        3.756    -0.118    22.812     6.810
    33   6 C        3.755    -0.121    22.867     6.818
    34   1 H        0.926     0.062     2.176     2.307
    35   1 H        0.924     0.059     2.212     2.326
    36   1 H        0.925     0.086     1.921     2.167
    37   1 H        0.924     0.054     2.273     2.358
    38   1 H        0.924     0.060     2.202     2.321
    39   1 H        0.925     0.086     1.923     2.169
    40   1 H        0.924     0.055     2.260     2.351
    41   1 H        0.926     0.059     2.209     2.324
    42   1 H        0.926     0.049     2.330     2.387
    43   1 H        0.000    -0.100    13.890     6.815
    44   1 H        0.925     0.064     2.157     2.297
    45   1 H        0.926     0.063     2.168     2.303
    46   1 H        0.915     0.101     1.773     2.083
    47   1 H        0.924     0.035     2.510     2.478
    48   1 H        0.925     0.049     2.333     2.388
    49   1 H        0.924     0.054     2.276     2.359
    50   1 H        0.924     0.052     2.293     2.368
    51   1 H        0.924     0.052     2.296     2.370
    52   1 H        0.924     0.056     2.252     2.347
    53   1 H        0.926     0.054     2.274     2.358
    54   1 H        0.926     0.064     2.157     2.297
    55   1 H        0.924     0.060     2.201     2.320
    56   1 H        0.924     0.061     2.185     2.311
    57   1 H        0.925     0.087     1.912     2.162
    58   1 H        0.925     0.086     1.922     2.168
    59   1 H        0.924     0.054     2.275     2.359
    60   1 H        0.924     0.057     2.229     2.335
    61   1 H        0.926     0.053     2.280     2.361
    62   1 H        0.924     0.051     2.305     2.374
    63   1 H        0.925     0.059     2.207     2.323
    64   1 H        0.925     0.059     2.214     2.327
    65   1 H        0.924     0.045     2.378     2.411
    66   1 H        0.925     0.069     2.100     2.266
    67   1 H        0.925     0.037     2.492     2.469
    68   1 H        0.925     0.055     2.262     2.352
    69   1 H        0.925     0.071     2.080     2.255
    70   1 H        0.925     0.038     2.479     2.462
    71   1 H        0.925     0.061     2.192     2.315
    72   1 H        0.860     0.165     1.306     1.790

Wiberg/Mayer (AO) data.
largest (>0.10) Wiberg bond orders for each atom

     #   Z sym  total        # sym  WBO       # sym  WBO       # sym  WBO
 ---------------------------------------------------------------------------
     1   7 N    3.008 --     2 C    1.956    72 H    0.936
     2   6 C    3.926 --     1 N    1.956     3 C    0.977    47 H    0.918
     3   6 C    3.958 --     2 C    0.977     4 C    0.976    14 C    0.950
                            31 C    0.938
     4   6 C    3.929 --    13 C    1.395     5 C    1.371     3 C    0.976
     5   6 C    3.951 --     6 C    1.389     4 C    1.371    34 H    0.955
     6   6 C    3.886 --     5 C    1.389     9 C    1.209     7 O    1.112
     7   8 O    2.252 --     6 C    1.112     8 C    0.975
     8   6 C    3.925 --    36 H    0.976     7 O    0.975    37 H    0.972
                            35 H    0.971
     9   6 C    3.880 --    12 C    1.378     6 C    1.209    10 O    1.116
    10   8 O    2.252 --     9 C    1.116    11 C    0.975
    11   6 C    3.925 --    39 H    0.976    10 O    0.975    40 H    0.972
                            38 H    0.971
    12   6 C    3.951 --    13 C    1.415     9 C    1.378    41 H    0.962
    13   6 C    3.934 --    12 C    1.415     4 C    1.395    42 H    0.961
    14   6 C    3.880 --    15 C    0.972    44 H    0.954     3 C    0.950
                            16 C    0.884
    15   6 C    3.745 --    14 C    0.972    16 C    0.964    45 H    0.957
                            46 H    0.770
    16   6 C    3.899 --    17 N    1.031    15 C    0.964    48 H    0.955
                            14 C    0.884
    17   7 N    3.165 --    16 C    1.031    18 C    1.009    30 C    1.008
    18   6 C    3.962 --    17 N    1.009    50 H    0.970    49 H    0.967
                            19 C    0.957
    19   6 C    3.966 --    20 C    1.017    51 H    0.970    52 H    0.968
                            18 C    0.957
    20   6 C    3.921 --    21 C    1.387    29 C    1.381    19 C    1.017
    21   6 C    3.923 --    22 C    1.427    20 C    1.387    53 H    0.967
    22   6 C    3.945 --    21 C    1.427    23 C    1.369    54 H    0.962
    23   6 C    3.867 --    22 C    1.369    26 C    1.204    24 O    1.123
    24   8 O    2.250 --    23 C    1.123    25 C    0.973
    25   6 C    3.922 --    57 H    0.976    24 O    0.973    56 H    0.970
                            55 H    0.970
    26   6 C    3.876 --    29 C    1.388    23 C    1.204    27 O    1.116
    27   8 O    2.250 --    26 C    1.116    28 C    0.976
    28   6 C    3.926 --    58 H    0.976    27 O    0.976    59 H    0.972
                            60 H    0.971
    29   6 C    3.947 --    26 C    1.388    20 C    1.381    61 H    0.961
    30   6 C    3.964 --    17 N    1.008    64 H    0.979    63 H    0.967
                            62 H    0.965
    31   6 C    3.961 --    33 C    1.009    32 C    1.007    65 H    0.955
                             3 C    0.938
    32   6 C    3.971 --    31 C    1.007    67 H    0.980    68 H    0.980
                            66 H    0.972
    33   6 C    3.969 --    31 C    1.009    71 H    0.976    70 H    0.976
                            69 H    0.967
    34   1 H    0.994 --     5 C    0.955
    35   1 H    0.990 --     8 C    0.971
    36   1 H    0.992 --     8 C    0.976
    37   1 H    0.991 --     8 C    0.972
    38   1 H    0.989 --    11 C    0.971
    39   1 H    0.992 --    11 C    0.976
    40   1 H    0.990 --    11 C    0.972
    41   1 H    0.994 --    12 C    0.962
    42   1 H    0.996 --    13 C    0.961
    43   1 H    0.255 --    46 H    0.203
    44   1 H    0.989 --    14 C    0.954
    45   1 H    0.991 --    15 C    0.957
    46   1 H    0.985 --    15 C    0.770    43 H    0.203
    47   1 H    0.970 --     2 C    0.918
    48   1 H    0.985 --    16 C    0.955
    49   1 H    0.992 --    18 C    0.967
    50   1 H    0.994 --    18 C    0.970
    51   1 H    0.995 --    19 C    0.970
    52   1 H    0.994 --    19 C    0.968
    53   1 H    0.996 --    21 C    0.967
    54   1 H    0.994 --    22 C    0.962
    55   1 H    0.988 --    25 C    0.970
    56   1 H    0.988 --    25 C    0.970
    57   1 H    0.991 --    25 C    0.976
    58   1 H    0.992 --    28 C    0.976
    59   1 H    0.990 --    28 C    0.972
    60   1 H    0.990 --    28 C    0.971
    61   1 H    0.995 --    29 C    0.961
    62   1 H    0.978 --    30 C    0.965
    63   1 H    0.990 --    30 C    0.967
    64   1 H    0.996 --    30 C    0.979
    65   1 H    0.986 --    31 C    0.955
    66   1 H    0.988 --    32 C    0.972
    67   1 H    0.995 --    32 C    0.980
    68   1 H    0.992 --    32 C    0.980
    69   1 H    0.988 --    33 C    0.967
    70   1 H    0.995 --    33 C    0.976
    71   1 H    0.991 --    33 C    0.976
    72   1 H    0.962 --     1 N    0.936
 ---------------------------------------------------------------------------

molecular dipole:
                 x           y           z       tot (Debye)
 q only:        0.744      -0.267       0.367
   full:        1.087      -0.464       0.209       3.051

           -------------------------------------------------
          | TOTAL ENERGY              -99.306864188701 Eh   |
          | GRADIENT NORM               0.003219190623 Eh/α |
          | HOMO-LUMO GAP               0.734898770646 eV   |
           -------------------------------------------------

 * finished run on 2024/04/06 at 11:12:24.691
