   * xtb version 6.6.1 (8d0f1dd) compiled by 'conda@1efc2f54142f' on 2023-08-01
          program call               : xtb struc.xyz --opt loose --input .xc1 --gfn2

   ID    Z sym.   atoms
    1    7 N      1, 17
    2    6 C      2-6, 8, 9, 11-16, 18-23, 25, 26, 28-33
    3    8 O      7, 10, 24, 27
    4    1 H      34-72
constraining bond 2 69 to    4.7133300 Å, actual value:    2.7379914 Å

          :  Hamiltonian                  GFN2-xTB          :
 * total energy  :  -100.1008388 Eh     change       -0.4035485E-08 Eh
 * total energy  :  -100.6315588 Eh     change       -0.5307200E+00 Eh
 * total energy  :  -101.2672822 Eh     change       -0.6357234E+00 Eh
 * total energy  :  -101.7883299 Eh     change       -0.5210477E+00 Eh
 * total energy  :  -101.7276964 Eh     change        0.6063354E-01 Eh
 * total energy  :  -101.8402430 Eh     change       -0.1125466E+00 Eh
 * total energy  :  -101.8555938 Eh     change       -0.1535078E-01 Eh
 * total energy  :  -101.8964804 Eh     change       -0.4088659E-01 Eh
 * total energy  :  -101.9124726 Eh     change       -0.1599220E-01 Eh
 * total energy  :  -101.9401337 Eh     change       -0.2766112E-01 Eh
 * total energy  :  -102.0068493 Eh     change       -0.5097804E-03 Eh
 * total energy  :  -102.0073944 Eh     change       -0.5450938E-03 Eh
 * total energy  :  -102.0077804 Eh     change       -0.3860260E-03 Eh
 * total energy  :  -102.0080178 Eh     change       -0.2374494E-03 Eh
 * total energy  :  -102.0081509 Eh     change       -0.1330935E-03 Eh
 * total energy  :  -102.0082803 Eh     change       -0.1293991E-03 Eh
 * total energy  :  -102.0083572 Eh     change       -0.7690771E-04 Eh
 * total energy  :  -102.0084280 Eh     change       -0.7079416E-04 Eh
 * total energy  :  -102.0084649 Eh     change       -0.3690517E-04 Eh
   *** GEOMETRY OPTIMIZATION CONVERGED AFTER 37 ITERATIONS ***

 final structure:
================
72
 xtb: 6.6.1 (8d0f1dd)
N           -2.31046959863986        2.22397513055496        2.49745521016341
C           -2.23638155214187        2.63755513032810        1.29587141796815
C           -3.17390721929942        2.04412097313253        0.24493337828638
C           -3.60107091938069        0.60521277981319        0.40039562220316
C           -4.50743919823839        0.07620568570433       -0.52529519100178
C           -4.91584800627660       -1.24550404605597       -0.47095878138011
O           -5.79177255393974       -1.82779630479267       -1.31354919165884
C           -6.41863478578474       -1.05307143806433       -2.30844667793311
C           -4.39320007130514       -2.09838352755604        0.54152708424353
O           -4.83127238929119       -3.36978001848574        0.51434789386335
C           -4.39620023581687       -4.26498075441999        1.51146583515069
C           -3.49929905290607       -1.56550384171690        1.45842507159167
C           -3.11429578060322       -0.23506917089005        1.39139636489372
C           -2.52615196602626        2.25443395882340       -1.14242164839139
C           -1.50585461290217        1.17375756725128       -1.51321750319565
C           -0.31455013484616        1.11479749739992       -0.55535265811238
N            0.60369704264849        0.05918707043290       -0.91071419271555
C            1.97049329834741        0.20945925435086       -0.47156683749437
C            2.95612761915265       -0.36923638573839       -1.50551054512883
C            4.36708881897867       -0.17594204914142       -1.03489574700215
C            5.02675995187156        1.02730582010046       -1.25040736810868
C            6.31230664998493        1.22958386911820       -0.77760993361820
C            6.97325292033007        0.23041163394609       -0.07351973500513
O            8.21400848112648        0.32024559399980        0.43526202381895
C            8.94385598649765        1.51415052179910        0.26695517335457
C            6.31029354244670       -1.01090105862338        0.14595892034066
O            7.02161715646007       -1.92942610414285        0.82526024934705
C            6.46309764679317       -3.20000317403521        1.06404335148750
C            5.02020620057495       -1.18572474967370       -0.33455096730305
C            0.05775313848333       -1.27233158543735       -0.78668944604960
C           -4.46491483074947        2.98595283392033        0.38235472625562
C           -5.27312911205934        2.58977335408537        1.61266855837659
C           -4.07283194084297        4.39438480636820        0.41615203911658
H           -4.90720328269366        0.71071444419964       -1.29924745998114
H           -6.99068797493561       -0.22787265435527       -1.87315379720433
H           -7.09914409797572       -1.73080011004099       -2.82029818086058
H           -5.69383339807829       -0.65887062930460       -3.02786194088656
H           -4.67862204386333       -3.91896337597774        2.51023263731710
H           -4.89855384173898       -5.20670996652848        1.29972171332597
H           -3.31278696367165       -4.41444255960711        1.46893178145257
H           -3.09611212218086       -2.18181306990788        2.24549742446071
H           -2.44525206864569        0.15156562320275        2.14128695320035
H           -3.30082218766086        2.25237346772797       -1.91067523307162
H           -2.04485306900227        3.23453514172671       -1.17319403234570
H           -2.00659124625302        0.20623105477252       -1.52693399613138
H           -1.13193529002387        1.37447806674371       -2.51906585183978
H           -0.68835323478663        0.96690203672220        0.47276282923579
H            0.22358598278750        2.06708162446600       -0.59445528067435
H            2.13890202688920       -0.28085068995354        0.49916263475951
H            2.18872931864325        1.27186539193934       -0.35076446733539
H            2.79914775143364        0.14539531925507       -2.45355682149877
H            2.75397997535617       -1.42951561730873       -1.65471399971329
H            4.53722145056964        1.81585516834372       -1.80087417531792
H            6.79807378352327        2.17320082733869       -0.96503889089840
H            8.43751491741434        2.36150487591692        0.73929132265579
H            9.11405400251443        1.73341882931870       -0.79130522304170
H            9.89970224431715        1.34457822813646        0.75894671635515
H            7.22136549086424       -3.75394524137524        1.61388830800888
H            5.55458882505596       -3.13167420777070        1.67017017158734
H            6.24082896192133       -3.72148175385473        0.12813531249318
H            4.51015836111536       -2.12265769946329       -0.17387724155488
H           -0.50739800103067       -1.53090456196859       -1.68365495890709
H           -0.61105415753149       -1.35488259948818        0.07924819531762
H            0.85855410923487       -1.99910200963021       -0.67762866124011
H           -5.05096296153631        2.79867743995921       -0.52435897192212
H           -4.63516312700801        2.55428666010523        2.49237467719067
H           -5.72030160687426        1.60886159315925        1.47985227411936
H           -6.06596908588109        3.31365026627809        1.78147587406861
H           -1.81951779984959        3.20126724663801        1.04903639887530
H           -3.79171986387778        4.91543088809069       -0.47869529554397
H           -4.04984399144186        4.93256757079131        1.34370565153962
H           -1.71654468075847        2.70732523186288        3.16713195026117

          :  Hamiltonian                  GFN2-xTB          :
         :: total energy            -102.008464942087 Eh    ::
         :: gradient norm              0.003777874821 Eh/a0 ::
         :: HOMO-LUMO gap              0.924730426810 eV    ::
         :: SCC energy              -100.741087041360 Eh    ::
         :: -> dispersion             -0.074500388662 Eh    ::
         :: repulsion energy           1.545541219920 Eh    ::

    * Orbital Energies and Occupations

         #    Occupation            Energy/Eh            Energy/eV
      -------------------------------------------------------------
         1        2.0000           -0.8120759             -22.0977
       ...           ...                  ...                  ...
        78        1.9978           -0.5330811             -14.5059
        79        1.9974           -0.5304701             -14.4348
        80        1.9970           -0.5285914             -14.3837
        81        1.9966           -0.5265333             -14.3277
        82        1.9957           -0.5228344             -14.2270
        83        1.9946           -0.5189809             -14.1222
        84        1.9940           -0.5173933             -14.0790
        85        1.9687           -0.4910386             -13.3618
        86        1.9639           -0.4887621             -13.2999
        87        1.9170           -0.4751898             -12.9306
        88        1.8228           -0.4623861             -12.5822
        89        1.7917           -0.4595541             -12.5051
        90        1.7203           -0.4542428             -12.3606 (HOMO)
        91        0.8366           -0.4202595             -11.4358 (LUMO)
        92        0.0150           -0.3481488              -9.4736
        93        0.0021           -0.3166412              -8.6162
        94        0.0016           -0.3122290              -8.4962
        95        0.0015           -0.3120261              -8.4907
        96        0.0014           -0.3104220              -8.4470
        97        0.0000           -0.1910165              -5.1978
        98        0.0000           -0.1878512              -5.1117
        99                         -0.1043134              -2.8385
       100                         -0.0814647              -2.2168
       101                         -0.0645179              -1.7556
       ...                                ...                  ...
       171                          1.4788421              40.2413
      -------------------------------------------------------------
                  HL-Gap            0.0339832 Eh            0.9247 eV

     #   Z          covCN         q      C6AA      α(0)
     1   7 N        1.775    -0.299    28.572     7.916
     2   6 C        2.832     0.073    26.359     8.413
     3   6 C        3.903     0.008    20.385     6.418
     4   6 C        2.968     0.016    27.656     8.626
     5   6 C        2.922    -0.077    29.911     8.969
     6   6 C        2.861     0.132    25.103     8.212
     7   8 O        1.706    -0.224    17.714     5.682
     8   6 C        3.644     0.026    20.474     6.504
     9   6 C        2.864     0.134    25.078     8.209
    10   8 O        1.706    -0.219    17.641     5.671
    11   6 C        3.646     0.024    20.495     6.506
    12   6 C        2.914    -0.069    29.716     8.939
    13   6 C        2.921    -0.045    29.115     8.848
    14   6 C        3.808    -0.069    21.810     6.648
    15   6 C        3.801    -0.070    21.846     6.654
    16   6 C        3.749    -0.001    20.662     6.483
    17   7 N        2.728    -0.108    23.355     7.177
    18   6 C        3.750     0.002    20.613     6.475
    19   6 C        3.808    -0.073    21.887     6.660
    20   6 C        2.968     0.011    27.776     8.645
    21   6 C        2.922    -0.044    29.090     8.845
    22   6 C        2.913    -0.065    29.623     8.925
    23   6 C        2.864     0.135    25.042     8.203
    24   8 O        1.706    -0.215    17.568     5.659
    25   6 C        3.645     0.023    20.517     6.510
    26   6 C        2.862     0.136    25.034     8.201
    27   8 O        1.706    -0.218    17.614     5.666
    28   6 C        3.645     0.025    20.488     6.506
    29   6 C        2.919    -0.076    29.887     8.965
    30   6 C        3.702    -0.051    21.641     6.652
    31   6 C        3.855    -0.000    20.550     6.447
    32   6 C        3.757    -0.119    22.842     6.814
    33   6 C        2.840    -0.090    30.256     9.014
    34   1 H        0.926     0.052     2.289     2.366
    35   1 H        0.924     0.054     2.271     2.357
    36   1 H        0.925     0.083     1.946     2.182
    37   1 H        0.924     0.052     2.298     2.371
    38   1 H        0.924     0.058     2.218     2.329
    39   1 H        0.925     0.083     1.946     2.181
    40   1 H        0.924     0.053     2.282     2.362
    41   1 H        0.926     0.057     2.229     2.335
    42   1 H        0.926     0.076     2.024     2.225
    43   1 H        0.924     0.052     2.297     2.370
    44   1 H        0.924     0.044     2.402     2.424
    45   1 H        0.925     0.051     2.310     2.377
    46   1 H        0.924     0.057     2.233     2.337
    47   1 H        0.923     0.034     2.535     2.490
    48   1 H        0.924     0.046     2.372     2.409
    49   1 H        0.923     0.038     2.478     2.462
    50   1 H        0.924     0.050     2.317     2.380
    51   1 H        0.925     0.064     2.154     2.295
    52   1 H        0.925     0.055     2.256     2.349
    53   1 H        0.926     0.053     2.278     2.360
    54   1 H        0.926     0.061     2.187     2.313
    55   1 H        0.924     0.057     2.230     2.335
    56   1 H        0.924     0.059     2.206     2.323
    57   1 H        0.925     0.085     1.933     2.174
    58   1 H        0.925     0.084     1.940     2.178
    59   1 H        0.924     0.053     2.280     2.361
    60   1 H        0.924     0.057     2.238     2.339
    61   1 H        0.926     0.053     2.281     2.362
    62   1 H        0.924     0.059     2.214     2.327
    63   1 H        0.924     0.043     2.411     2.428
    64   1 H        0.925     0.059     2.208     2.324
    65   1 H        0.924     0.067     2.117     2.275
    66   1 H        0.925     0.068     2.108     2.271
    67   1 H        0.925     0.049     2.326     2.385
    68   1 H        0.925     0.057     2.229     2.334
    69   1 H        0.931     0.085     1.931     2.173
    70   1 H        0.926     0.057     2.236     2.338
    71   1 H        0.926     0.064     2.158     2.297
    72   1 H        0.860     0.156     1.361     1.827

Wiberg/Mayer (AO) data.
largest (>0.10) Wiberg bond orders for each atom

     #   Z sym  total        # sym  WBO       # sym  WBO       # sym  WBO
 ---------------------------------------------------------------------------
     1   7 N    2.974 --     2 C    1.905    72 H    0.941
     2   6 C    3.943 --     1 N    1.905     3 C    0.984    69 H    0.968
     3   6 C    3.899 --     4 C    0.998     2 C    0.984    14 C    0.973
                            31 C    0.831
     4   6 C    3.929 --    13 C    1.397     5 C    1.360     3 C    0.998
     5   6 C    3.946 --     6 C    1.401     4 C    1.360    34 H    0.957
     6   6 C    3.888 --     5 C    1.401     9 C    1.209     7 O    1.104
     7   8 O    2.247 --     6 C    1.104     8 C    0.977
     8   6 C    3.929 --     7 O    0.977    36 H    0.976    35 H    0.973
                            37 H    0.972
     9   6 C    3.878 --    12 C    1.381     6 C    1.209    10 O    1.112
    10   8 O    2.249 --     9 C    1.112    11 C    0.976
    11   6 C    3.927 --    39 H    0.977    10 O    0.976    40 H    0.972
                            38 H    0.972
    12   6 C    3.951 --    13 C    1.415     9 C    1.381    41 H    0.962
    13   6 C    3.922 --    12 C    1.415     4 C    1.397    42 H    0.949
    14   6 C    3.986 --    15 C    1.005     3 C    0.973    44 H    0.973
                            43 H    0.969
    15   6 C    3.980 --    14 C    1.005    16 C    0.997    46 H    0.973
                            45 H    0.969
    16   6 C    3.970 --    17 N    1.007    15 C    0.997    48 H    0.970
                            47 H    0.942
    17   7 N    3.098 --    30 C    1.016    18 C    1.009    16 C    1.007
    18   6 C    3.963 --    17 N    1.009    50 H    0.970    19 C    0.970
                            49 H    0.956
    19   6 C    3.976 --    20 C    1.015    18 C    0.970    52 H    0.968
                            51 H    0.968
    20   6 C    3.924 --    29 C    1.388    21 C    1.387    19 C    1.015
    21   6 C    3.926 --    22 C    1.428    20 C    1.387    53 H    0.967
    22   6 C    3.949 --    21 C    1.428    23 C    1.371    54 H    0.962
    23   6 C    3.870 --    22 C    1.371    26 C    1.210    24 O    1.117
    24   8 O    2.246 --    23 C    1.117    25 C    0.975
    25   6 C    3.924 --    57 H    0.976    24 O    0.975    55 H    0.971
                            56 H    0.971
    26   6 C    3.877 --    29 C    1.385    23 C    1.210    27 O    1.112
    27   8 O    2.248 --    26 C    1.112    28 C    0.977
    28   6 C    3.927 --    27 O    0.977    58 H    0.976    59 H    0.972
                            60 H    0.972
    29   6 C    3.950 --    20 C    1.388    26 C    1.385    61 H    0.961
    30   6 C    3.968 --    17 N    1.016    64 H    0.978    62 H    0.971
                            63 H    0.966
    31   6 C    3.970 --    33 C    1.121    32 C    1.006    65 H    0.925
                             3 C    0.831
    32   6 C    3.977 --    31 C    1.006    67 H    0.980    68 H    0.980
                            66 H    0.973
    33   6 C    3.167 --    31 C    1.121    70 H    0.981    71 H    0.980
    34   1 H    0.995 --     5 C    0.957
    35   1 H    0.991 --     8 C    0.973
    36   1 H    0.992 --     8 C    0.976
    37   1 H    0.991 --     8 C    0.972
    38   1 H    0.990 --    11 C    0.972
    39   1 H    0.992 --    11 C    0.977
    40   1 H    0.991 --    11 C    0.972
    41   1 H    0.994 --    12 C    0.962
    42   1 H    0.991 --    13 C    0.949
    43   1 H    0.994 --    14 C    0.969
    44   1 H    0.997 --    14 C    0.973
    45   1 H    0.996 --    15 C    0.969
    46   1 H    0.994 --    15 C    0.973
    47   1 H    0.975 --    16 C    0.942
    48   1 H    0.997 --    16 C    0.970
    49   1 H    0.977 --    18 C    0.956
    50   1 H    0.997 --    18 C    0.970
    51   1 H    0.992 --    19 C    0.968
    52   1 H    0.995 --    19 C    0.968
    53   1 H    0.996 --    21 C    0.967
    54   1 H    0.994 --    22 C    0.962
    55   1 H    0.989 --    25 C    0.971
    56   1 H    0.989 --    25 C    0.971
    57   1 H    0.992 --    25 C    0.976
    58   1 H    0.992 --    28 C    0.976
    59   1 H    0.990 --    28 C    0.972
    60   1 H    0.990 --    28 C    0.972
    61   1 H    0.995 --    29 C    0.961
    62   1 H    0.984 --    30 C    0.971
    63   1 H    0.981 --    30 C    0.966
    64   1 H    0.996 --    30 C    0.978
    65   1 H    0.967 --    31 C    0.925
    66   1 H    0.993 --    32 C    0.973
    67   1 H    0.995 --    32 C    0.980
    68   1 H    0.995 --    32 C    0.980
    69   1 H    0.984 --     2 C    0.968
    70   1 H    0.996 --    33 C    0.981
    71   1 H    0.995 --    33 C    0.980
    72   1 H    0.968 --     1 N    0.941
 ---------------------------------------------------------------------------

molecular dipole:
                 x           y           z       tot (Debye)
 q only:        0.185       0.493      -0.251
   full:        0.321       0.957      -0.192       2.612

           -------------------------------------------------
          | TOTAL ENERGY             -102.008464942087 Eh   |
          | GRADIENT NORM               0.003777874821 Eh/α |
          | HOMO-LUMO GAP               0.924730426810 eV   |
           -------------------------------------------------

 * finished run on 2024/04/06 at 11:12:38.838
