   * xtb version 6.6.1 (8d0f1dd) compiled by 'conda@1efc2f54142f' on 2023-08-01
          program call               : xtb xtbopt.xyz --opt crude --input .xc2 --gfn2

   ID    Z sym.   atoms
    1    7 N      1, 17
    2    6 C      2-6, 8, 9, 11-16, 18-23, 25, 26, 28-33
    3    8 O      7, 10, 24, 27
    4    1 H      34-72
########################################################################
[WARNING] Please study the warnings concerning your input carefully
-1- readin_getIntValue: could not parse ''
########################################################################

          :  Hamiltonian                  GFN2-xTB          :
 * total energy  :   -99.1942436 Eh     change       -0.9123369E-11 Eh
 * total energy  :   -99.3548612 Eh     change       -0.1606176E+00 Eh
 * total energy  :   -99.3566567 Eh     change       -0.1795469E-02 Eh
 * total energy  :   -99.3575992 Eh     change       -0.9425190E-03 Eh
 * total energy  :   -99.3578418 Eh     change       -0.2426142E-03 Eh
   *** GEOMETRY OPTIMIZATION CONVERGED AFTER 5 ITERATIONS ***

 final structure:
================
72
 xtb: 6.6.1 (8d0f1dd)
N           -2.28914285143062        2.22531036826512        2.51884372101626
C           -2.26037639745171        2.59400916952314        1.31979274465705
C           -3.17249566272810        2.03941611139578        0.25665934354870
C           -3.60776268087457        0.59660669764071        0.40490183055335
C           -4.51108760116878        0.06859980964548       -0.52420369562207
C           -4.92016302592324       -1.25375269718457       -0.47317740434540
O           -5.79399851532650       -1.83401578763978       -1.31964157973258
C           -6.41647842078050       -1.05695282237036       -2.31534481465011
C           -4.40082784559470       -2.10828139670951        0.53937512359825
O           -4.84041956715593       -3.37914136039427        0.51066849256638
C           -4.40845583417988       -4.27736058277719        1.50682337125352
C           -3.50817295849650       -1.57729864820625        1.45851531266407
C           -3.12321531454440       -0.24660421268402        1.39523351744873
C           -2.52829496351814        2.24687233695657       -1.13168290425282
C           -1.51112672182643        1.16671875915931       -1.50701973759525
C           -0.31373537483593        1.11230756640430       -0.55664382513988
N            0.60289563731188        0.05492135028033       -0.90923865532504
C            1.96832854605724        0.20179006781366       -0.46585855049857
C            2.95605933929553       -0.36288116899659       -1.50537940203323
C            4.36656680627794       -0.17060077788411       -1.03350933187081
C            5.02582399673466        1.03320912774960       -1.24682061222686
C            6.31219496188425        1.23468768289601       -0.77551952865426
C            6.97318734310389        0.23369109755662       -0.07435399525980
O            8.21512099999509        0.31911200624713        0.43233003574635
C            8.94955386128566        1.50985901091314        0.26386215610959
C            6.30950801086105       -1.00747168292970        0.14516157175225
O            7.02275736684034       -1.92512496648211        0.82318112084800
C            6.46596815177317       -3.19593618489801        1.06401183107024
C            5.01920538341119       -1.18190049109455       -0.33459694212333
C            0.05299641829050       -1.27496440398402       -0.78675358271168
C           -4.46514328155062        2.98279478825790        0.38955056191350
C           -5.28278376655809        2.59235873910065        1.61657227203533
C           -4.07441034761384        4.39102979008461        0.41499075336896
H           -4.90707829699439        0.70407349899580       -1.29931810617108
H           -6.98937219325035       -0.23222738750042       -1.88033099151727
H           -7.09573181160426       -1.73288913641623       -2.83115824396330
H           -5.68873185812584       -0.66196864375904       -3.03132757260510
H           -4.69348454891780       -3.93416668571685        2.50562309969813
H           -4.91089637686811       -5.21818952028117        1.29106893966806
H           -3.32507758440963       -4.42763778821249        1.46722525065611
H           -3.10596886222516       -2.19647437560624        2.24386766145526
H           -2.45352398240042        0.13612674622193        2.14636768555028
H           -3.30613452456596        2.24896348655562       -1.89581846477548
H           -2.04549186450222        3.22519439343023       -1.16060357831707
H           -2.01106981172814        0.19901544340241       -1.51727412202228
H           -1.14384715757229        1.36698230896709       -2.51485228625810
H           -0.68232353746721        0.97817181468355        0.47447783075377
H            0.22293132844694        2.06242627518401       -0.60544861828636
H            2.13709754696896       -0.30059157826797        0.49913237081097
H            2.18545970796977        1.26296335277704       -0.33027779221922
H            2.79743340639093        0.16109144578299       -2.44835459972231
H            2.75677450980684       -1.42216930802682       -1.66646503140362
H            4.53498600036219        1.82271896370171       -1.79480576678012
H            6.79853336369667        2.17828176136695       -0.96164161722972
H            8.44698695212282        2.35951757253066        0.73586611422694
H            9.12081207536984        1.72808421351548       -0.79435341150137
H            9.90454365250973        1.33620265085296        0.75601853622253
H            7.22808489576266       -3.75046562051561        1.60820883193617
H            5.56143725763095       -3.12817699414969        1.67650743224500
H            6.23734914711758       -3.71626960744550        0.12890163543103
H            4.50895991547265       -2.11878760582672       -0.17459891121429
H           -0.52206515799207       -1.52772435243568       -1.67838244472948
H           -0.60877508977627       -1.35712249655256        0.08470338928589
H            0.85329604205303       -2.00258426534361       -0.68417080333858
H           -5.04730266177971        2.78866481234457       -0.51926343715835
H           -4.65368838093319        2.56797358358309        2.50347058486794
H           -5.72590613151610        1.60871434164856        1.48724562670184
H           -6.08065040270048        3.31395593232334        1.77187572768168
H           -1.64938205737035        3.42439342258589        0.95494408512745
H           -3.78516360942980        4.90384841991662       -0.48286225659438
H           -4.07874492128222        4.94188279910740        1.33646547052783
H           -1.68983507284714        2.72133035343815        3.16987342747039

          :  Hamiltonian                  GFN2-xTB          :
         :: total energy             -99.357841799658 Eh    ::
         :: gradient norm              0.007247181739 Eh/a0 ::
         :: HOMO-LUMO gap              0.928970512585 eV    ::
         :: SCC energy              -100.719414490853 Eh    ::
         :: -> dispersion             -0.074464442403 Eh    ::
         :: repulsion energy           1.360273763851 Eh    ::

    * Orbital Energies and Occupations

         #    Occupation            Energy/Eh            Energy/eV
      -------------------------------------------------------------
         1        2.0000           -0.8122673             -22.1029
       ...           ...                  ...                  ...
        78        1.9978           -0.5331564             -14.5079
        79        1.9974           -0.5305605             -14.4373
        80        1.9970           -0.5286807             -14.3861
        81        1.9966           -0.5267062             -14.3324
        82        1.9958           -0.5231037             -14.2344
        83        1.9945           -0.5189856             -14.1223
        84        1.9940           -0.5175530             -14.0833
        85        1.9692           -0.4914282             -13.3724
        86        1.9638           -0.4887847             -13.3005
        87        1.9303           -0.4781470             -13.0110
        88        1.8236           -0.4625512             -12.5867
        89        1.7926           -0.4597212             -12.5097
        90        1.7184           -0.4542071             -12.3596 (HOMO)
        91        0.8281           -0.4200680             -11.4306 (LUMO)
        92        0.0097           -0.3412932              -9.2871
        93        0.0021           -0.3170236              -8.6267
        94        0.0016           -0.3125084              -8.5038
        95        0.0016           -0.3122393              -8.4965
        96        0.0014           -0.3104431              -8.4476
        97        0.0000           -0.1913889              -5.2080
        98        0.0000           -0.1878875              -5.1127
        99                         -0.1037211              -2.8224
       100                         -0.0813512              -2.2137
       101                         -0.0650088              -1.7690
       ...                                ...                  ...
       171                          0.5728935              15.5892
      -------------------------------------------------------------
                  HL-Gap            0.0341390 Eh            0.9290 eV

     #   Z          covCN         q      C6AA      α(0)
     1   7 N        1.774    -0.285    28.206     7.865
     2   6 C        2.829     0.101    25.763     8.317
     3   6 C        3.902     0.013    20.304     6.405
     4   6 C        2.967     0.015    27.665     8.627
     5   6 C        2.921    -0.076    29.910     8.969
     6   6 C        2.861     0.132    25.105     8.213
     7   8 O        1.706    -0.224    17.715     5.683
     8   6 C        3.644     0.026    20.471     6.504
     9   6 C        2.864     0.134    25.078     8.209
    10   8 O        1.706    -0.220    17.645     5.671
    11   6 C        3.646     0.024    20.495     6.506
    12   6 C        2.914    -0.069    29.718     8.939
    13   6 C        2.921    -0.045    29.116     8.849
    14   6 C        3.808    -0.067    21.784     6.644
    15   6 C        3.802    -0.070    21.840     6.654
    16   6 C        3.750    -0.001    20.657     6.482
    17   7 N        2.728    -0.107    23.339     7.175
    18   6 C        3.750     0.002    20.614     6.475
    19   6 C        3.808    -0.073    21.885     6.659
    20   6 C        2.968     0.011    27.773     8.644
    21   6 C        2.922    -0.044    29.087     8.844
    22   6 C        2.913    -0.065    29.620     8.924
    23   6 C        2.864     0.135    25.041     8.203
    24   8 O        1.706    -0.215    17.566     5.659
    25   6 C        3.645     0.023    20.517     6.510
    26   6 C        2.862     0.136    25.033     8.201
    27   8 O        1.706    -0.217    17.610     5.666
    28   6 C        3.645     0.025    20.489     6.506
    29   6 C        2.919    -0.076    29.886     8.965
    30   6 C        3.702    -0.050    21.641     6.652
    31   6 C        3.856     0.000    20.543     6.446
    32   6 C        3.756    -0.119    22.825     6.812
    33   6 C        2.840    -0.088    30.191     9.005
    34   1 H        0.926     0.052     2.292     2.367
    35   1 H        0.924     0.054     2.272     2.357
    36   1 H        0.925     0.083     1.946     2.182
    37   1 H        0.924     0.052     2.299     2.371
    38   1 H        0.924     0.058     2.218     2.329
    39   1 H        0.925     0.083     1.945     2.181
    40   1 H        0.924     0.053     2.282     2.362
    41   1 H        0.926     0.057     2.230     2.335
    42   1 H        0.926     0.074     2.041     2.234
    43   1 H        0.924     0.052     2.294     2.369
    44   1 H        0.924     0.046     2.371     2.408
    45   1 H        0.925     0.050     2.314     2.379
    46   1 H        0.924     0.058     2.228     2.334
    47   1 H        0.923     0.033     2.540     2.493
    48   1 H        0.924     0.047     2.355     2.400
    49   1 H        0.923     0.038     2.475     2.460
    50   1 H        0.924     0.050     2.315     2.380
    51   1 H        0.924     0.064     2.155     2.296
    52   1 H        0.925     0.055     2.255     2.348
    53   1 H        0.926     0.054     2.276     2.359
    54   1 H        0.926     0.061     2.186     2.312
    55   1 H        0.924     0.057     2.230     2.335
    56   1 H        0.924     0.059     2.206     2.323
    57   1 H        0.925     0.085     1.932     2.174
    58   1 H        0.925     0.084     1.939     2.178
    59   1 H        0.924     0.053     2.279     2.361
    60   1 H        0.924     0.057     2.238     2.340
    61   1 H        0.926     0.053     2.280     2.361
    62   1 H        0.924     0.059     2.211     2.325
    63   1 H        0.924     0.043     2.416     2.431
    64   1 H        0.925     0.060     2.204     2.322
    65   1 H        0.924     0.068     2.105     2.269
    66   1 H        0.925     0.066     2.130     2.282
    67   1 H        0.925     0.049     2.328     2.386
    68   1 H        0.925     0.058     2.227     2.334
    69   1 H        0.924     0.021     2.714     2.576
    70   1 H        0.926     0.059     2.215     2.328
    71   1 H        0.926     0.065     2.137     2.286
    72   1 H        0.860     0.161     1.328     1.805

Wiberg/Mayer (AO) data.
largest (>0.10) Wiberg bond orders for each atom

     #   Z sym  total        # sym  WBO       # sym  WBO       # sym  WBO
 ---------------------------------------------------------------------------
     1   7 N    3.015 --     2 C    1.929    72 H    0.940
     2   6 C    3.940 --     1 N    1.929     3 C    0.999    69 H    0.928
     3   6 C    3.905 --     2 C    0.999     4 C    0.993    14 C    0.972
                            31 C    0.828
     4   6 C    3.930 --    13 C    1.398     5 C    1.363     3 C    0.993
     5   6 C    3.947 --     6 C    1.400     4 C    1.363    34 H    0.957
     6   6 C    3.888 --     5 C    1.400     9 C    1.210     7 O    1.104
     7   8 O    2.247 --     6 C    1.104     8 C    0.977
     8   6 C    3.929 --     7 O    0.977    36 H    0.976    35 H    0.973
                            37 H    0.972
     9   6 C    3.879 --    12 C    1.381     6 C    1.210    10 O    1.112
    10   8 O    2.250 --     9 C    1.112    11 C    0.976
    11   6 C    3.927 --    39 H    0.977    10 O    0.976    40 H    0.972
                            38 H    0.972
    12   6 C    3.952 --    13 C    1.415     9 C    1.381    41 H    0.962
    13   6 C    3.925 --    12 C    1.415     4 C    1.398    42 H    0.951
    14   6 C    3.986 --    15 C    1.005     3 C    0.972    44 H    0.971
                            43 H    0.969
    15   6 C    3.981 --    14 C    1.005    16 C    0.997    46 H    0.973
                            45 H    0.969
    16   6 C    3.969 --    17 N    1.008    15 C    0.997    48 H    0.969
                            47 H    0.942
    17   7 N    3.098 --    30 C    1.016    18 C    1.009    16 C    1.008
    18   6 C    3.963 --    17 N    1.009    50 H    0.970    19 C    0.970
                            49 H    0.956
    19   6 C    3.975 --    20 C    1.015    18 C    0.970    52 H    0.968
                            51 H    0.968
    20   6 C    3.924 --    29 C    1.387    21 C    1.387    19 C    1.015
    21   6 C    3.925 --    22 C    1.428    20 C    1.387    53 H    0.967
    22   6 C    3.948 --    21 C    1.428    23 C    1.371    54 H    0.962
    23   6 C    3.870 --    22 C    1.371    26 C    1.209    24 O    1.117
    24   8 O    2.246 --    23 C    1.117    25 C    0.975
    25   6 C    3.924 --    57 H    0.976    24 O    0.975    55 H    0.971
                            56 H    0.971
    26   6 C    3.877 --    29 C    1.385    23 C    1.209    27 O    1.112
    27   8 O    2.248 --    26 C    1.112    28 C    0.977
    28   6 C    3.927 --    27 O    0.977    58 H    0.976    59 H    0.972
                            60 H    0.972
    29   6 C    3.950 --    20 C    1.387    26 C    1.385    61 H    0.961
    30   6 C    3.968 --    17 N    1.016    64 H    0.978    62 H    0.971
                            63 H    0.966
    31   6 C    3.971 --    33 C    1.123    32 C    1.006    65 H    0.925
                             3 C    0.828
    32   6 C    3.979 --    31 C    1.006    67 H    0.980    68 H    0.980
                            66 H    0.975
    33   6 C    3.169 --    31 C    1.123    70 H    0.981    71 H    0.980
    34   1 H    0.995 --     5 C    0.957
    35   1 H    0.992 --     8 C    0.973
    36   1 H    0.992 --     8 C    0.976
    37   1 H    0.991 --     8 C    0.972
    38   1 H    0.990 --    11 C    0.972
    39   1 H    0.992 --    11 C    0.977
    40   1 H    0.991 --    11 C    0.972
    41   1 H    0.994 --    12 C    0.962
    42   1 H    0.992 --    13 C    0.951
    43   1 H    0.994 --    14 C    0.969
    44   1 H    0.996 --    14 C    0.971
    45   1 H    0.996 --    15 C    0.969
    46   1 H    0.994 --    15 C    0.973
    47   1 H    0.975 --    16 C    0.942
    48   1 H    0.997 --    16 C    0.969
    49   1 H    0.977 --    18 C    0.956
    50   1 H    0.997 --    18 C    0.970
    51   1 H    0.992 --    19 C    0.968
    52   1 H    0.995 --    19 C    0.968
    53   1 H    0.996 --    21 C    0.967
    54   1 H    0.994 --    22 C    0.962
    55   1 H    0.989 --    25 C    0.971
    56   1 H    0.989 --    25 C    0.971
    57   1 H    0.992 --    25 C    0.976
    58   1 H    0.992 --    28 C    0.976
    59   1 H    0.990 --    28 C    0.972
    60   1 H    0.990 --    28 C    0.972
    61   1 H    0.995 --    29 C    0.961
    62   1 H    0.985 --    30 C    0.971
    63   1 H    0.980 --    30 C    0.966
    64   1 H    0.996 --    30 C    0.978
    65   1 H    0.966 --    31 C    0.925
    66   1 H    0.994 --    32 C    0.975
    67   1 H    0.995 --    32 C    0.980
    68   1 H    0.995 --    32 C    0.980
    69   1 H    0.981 --     2 C    0.928
    70   1 H    0.996 --    33 C    0.981
    71   1 H    0.995 --    33 C    0.980
    72   1 H    0.967 --     1 N    0.940
 ---------------------------------------------------------------------------

molecular dipole:
                 x           y           z       tot (Debye)
 q only:        0.141       0.435      -0.243
   full:        0.282       0.906      -0.189       2.459

           -------------------------------------------------
          | TOTAL ENERGY              -99.357841799658 Eh   |
          | GRADIENT NORM               0.007247181739 Eh/α |
          | HOMO-LUMO GAP               0.928970512585 eV   |
           -------------------------------------------------

 * finished run on 2024/04/06 at 11:12:39.973
