   * xtb version 6.6.1 (8d0f1dd) compiled by 'conda@1efc2f54142f' on 2023-08-01
          program call               : xtb xtbopt.xyz --opt crude --input .xc2 --gfn2

   ID    Z sym.   atoms
    1    7 N      1, 17
    2    6 C      2-6, 8, 9, 11-16, 18-23, 25, 26, 28-33
    3    8 O      7, 10, 24, 27
    4    1 H      34-72

          :  Hamiltonian                  GFN2-xTB          :
 * total energy  :   -99.3582298 Eh     change       -0.8299139E-11 Eh
   *** GEOMETRY OPTIMIZATION CONVERGED AFTER 1 ITERATIONS ***

 final structure:
================
72
 xtb: 6.6.1 (8d0f1dd)
N           -1.74768850429984        3.12305544973784        2.30419391560938
C           -1.74215047470369        2.29516567598153        1.36933598681415
C           -2.88943525343562        2.06294842727638        0.42538534175651
C           -3.33051678075464        0.61269807748862        0.52079938708294
C           -4.10320702761509        0.03009633493346       -0.48665573468667
C           -4.52841869237646       -1.27637717731475       -0.39733219720189
O           -6.09317334748137       -2.14119925880846       -3.70846668356360
C           -7.08843298356355       -2.08690565778831       -4.37072029855671
C           -4.21772741227643       -2.05019452088306        0.72822304899804
O           -4.68900179035476       -3.31413518315836        0.73114844869960
C           -4.52695009331432       -4.10863213131223        1.88190177778175
C           -3.46214291982846       -1.47347483492593        1.74696046051214
C           -3.02775697647597       -0.16257758345030        1.63313870543109
C           -2.33871300322170        2.38602458919961       -0.98860708027939
C           -1.43151811574168        1.30364304575509       -1.60164254415424
C           -0.11624459857445        1.18389109386438       -0.94127037890399
N            0.45928799371563        0.04948400700115       -0.57256387690201
C            1.84398869080682        0.04131552036012       -0.16342497976971
C            2.77139938946793       -0.36953300589041       -1.32420276658567
C            4.20722772672256       -0.18350963423333       -0.92253035371230
C            4.83609869992397        1.03648802656857       -1.11311299066524
C            6.15093762311343        1.22697850466779       -0.71854664183612
C            6.86392603786372        0.19825467320701       -0.11942764633428
O            8.13954880257197        0.26935543666340        0.30189752896875
C            8.85620481394107        1.46976885480481        0.12515305246429
C            6.22621439196832       -1.05771604751174        0.08181415176748
O            6.99161470165006       -2.00196004392825        0.66275037613039
C            6.45684035146804       -3.28615235870847        0.87847605954684
C            4.90936688183894       -1.22307558321375       -0.31825403144416
C           -0.21773386897461       -1.22206756456014       -0.66655349521019
C           -4.13214253891713        2.95691491447825        0.71565965726211
C           -4.71938837214933        2.67497872459757        2.09631511984248
C           -3.84463820101037        4.44927580111770        0.57854302645041
H           -4.38900676459185        0.60476017299093       -1.35354681704933
H           -5.11639279798461       -1.72246786487250       -1.18422889676079
H           -7.90981790930479       -2.81385705114316       -4.27130006108769
H           -7.25817376837543       -1.30526791640031       -5.12636285919291
H           -4.95465970153660       -3.62704210019446        2.76603733626154
H           -5.06561145905579       -5.03250407578075        1.67945375718808
H           -3.47273714432757       -4.33923023674065        2.06686717901191
H           -3.21579406839249       -2.02895721215106        2.63705343120005
H           -2.46117554429585        0.26581728662541        2.44667472058902
H           -3.18102791504571        2.53674220423625       -1.66311498053234
H           -1.78442291655891        3.32439556671404       -0.93740126753562
H           -1.95654306105164        0.35154663742109       -1.62901878295571
H           -1.24474762147507        1.61157864027118       -2.63856086758325
H           -0.86567306909122        1.67360226225819        1.10421187414059
H            0.48094739995849        2.08002784394126       -0.85411758939633
H            1.97187768856649       -0.65019357062766        0.67289706329316
H            2.12586188850702        1.04133571057753        0.17360546294442
H            2.54562476781032        0.25922225893586       -2.18745727814515
H            2.58346793067570       -1.40892956636223       -1.59496143221921
H            4.30613573851820        1.84958143803393       -1.58572993812032
H            6.61539152541675        2.18445862530890       -0.88766874153352
H            8.39184328515797        2.29752162069819        0.66980991796484
H            8.94338396977942        1.73156931758588       -0.93357735983945
H            9.84724550803213        1.28071421542462        0.53298759364223
H            7.25954893526571       -3.86456282048073        1.33148927954909
H            5.60319383629392       -3.25525467524243        1.56311906463613
H            6.15640652683033       -3.75885715685367       -0.06168908524143
H            4.41786379318938       -2.17263542331961       -0.17574340492354
H           -0.39477144014991       -1.50278642332045       -1.70689442050915
H           -1.17787600790285       -1.18138294822211       -0.14779586781310
H            0.39562851134860       -1.98907774563336       -0.20074776739383
H           -4.88529252001687        2.68032306661779       -0.03211161189718
H           -4.00449100547052        2.94273429094281        2.86819065702963
H           -4.98597868981298        1.62663543011276        2.20586869822541
H           -5.61747707470505        3.27059693342021        2.23689810994812
H           -3.07726534833227        4.74917665160065        1.28536651295556
H           -3.53053645105915        4.71425240450068       -0.42713701808991
H           -4.74999503526731        5.00793619573824        0.80090432232581
H           -0.90411354575449        3.21979096637127        2.86061156456510

          :  Hamiltonian                  GFN2-xTB          :
         :: total energy             -99.358229805590 Eh    ::
         :: gradient norm              0.003022544925 Eh/a0 ::
         :: HOMO-LUMO gap              1.670080574305 eV    ::
         :: SCC energy              -100.762872595069 Eh    ::
         :: -> dispersion             -0.072553383499 Eh    ::
         :: repulsion energy           1.403584126431 Eh    ::

    * Orbital Energies and Occupations

         #    Occupation            Energy/Eh            Energy/eV
      -------------------------------------------------------------
         1        2.0000           -0.8073166             -21.9682
       ...           ...                  ...                  ...
        78        1.9979           -0.5268399             -14.3360
        79        1.9978           -0.5261894             -14.3183
        80        1.9969           -0.5210063             -14.1773
        81        1.9950           -0.5133551             -13.9691
        82        1.9942           -0.5109111             -13.9026
        83        1.9935           -0.5092459             -13.8573
        84        1.9931           -0.5080983             -13.8261
        85        1.9876           -0.4988187             -13.5735
        86        1.9777           -0.4895158             -13.3204
        87        1.9694           -0.4844161             -13.1816
        88        1.9298           -0.4709533             -12.8153
        89        1.9088           -0.4666277             -12.6976
        90        1.8370           -0.4568211             -12.4307 (HOMO)
        91        0.3787           -0.3954468             -10.7607 (LUMO)
        92        0.0304           -0.3524393              -9.5904
        93        0.0120           -0.3375305              -9.1847
        94        0.0035           -0.3179056              -8.6507
        95        0.0026           -0.3133440              -8.5265
        96        0.0023           -0.3111578              -8.4670
        97        0.0021           -0.3102016              -8.4410
        98        0.0000           -0.1885371              -5.1304
        99        0.0000           -0.1877326              -5.1085
       100                         -0.1358402              -3.6964
       101                         -0.0664605              -1.8085
       ...                                ...                  ...
       171                          0.5752851              15.6543
      -------------------------------------------------------------
                  HL-Gap            0.0613743 Eh            1.6701 eV

     #   Z          covCN         q      C6AA      α(0)
     1   7 N        1.774    -0.269    27.805     7.808
     2   6 C        2.828     0.103    25.715     8.310
     3   6 C        3.907     0.006    20.423     6.423
     4   6 C        2.975    -0.001    28.056     8.688
     5   6 C        2.923    -0.038    28.948     8.823
     6   6 C        2.917    -0.055    29.357     8.885
     7   8 O        0.856    -0.282    19.468     5.916
     8   6 C        2.702     0.180    24.128     8.040
     9   6 C        2.865     0.148    24.775     8.159
    10   8 O        1.706    -0.243    18.026     5.732
    11   6 C        3.644     0.030    20.413     6.494
    12   6 C        2.915    -0.070    29.735     8.942
    13   6 C        2.924    -0.041    29.016     8.834
    14   6 C        3.812    -0.064    21.722     6.634
    15   6 C        3.802    -0.072    21.875     6.659
    16   6 C        2.845     0.011    27.770     8.636
    17   7 N        2.729     0.016    20.973     6.802
    18   6 C        3.757    -0.017    20.934     6.523
    19   6 C        3.808    -0.070    21.843     6.653
    20   6 C        2.969     0.000    28.021     8.683
    21   6 C        2.922    -0.049    29.211     8.863
    22   6 C        2.914    -0.067    29.677     8.933
    23   6 C        2.865     0.134    25.073     8.208
    24   8 O        1.706    -0.221    17.662     5.674
    25   6 C        3.645     0.025    20.494     6.506
    26   6 C        2.863     0.134    25.077     8.208
    27   8 O        1.706    -0.223    17.706     5.681
    28   6 C        3.645     0.027    20.461     6.501
    29   6 C        2.919    -0.079    29.980     8.979
    30   6 C        3.699    -0.071    22.036     6.713
    31   6 C        3.853    -0.007    20.670     6.466
    32   6 C        3.756    -0.117    22.796     6.808
    33   6 C        3.755    -0.120    22.849     6.816
    34   1 H        0.926     0.050     2.315     2.379
    35   1 H        0.926     0.078     1.999     2.211
    36   1 H        0.923     0.053     2.282     2.362
    37   1 H        0.923     0.050     2.321     2.383
    38   1 H        0.924     0.053     2.288     2.366
    39   1 H        0.925     0.077     2.007     2.216
    40   1 H        0.924     0.046     2.364     2.405
    41   1 H        0.926     0.046     2.374     2.410
    42   1 H        0.926     0.037     2.493     2.469
    43   1 H        0.925     0.065     2.143     2.289
    44   1 H        0.924     0.054     2.272     2.357
    45   1 H        0.925     0.073     2.051     2.240
    46   1 H        0.924     0.083     1.944     2.180
    47   1 H        0.922     0.002     3.019     2.717
    48   1 H        0.926     0.071     2.079     2.255
    49   1 H        0.924     0.069     2.102     2.267
    50   1 H        0.924     0.068     2.107     2.270
    51   1 H        0.924     0.055     2.253     2.347
    52   1 H        0.924     0.057     2.238     2.339
    53   1 H        0.926     0.045     2.381     2.413
    54   1 H        0.926     0.059     2.211     2.325
    55   1 H        0.924     0.055     2.263     2.353
    56   1 H        0.924     0.056     2.241     2.341
    57   1 H        0.925     0.083     1.949     2.183
    58   1 H        0.925     0.082     1.954     2.186
    59   1 H        0.924     0.049     2.327     2.386
    60   1 H        0.924     0.053     2.280     2.361
    61   1 H        0.926     0.048     2.340     2.392
    62   1 H        0.924     0.080     1.976     2.198
    63   1 H        0.924     0.082     1.958     2.188
    64   1 H        0.925     0.081     1.973     2.196
    65   1 H        0.924     0.040     2.451     2.448
    66   1 H        0.925     0.066     2.135     2.285
    67   1 H        0.925     0.036     2.502     2.473
    68   1 H        0.925     0.052     2.301     2.372
    69   1 H        0.925     0.064     2.153     2.295
    70   1 H        0.925     0.036     2.506     2.475
    71   1 H        0.925     0.054     2.265     2.353
    72   1 H        0.860     0.156     1.358     1.825

Wiberg/Mayer (AO) data.
largest (>0.10) Wiberg bond orders for each atom

     #   Z sym  total        # sym  WBO       # sym  WBO       # sym  WBO
 ---------------------------------------------------------------------------
     1   7 N    3.034 --     2 C    1.955    72 H    0.942
     2   6 C    3.934 --     1 N    1.955     3 C    0.993    47 H    0.908
     3   6 C    3.973 --     2 C    0.993     4 C    0.973    14 C    0.955
                            31 C    0.940
     4   6 C    3.945 --    13 C    1.406     5 C    1.368     3 C    0.973
     5   6 C    3.976 --     6 C    1.484     4 C    1.368    34 H    0.963
     6   6 C    3.954 --     5 C    1.484     9 C    1.318    35 H    0.962
     7   8 O    2.070 --     8 C    1.980
     8   6 C    3.859 --     7 O    1.980    37 H    0.939    36 H    0.939
     9   6 C    3.910 --    12 C    1.355     6 C    1.318    10 O    1.096
    10   8 O    2.246 --     9 C    1.096    11 C    0.978
    11   6 C    3.934 --    10 O    0.978    39 H    0.977    38 H    0.974
                            40 H    0.974
    12   6 C    3.959 --    13 C    1.437     9 C    1.355    41 H    0.965
    13   6 C    3.973 --    12 C    1.437     4 C    1.406    42 H    0.963
    14   6 C    3.970 --    15 C    0.978    44 H    0.972    43 H    0.967
                             3 C    0.955
    15   6 C    3.985 --    16 C    1.064    14 C    0.978    45 H    0.959
                            46 H    0.925
    16   6 C    3.603 --    17 N    1.417    15 C    1.064    48 H    0.957
    17   7 N    3.491 --    16 C    1.417    30 C    0.997    18 C    0.988
    18   6 C    3.955 --    17 N    0.988    50 H    0.967    19 C    0.965
                            49 H    0.965
    19   6 C    3.976 --    20 C    1.008    52 H    0.972    51 H    0.971
                            18 C    0.965
    20   6 C    3.943 --    21 C    1.407    29 C    1.381    19 C    1.008
    21   6 C    3.948 --    22 C    1.418    20 C    1.407    53 H    0.968
    22   6 C    3.959 --    21 C    1.418    23 C    1.382    54 H    0.963
    23   6 C    3.893 --    22 C    1.382    26 C    1.218    24 O    1.112
    24   8 O    2.255 --    23 C    1.112    25 C    0.976
    25   6 C    3.928 --    57 H    0.977    24 O    0.976    55 H    0.972
                            56 H    0.972
    26   6 C    3.897 --    29 C    1.394    23 C    1.218    27 O    1.106
    27   8 O    2.255 --    26 C    1.106    28 C    0.978
    28   6 C    3.931 --    27 O    0.978    58 H    0.977    59 H    0.973
                            60 H    0.973
    29   6 C    3.958 --    26 C    1.394    20 C    1.381    61 H    0.962
    30   6 C    3.956 --    17 N    0.997    64 H    0.978    62 H    0.965
                            63 H    0.963
    31   6 C    3.970 --    32 C    1.008    33 C    1.008    65 H    0.960
                             3 C    0.940
    32   6 C    3.978 --    31 C    1.008    67 H    0.981    68 H    0.981
                            66 H    0.974
    33   6 C    3.979 --    31 C    1.008    70 H    0.982    71 H    0.979
                            69 H    0.975
    34   1 H    0.996 --     5 C    0.963
    35   1 H    0.992 --     6 C    0.962
    36   1 H    0.988 --     8 C    0.939
    37   1 H    0.988 --     8 C    0.939
    38   1 H    0.993 --    11 C    0.974
    39   1 H    0.993 --    11 C    0.977
    40   1 H    0.993 --    11 C    0.974
    41   1 H    0.996 --    12 C    0.965
    42   1 H    0.998 --    13 C    0.963
    43   1 H    0.994 --    14 C    0.967
    44   1 H    0.996 --    14 C    0.972
    45   1 H    0.994 --    15 C    0.959
    46   1 H    0.970 --    15 C    0.925
    47   1 H    0.985 --     2 C    0.908
    48   1 H    0.995 --    16 C    0.957
    49   1 H    0.991 --    18 C    0.965
    50   1 H    0.994 --    18 C    0.967
    51   1 H    0.996 --    19 C    0.971
    52   1 H    0.996 --    19 C    0.972
    53   1 H    0.997 --    21 C    0.968
    54   1 H    0.995 --    22 C    0.963
    55   1 H    0.991 --    25 C    0.972
    56   1 H    0.991 --    25 C    0.972
    57   1 H    0.992 --    25 C    0.977
    58   1 H    0.993 --    28 C    0.977
    59   1 H    0.993 --    28 C    0.973
    60   1 H    0.992 --    28 C    0.973
    61   1 H    0.996 --    29 C    0.962
    62   1 H    0.984 --    30 C    0.965
    63   1 H    0.987 --    30 C    0.963
    64   1 H    0.993 --    30 C    0.978
    65   1 H    0.991 --    31 C    0.960
    66   1 H    0.991 --    32 C    0.974
    67   1 H    0.996 --    32 C    0.981
    68   1 H    0.994 --    32 C    0.981
    69   1 H    0.992 --    33 C    0.975
    70   1 H    0.996 --    33 C    0.982
    71   1 H    0.993 --    33 C    0.979
    72   1 H    0.970 --     1 N    0.942
 ---------------------------------------------------------------------------

molecular dipole:
                 x           y           z       tot (Debye)
 q only:        0.641      -0.041      -0.715
   full:        0.717      -0.241      -0.880       2.950

           -------------------------------------------------
          | TOTAL ENERGY              -99.358229805590 Eh   |
          | GRADIENT NORM               0.003022544925 Eh/α |
          | HOMO-LUMO GAP               1.670080574305 eV   |
           -------------------------------------------------

 * finished run on 2024/04/06 at 11:12:18.238
