   * xtb version 6.6.1 (8d0f1dd) compiled by 'conda@1efc2f54142f' on 2023-08-01
          program call               : xtb struc.xyz --opt loose --input .xc1 --gfn2

   ID    Z sym.   atoms
    1    6 C      1, 3, 5-7, 10, 11, 14
    2    7 N      2, 4, 9, 13
    3    8 O      8, 12
    4    1 H      15-25
constraining bond 6 17 to    5.1400000 Å, actual value:    2.5833586 Å

          :  Hamiltonian                  GFN2-xTB          :
 * total energy  :   -30.5768799 Eh     change       -0.6650680E-10 Eh
 * total energy  :   -34.9421851 Eh     change       -0.4365305E+01 Eh
 * total energy  :   -38.2343354 Eh     change       -0.3292150E+01 Eh
 * total energy  :   -40.3236389 Eh     change       -0.2089304E+01 Eh
 * total energy  :   -41.3834618 Eh     change       -0.1059823E+01 Eh
 * total energy  :   -41.6925255 Eh     change       -0.3090637E+00 Eh
 * total energy  :   -41.7506532 Eh     change       -0.5812768E-01 Eh
 * total energy  :   -41.7834798 Eh     change       -0.3282660E-01 Eh
 * total energy  :   -41.8438349 Eh     change       -0.6035509E-01 Eh
 * total energy  :   -41.8842295 Eh     change       -0.4039462E-01 Eh
 * total energy  :   -42.1074361 Eh     change       -0.9225365E-03 Eh
 * total energy  :   -42.1077934 Eh     change       -0.3572899E-03 Eh
 * total energy  :   -42.1080812 Eh     change       -0.2878866E-03 Eh
 * total energy  :   -42.1082491 Eh     change       -0.1678409E-03 Eh
 * total energy  :   -42.1084135 Eh     change       -0.1644259E-03 Eh
 * total energy  :   -42.1085095 Eh     change       -0.9601437E-04 Eh
 * total energy  :   -42.1085738 Eh     change       -0.6430490E-04 Eh
 * total energy  :   -42.1086028 Eh     change       -0.2898478E-04 Eh
 * total energy  :   -42.1086296 Eh     change       -0.2680614E-04 Eh
   *** GEOMETRY OPTIMIZATION CONVERGED AFTER 41 ITERATIONS ***

 final structure:
================
25
 xtb: 6.6.1 (8d0f1dd)
C            3.17746014269010        0.84741170579389        0.05959765496491
N            2.26993664981473       -0.12095223742530        0.03545268124922
C            2.48466024524225       -1.45596881088554        0.01754877377787
N            1.29322728631277       -2.11571174101313       -0.00343821094355
C            0.29674344944218       -1.19123145113631       -0.00073110444718
C            0.88847298901993        0.06021137785896        0.02541206008439
C            0.10920275483882        1.27632289204346        0.03975861086394
O            0.55109385985043        2.40075169266153        0.05551717870265
N           -1.25949585839778        0.99718487453691        0.03485649168832
C           -2.17330390321050        2.12938965336016        0.07278570643636
C           -1.87454138119063       -0.24105710684700        0.00604861272415
O           -3.06689686852234       -0.36698712430522        0.00071851449300
N           -1.03326934773307       -1.37558780516028       -0.01639151707788
C           -1.63168844815460       -2.69573281291101       -0.04465193919317
H            2.83686365099074        1.86776852314608        0.07131665059190
H            4.21967119363562        0.59184503839492        0.05388553583721
H            4.03685967260603        4.09425815800955       -0.46619115895823
H            3.44421845438867       -1.92830233190563        0.02630720237906
H           -1.58095904588056        3.04062324005225        0.10731147212540
H           -2.80877548414777        2.12432688220205       -0.81302679416008
H           -2.81289088255463        2.05819879010218        0.95180913396926
H           -1.32671043430174       -3.27170465847268        0.82960338446733
H           -1.35337849596325       -3.22229064742496       -0.95839106903629
H           -2.71331242235346       -2.56549872853403       -0.02578683502255
H            1.18724373767807       -3.11902883054069       -0.02814941761583

          :  Hamiltonian                  GFN2-xTB          :
         :: total energy             -42.108629622141 Eh    ::
         :: gradient norm              0.003022040298 Eh/a0 ::
         :: HOMO-LUMO gap              0.273640706833 eV    ::
         :: SCC energy               -42.632143751752 Eh    ::
         :: -> dispersion             -0.022730779165 Eh    ::
         :: repulsion energy           0.523423494016 Eh    ::

    * Orbital Energies and Occupations

         #    Occupation            Energy/Eh            Energy/eV
      -------------------------------------------------------------
         1        2.0000           -0.9085584             -24.7231
       ...           ...                  ...                  ...
        25        1.9999           -0.6665070             -18.1366
        26        1.9999           -0.6659819             -18.1223
        27        1.9999           -0.6571004             -17.8806
        28        1.9996           -0.6354864             -17.2925
        29        1.9994           -0.6309590             -17.1693
        30        1.9992           -0.6256154             -17.0239
        31        1.9987           -0.6173880             -16.8000
        32        1.9958           -0.5991738             -16.3043
        33        1.9855           -0.5795518             -15.7704
        34        1.9589           -0.5628109             -15.3149
        35        1.9536           -0.5608436             -15.2613
        36        1.9470           -0.5586821             -15.2025
        37        1.2332           -0.5091556             -13.8548 (HOMO)
        38        0.9202           -0.4990995             -13.5812 (LUMO)
        39        0.0058           -0.4091228             -11.1328
        40        0.0032           -0.3995249             -10.8716
        41        0.0004           -0.3664579              -9.9718
        42        0.0000           -0.2847497              -7.7484
        43                         -0.2052191              -5.5843
        44                         -0.1838548              -5.0029
        45                         -0.1427545              -3.8845
        46                         -0.1135790              -3.0906
        47                         -0.0798064              -2.1716
        48                         -0.0474979              -1.2925
       ...                                ...                  ...
        67                          0.5554963              15.1158
      -------------------------------------------------------------
                  HL-Gap            0.0100561 Eh            0.2736 eV

     #   Z          covCN         q      C6AA      α(0)
     1   6 C        2.790    -0.071    29.755     8.935
     2   7 N        2.810     0.130    19.028     6.479
     3   6 C        3.039     0.025    27.418     8.588
     4   7 N        2.780    -0.059    22.387     7.027
     5   6 C        3.024     0.119    25.354     8.259
     6   6 C        3.109    -0.039    28.814     8.794
     7   6 C        2.764     0.275    22.354     7.743
     8   8 O        0.858    -0.362    20.943     6.136
     9   7 N        2.746    -0.082    22.833     7.097
    10   6 C        3.710    -0.062    21.830     6.677
    11   6 C        2.728     0.318    21.594     7.608
    12   8 O        0.860    -0.351    20.730     6.104
    13   7 N        2.738    -0.054    22.286     7.011
    14   6 C        3.696    -0.072    22.065     6.719
    15   1 H        0.926     0.135     1.499     1.915
    16   1 H        0.926     0.107     1.721     2.052
    17   1 H        0.000     0.078     4.974     4.078
    18   1 H        0.927     0.121     1.608     1.983
    19   1 H        0.925     0.115     1.654     2.011
    20   1 H        0.925     0.102     1.763     2.077
    21   1 H        0.925     0.102     1.766     2.078
    22   1 H        0.924     0.085     1.933     2.174
    23   1 H        0.924     0.086     1.923     2.169
    24   1 H        0.925     0.129     1.546     1.944
    25   1 H        0.860     0.227     0.977     1.548

Wiberg/Mayer (AO) data.
largest (>0.10) Wiberg bond orders for each atom

     #   Z sym  total        # sym  WBO       # sym  WBO       # sym  WBO
 ---------------------------------------------------------------------------
     1   6 C    3.400 --     2 N    1.333    16 H    0.967    15 H    0.954
     2   7 N    3.766 --     1 C    1.333     3 C    1.247     6 C    1.088
     3   6 C    3.640 --     2 N    1.247     4 N    1.237    18 H    0.955
     4   7 N    3.526 --     3 C    1.237     5 C    1.196    25 H    0.920
     5   6 C    3.938 --     6 C    1.349    13 N    1.217     4 N    1.196
     6   6 C    3.847 --     5 C    1.349     2 N    1.088     7 C    1.086
     7   6 C    3.959 --     8 O    1.683     9 N    1.094     6 C    1.086
     8   8 O    2.019 --     7 C    1.683     9 N    0.139
     9   7 N    3.533 --    11 C    1.125     7 C    1.094    10 C    0.972
                             8 O    0.139    12 O    0.134
    10   6 C    3.901 --     9 N    0.972    19 H    0.966    21 H    0.959
                            20 H    0.958
    11   6 C    3.958 --    12 O    1.706     9 N    1.125    13 N    1.036
    12   8 O    2.046 --    11 C    1.706     9 N    0.134    13 N    0.118
    13   7 N    3.532 --     5 C    1.217    11 C    1.036    14 C    0.975
                            12 O    0.118
    14   6 C    3.920 --    13 N    0.975    22 H    0.969    23 H    0.968
                            24 H    0.963
    15   1 H    0.981 --     1 C    0.954
    16   1 H    0.987 --     1 C    0.967
    17   1 H    0.004
    18   1 H    0.984 --     3 C    0.955
    19   1 H    0.984 --    10 C    0.966
    20   1 H    0.978 --    10 C    0.958
    21   1 H    0.978 --    10 C    0.959
    22   1 H    0.987 --    14 C    0.969
    23   1 H    0.986 --    14 C    0.968
    24   1 H    0.983 --    14 C    0.963
    25   1 H    0.948 --     4 N    0.920
 ---------------------------------------------------------------------------

molecular dipole:
                 x           y           z       tot (Debye)
 q only:        2.418      -1.799      -0.045
   full:        2.680      -2.278      -0.054       8.942

           -------------------------------------------------
          | TOTAL ENERGY              -42.108629622141 Eh   |
          | GRADIENT NORM               0.003022040298 Eh/α |
          | HOMO-LUMO GAP               0.273640706833 eV   |
           -------------------------------------------------

 * finished run on 2024/06/05 at 19:57:56.498
