   * xtb version 6.6.1 (8d0f1dd) compiled by 'conda@1efc2f54142f' on 2023-08-01
          program call               : xtb struc.xyz --opt loose --input .xc1 --gfn2

   ID    Z sym.   atoms
    1    6 C      1, 3, 5-7, 10, 11, 14
    2    7 N      2, 4, 9, 13
    3    8 O      8, 12
    4    1 H      15-25
constraining bond 3 6 to    5.0000000 Å, actual value:    2.1783507 Å

          :  Hamiltonian                  GFN2-xTB          :
 * total energy  :   -28.0294037 Eh     change       -0.6633627E-10 Eh
 * total energy  :   -32.7555481 Eh     change       -0.4726144E+01 Eh
 * total energy  :   -36.0368679 Eh     change       -0.3281320E+01 Eh
 * total energy  :   -38.3488033 Eh     change       -0.2311935E+01 Eh
 * total energy  :   -40.2301177 Eh     change       -0.1881314E+01 Eh
 * total energy  :   -41.1441950 Eh     change       -0.9140774E+00 Eh
 * total energy  :   -41.3688417 Eh     change       -0.2246466E+00 Eh
 * total energy  :   -41.4509491 Eh     change       -0.8210736E-01 Eh
 * total energy  :   -41.4977363 Eh     change       -0.4678721E-01 Eh
 * total energy  :   -41.5453634 Eh     change       -0.4762715E-01 Eh
 * total energy  :   -41.9376913 Eh     change       -0.3299584E-04 Eh
 * total energy  :   -41.9377466 Eh     change       -0.5527808E-04 Eh
 * total energy  :   -41.9378007 Eh     change       -0.5417965E-04 Eh
 * total energy  :   -41.9378837 Eh     change       -0.8294691E-04 Eh
 * total energy  :   -41.9379668 Eh     change       -0.8309585E-04 Eh
 * total energy  :   -41.9380236 Eh     change       -0.5683070E-04 Eh
 * total energy  :   -41.9380350 Eh     change       -0.1142398E-04 Eh
 * total energy  :   -41.9380817 Eh     change       -0.4667408E-04 Eh
 * total energy  :   -41.9381136 Eh     change       -0.3186811E-04 Eh
   *** GEOMETRY OPTIMIZATION CONVERGED AFTER 61 ITERATIONS ***

 final structure:
================
25
 xtb: 6.6.1 (8d0f1dd)
C            3.23037818852821        0.92754094057878        0.02878512511534
N            1.81975238670289        0.68488036874572        0.01102159997052
C            3.16809939554801       -2.61883518287791       -0.02935076255680
N            1.30409779751777       -0.58588079061465        0.02089390834591
C           -0.02084727762804       -0.48231279581060        0.00981536428106
C           -0.40350783033636        0.87856465889929       -0.00432685324353
C            0.82747104892991        1.67015977654470       -0.00241119980379
O            1.02804906168031        2.85858600559462       -0.00912991834039
N           -1.73991936936166        0.94616709468496       -0.01215404221281
C           -2.57736652296698        2.10653506993466       -0.03185434153635
C           -2.24119312697732       -0.38236099475930       -0.00235397944607
O           -3.39133680575354       -0.69771780416429       -0.00447380970155
N           -1.13161344925980       -1.24728006426122        0.01077461669456
C           -1.25677265208526       -2.68367442021923        0.02722235042330
H            3.68796527335862        0.50281540360364        0.92436743293828
H            3.71044020507676        0.50732131588625       -0.85736399650119
H            3.36926975317946        2.00787965800789        0.03303405848021
H            4.10746308583854       -3.19590878924379       -0.07091318555397
H           -1.95544524433081        2.99910397435983       -0.01430469075654
H           -3.20003951864051        2.09852182413881       -0.92951545992381
H           -3.24691959608105        2.09348129895924        0.83103319767230
H           -0.79554352979142       -3.09718293643570        0.92431316963332
H           -0.78892706740851       -3.11844684852382       -0.85628062166355
H           -2.32027391654458       -2.91961417632598        0.02602915109362
H            1.97715122490211       -1.43410404510419        0.00831450449061

          :  Hamiltonian                  GFN2-xTB          :
         :: total energy             -41.938113584178 Eh    ::
         :: gradient norm              0.003452272945 Eh/a0 ::
         :: HOMO-LUMO gap              0.183004800535 eV    ::
         :: SCC energy               -42.415802981714 Eh    ::
         :: -> dispersion             -0.021386771345 Eh    ::
         :: repulsion energy           0.477618959054 Eh    ::

    * Orbital Energies and Occupations

         #    Occupation            Energy/Eh            Energy/eV
      -------------------------------------------------------------
         1        2.0000           -0.9107112             -24.7817
       ...           ...                  ...                  ...
        25        2.0000           -0.6753929             -18.3784
        26        2.0000           -0.6690912             -18.2069
        27        2.0000           -0.6540596             -17.7979
        28        2.0000           -0.6341701             -17.2566
        29        2.0000           -0.6327108             -17.2169
        30        2.0000           -0.6296795             -17.1345
        31        2.0000           -0.6224590             -16.9380
        32        1.9998           -0.6015379             -16.3687
        33        1.9997           -0.5990370             -16.3006
        34        1.9993           -0.5934162             -16.1477
        35        1.9934           -0.5750993             -15.6492
        36        1.8968           -0.5529006             -15.0452
        37        0.9848           -0.5296149             -14.4116 (HOMO)
        38        0.5864           -0.5228896             -14.2285 (LUMO)
        39        0.5399           -0.5219800             -14.2038
        40        0.0000           -0.3971803             -10.8078
        41                         -0.3604522              -9.8084
        42                         -0.3250155              -8.8441
        43                         -0.2482425              -6.7550
        44                         -0.2039717              -5.5504
        45                         -0.1773519              -4.8260
        46                         -0.1308637              -3.5610
        47                         -0.1050502              -2.8586
        48                         -0.0520229              -1.4156
       ...                                ...                  ...
        67                          0.5729834              15.5917
      -------------------------------------------------------------
                  HL-Gap            0.0067253 Eh            0.1830 eV

     #   Z          covCN         q      C6AA      α(0)
     1   6 C        3.687    -0.082    22.279     6.756
     2   7 N        2.945     0.015    20.995     6.805
     3   6 C        0.950    -0.166    41.174    10.761
     4   7 N        2.812    -0.051    22.229     7.002
     5   6 C        3.112     0.104    25.567     8.283
     6   6 C        3.130     0.006    27.677     8.613
     7   6 C        2.817     0.256    22.700     7.806
     8   8 O        0.857    -0.321    20.158     6.020
     9   7 N        2.796     0.011    21.063     6.816
    10   6 C        3.689    -0.072    22.071     6.724
    11   6 C        2.907     0.309    21.770     7.651
    12   8 O        0.857    -0.311    19.991     5.995
    13   7 N        2.790    -0.043    22.065     6.977
    14   6 C        3.688    -0.072    22.078     6.726
    15   1 H        0.924     0.097     1.814     2.106
    16   1 H        0.924     0.097     1.816     2.108
    17   1 H        0.925     0.130     1.538     1.939
    18   1 H        0.923     0.158     1.341     1.811
    19   1 H        0.925     0.116     1.645     2.006
    20   1 H        0.924     0.122     1.601     1.979
    21   1 H        0.924     0.122     1.599     1.978
    22   1 H        0.925     0.094     1.841     2.122
    23   1 H        0.925     0.094     1.842     2.122
    24   1 H        0.925     0.120     1.615     1.987
    25   1 H        0.879     0.271     0.806     1.405

Wiberg/Mayer (AO) data.
largest (>0.10) Wiberg bond orders for each atom

     #   Z sym  total        # sym  WBO       # sym  WBO       # sym  WBO
 ---------------------------------------------------------------------------
     1   6 C    3.920 --     2 N    0.997    17 H    0.960    15 H    0.960
                            16 H    0.959
     2   7 N    3.458 --     7 C    1.099     4 N    1.076     1 C    0.997
                             8 O    0.133
     3   6 C    1.205 --    18 H    0.953    25 H    0.168
     4   7 N    3.400 --     5 C    1.313     2 N    1.076    25 H    0.728
     5   6 C    3.909 --     4 N    1.313    13 N    1.208     6 C    1.196
     6   6 C    3.747 --     9 N    1.285     5 C    1.196     7 C    1.043
     7   6 C    3.920 --     8 O    1.686     2 N    1.099     6 C    1.043
     8   8 O    1.930 --     7 C    1.686     2 N    0.133
     9   7 N    3.503 --     6 C    1.285    11 C    1.025    10 C    1.000
    10   6 C    3.906 --     9 N    1.000    19 H    0.972    21 H    0.942
                            20 H    0.940
    11   6 C    3.924 --    12 O    1.736    13 N    1.067     9 N    1.025
    12   8 O    2.007 --    11 C    1.736    13 N    0.124
    13   7 N    3.549 --     5 C    1.208    11 C    1.067    14 C    0.979
                            12 O    0.124
    14   6 C    3.921 --    13 N    0.979    24 H    0.968    23 H    0.966
                            22 H    0.966
    15   1 H    0.980 --     1 C    0.960
    16   1 H    0.980 --     1 C    0.959
    17   1 H    0.982 --     1 C    0.960
    18   1 H    0.973 --     3 C    0.953
    19   1 H    0.986 --    10 C    0.972
    20   1 H    0.965 --    10 C    0.940
    21   1 H    0.966 --    10 C    0.942
    22   1 H    0.986 --    14 C    0.966
    23   1 H    0.986 --    14 C    0.966
    24   1 H    0.985 --    14 C    0.968
    25   1 H    0.926 --     4 N    0.728     3 C    0.168
 ---------------------------------------------------------------------------

molecular dipole:
                 x           y           z       tot (Debye)
 q only:        1.151      -1.017       0.007
   full:        1.619      -1.443      -0.008       5.512

           -------------------------------------------------
          | TOTAL ENERGY              -41.938113584178 Eh   |
          | GRADIENT NORM               0.003452272945 Eh/α |
          | HOMO-LUMO GAP               0.183004800535 eV   |
           -------------------------------------------------

 * finished run on 2024/06/05 at 19:57:56.126
