   * xtb version 6.6.1 (8d0f1dd) compiled by 'conda@1efc2f54142f' on 2023-08-01
          program call               : xtb xtbopt.xyz --opt crude --input .xc2 --gfn2

   ID    Z sym.   atoms
    1    7 N      1, 17
    2    6 C      2-6, 8, 9, 11-16, 18-23, 25, 26, 28-33
    3    8 O      7, 10, 24, 27
    4    1 H      34-72
########################################################################
[WARNING] Please study the warnings concerning your input carefully
-1- readin_getIntValue: could not parse ''
########################################################################

          :  Hamiltonian                  GFN2-xTB          :
 * total energy  :   -99.1987500 Eh     change       -0.7811707E-10 Eh
   *** GEOMETRY OPTIMIZATION CONVERGED AFTER 1 ITERATIONS ***

 final structure:
================
72
 xtb: 6.6.1 (8d0f1dd)
N           -1.94916444388232        2.91182308603837        1.97526263356746
C           -2.12500570350750        2.00572931678971        1.12928964437080
C           -3.05919816050694        2.11986688739258       -0.04043368874353
C           -3.98664026651519        0.89641917145113       -0.05889005814628
C           -4.70365443268180        0.61716224486946       -1.11418009449753
C           -5.09336499784266       -3.18273569200288        0.08962630188958
O           -6.17844245448799       -3.57875197019938        0.68278787050936
C           -7.27168500698711       -2.68197226677110        0.86091050618569
C           -4.28429006522340       -2.12475051323634        0.13189662393097
O           -3.28928309244776       -1.93743066426191       -0.79267777020739
C           -3.41992822784995       -2.71491511370345       -1.96525149665598
C           -4.26299803147806       -1.19925575010421        1.27728152472303
C           -4.08276510349363        0.12293755177802        1.19001024343055
C           -2.21179593168901        2.07841739098399       -1.33416163181905
C           -1.40807365855765        0.78658952433685       -1.51126746439648
C           -0.15497477935861        0.77375683644435       -0.72893649421567
N            0.51262041428074       -0.31654652049725       -0.38382172996279
C            1.86913666793532       -0.21946795416116        0.10419101466835
C            2.88123489353474       -0.41574828764052       -1.04227936016224
C            4.28762716007371       -0.19703731074518       -0.56035727290557
C            4.84920124409710        1.06930255403952       -0.57800530691813
C            6.14923110657004        1.27576951037234       -0.14371063046912
C            6.91478361886610        0.21696998014178        0.32314464760485
O            8.18793307572387        0.29784087519295        0.75241546336791
C            8.85055898881438        1.54051545588287        0.70701472011051
C            6.34160171499932       -1.08412172903252        0.36004763908148
O            7.15205851472271       -2.05378720316268        0.82981723665933
C            6.68661233962262       -3.38121374992036        0.87375599000374
C            5.03978251446919       -1.26607869519524       -0.07932775699241
C            0.02287082700390       -1.63540305872726       -0.70135933907150
C           -3.94762131148771        3.39587748345535       -0.03816502516049
C           -4.86724267341793        3.43737415182929        1.18081130379746
C           -3.15183732630488        4.69552433314635       -0.11807301395309
H           -5.45474495160840       -0.08161493013567       -1.39779390441419
H           -6.92566385157160       -1.71263574060516        1.22703599472966
H           -7.93858397060682       -3.14852633511042        1.58352779549357
H           -7.80290599677748       -2.54614063260243       -0.08451647152729
H           -3.53624288695202       -3.77026089601124       -1.70060450785562
H           -4.28744433340613       -2.39994273940486       -2.54950279388251
H           -2.51133104717459       -2.56766967862477       -2.54579780926283
H           -4.42816764577729       -1.65730176056051        2.24299854245201
H           -4.04504106912041        0.70820384454672        2.09984239082971
H           -2.90690378967351        2.17235413636165       -2.16961930707944
H           -1.53338851465603        2.93101272932802       -1.35096010162696
H           -2.04003391756585       -0.07290238779106       -1.27990980644039
H           -1.13948813782638        0.69968476315569       -2.57346138460184
H           -1.59601807160192        1.03746528541871        1.15647612471140
H            0.31199790475085        1.71840376502831       -0.49234502120721
H            2.03208034502375       -0.97849798140023        0.87265819696242
H            2.02337787207049        0.76367428601983        0.55261437167193
H            2.64946679627527        0.30036827680037       -1.83323854061263
H            2.77964799948029       -1.42336354869070       -1.44716605934471
H            4.28009586114508        1.90844539444093       -0.94850333394654
H            6.56211382557486        2.27041167113479       -0.18093219030075
H            8.36599486579068        2.27742605474903        1.35473774433530
H            8.90246047745290        1.92915350952767       -0.31450787419519
H            9.85777649076213        1.34766842604551        1.07122716346600
H            7.51529678860091       -3.96816361807205        1.26505454429679
H            5.82517508676658       -3.48314727135177        1.54167914889576
H            6.42323454425056       -3.74783770830165       -0.12334855784272
H            4.60160194254950       -2.25184355300475       -0.06782195266311
H            0.10042185861295       -1.83496477735878       -1.77300938757237
H           -1.02292618767128       -1.73516436444124       -0.40888190225170
H            0.60847954248896       -2.37763707671452       -0.16435999063915
H           -4.57794911012267        3.31777460769701       -0.93289952687596
H           -4.27936906807569        3.50080861019026        2.09208628696405
H           -5.50683168879777        2.55872168179313        1.22217316841257
H           -5.50638888495227        4.31450862598516        1.12551284944008
H           -2.46346246313452        4.76561004361379        0.71861441167264
H           -2.59954109816391        4.77849395613623       -1.05013604796566
H           -3.83912956442036        5.53645833201696       -0.06817541996584
H           -1.28843776838984        2.73244664774041        2.72515277088401

          :  Hamiltonian                  GFN2-xTB          :
         :: total energy             -99.198749954569 Eh    ::
         :: gradient norm              0.003742345800 Eh/a0 ::
         :: HOMO-LUMO gap              0.184072558101 eV    ::
         :: SCC energy              -100.577064456636 Eh    ::
         :: -> dispersion             -0.074895643276 Eh    ::
         :: repulsion energy           1.377160507117 Eh    ::

    * Orbital Energies and Occupations

         #    Occupation            Energy/Eh            Energy/eV
      -------------------------------------------------------------
         1        2.0000           -0.8243886             -22.4328
       ...           ...                  ...                  ...
        78        1.9985           -0.5272087             -14.3461
        79        1.9983           -0.5255300             -14.3004
        80        1.9983           -0.5253762             -14.2962
        81        1.9972           -0.5172240             -14.0744
        82        1.9963           -0.5127938             -13.9538
        83        1.9948           -0.5075260             -13.8105
        84        1.9948           -0.5074289             -13.8078
        85        1.9812           -0.4870531             -13.2534
        86        1.9794           -0.4855714             -13.2131
        87        1.9421           -0.4689086             -12.7597
        88        1.9235           -0.4643483             -12.6356
        89        1.8504           -0.4531128             -12.3298
        90        1.0629           -0.4152778             -11.3003 (HOMO)
        91        0.8505           -0.4085133             -11.1162 (LUMO)
        92        0.3869           -0.3906770             -10.6309
        93        0.0346           -0.3493239              -9.5056
        94        0.0115           -0.3316579              -9.0249
        95        0.0028           -0.3094689              -8.4211
        96        0.0024           -0.3071354              -8.3576
        97        0.0005           -0.2826240              -7.6906
        98        0.0000           -0.2418877              -6.5821
        99        0.0000           -0.1844657              -5.0196
       100                         -0.1297301              -3.5301
       101                         -0.0824704              -2.2441
       ...                                ...                  ...
       171                          0.6491159              17.6633
      -------------------------------------------------------------
                  HL-Gap            0.0067645 Eh            0.1841 eV

     #   Z          covCN         q      C6AA      α(0)
     1   7 N        1.774    -0.281    28.092     7.849
     2   6 C        2.824     0.103    25.717     8.310
     3   6 C        3.911     0.010    20.347     6.411
     4   6 C        2.952     0.024    27.458     8.595
     5   6 C        1.924    -0.115    34.295     9.457
     6   6 C        1.870     0.022    30.577     8.931
     7   8 O        1.703    -0.164    16.772     5.529
     8   6 C        3.648     0.016    20.632     6.526
     9   6 C        2.850     0.119    25.387     8.258
    10   8 O        1.704    -0.273    18.535     5.813
    11   6 C        3.656     0.024    20.463     6.493
    12   6 C        2.896    -0.050    29.252     8.868
    13   6 C        2.900    -0.028    28.695     8.783
    14   6 C        3.813    -0.066    21.748     6.638
    15   6 C        3.803    -0.074    21.916     6.665
    16   6 C        2.847     0.010    27.797     8.641
    17   7 N        2.729     0.016    20.974     6.802
    18   6 C        3.756    -0.018    20.945     6.525
    19   6 C        3.808    -0.070    21.832     6.651
    20   6 C        2.968    -0.001    28.043     8.686
    21   6 C        2.922    -0.049    29.215     8.864
    22   6 C        2.914    -0.068    29.684     8.934
    23   6 C        2.865     0.133    25.084     8.210
    24   8 O        1.706    -0.223    17.695     5.679
    25   6 C        3.645     0.025    20.483     6.504
    26   6 C        2.863     0.133    25.093     8.211
    27   8 O        1.706    -0.225    17.740     5.687
    28   6 C        3.645     0.027    20.449     6.500
    29   6 C        2.919    -0.079    29.985     8.980
    30   6 C        3.702    -0.076    22.114     6.724
    31   6 C        3.853    -0.008    20.686     6.469
    32   6 C        3.756    -0.113    22.717     6.796
    33   6 C        3.755    -0.120    22.851     6.816
    34   1 H        0.927     0.055     2.254     2.348
    35   1 H        0.924     0.058     2.228     2.334
    36   1 H        0.925     0.088     1.895     2.152
    37   1 H        0.924     0.071     2.076     2.253
    38   1 H        0.924     0.061     2.186     2.312
    39   1 H        0.924     0.055     2.264     2.353
    40   1 H        0.925     0.064     2.152     2.294
    41   1 H        0.925     0.055     2.259     2.350
    42   1 H        0.925     0.059     2.205     2.322
    43   1 H        0.924     0.068     2.109     2.271
    44   1 H        0.925     0.055     2.263     2.352
    45   1 H        0.924     0.093     1.853     2.129
    46   1 H        0.923     0.080     1.981     2.201
    47   1 H        0.923     0.001     3.037     2.725
    48   1 H        0.926     0.070     2.083     2.257
    49   1 H        0.924     0.069     2.099     2.266
    50   1 H        0.924     0.069     2.101     2.267
    51   1 H        0.924     0.053     2.278     2.360
    52   1 H        0.924     0.055     2.256     2.349
    53   1 H        0.926     0.044     2.390     2.418
    54   1 H        0.926     0.058     2.222     2.331
    55   1 H        0.924     0.054     2.269     2.356
    56   1 H        0.924     0.055     2.257     2.349
    57   1 H        0.925     0.082     1.960     2.189
    58   1 H        0.925     0.081     1.965     2.192
    59   1 H        0.924     0.049     2.335     2.389
    60   1 H        0.924     0.052     2.298     2.371
    61   1 H        0.926     0.047     2.355     2.400
    62   1 H        0.924     0.073     2.050     2.239
    63   1 H        0.924     0.097     1.814     2.106
    64   1 H        0.925     0.079     1.991     2.207
    65   1 H        0.924     0.043     2.413     2.429
    66   1 H        0.925     0.058     2.221     2.330
    67   1 H        0.925     0.032     2.556     2.500
    68   1 H        0.925     0.050     2.320     2.382
    69   1 H        0.925     0.066     2.125     2.280
    70   1 H        0.925     0.035     2.521     2.483
    71   1 H        0.925     0.053     2.284     2.363
    72   1 H        0.860     0.151     1.396     1.851

Wiberg/Mayer (AO) data.
largest (>0.10) Wiberg bond orders for each atom

     #   Z sym  total        # sym  WBO       # sym  WBO       # sym  WBO
 ---------------------------------------------------------------------------
     1   7 N    3.011 --     2 C    1.939    72 H    0.945
     2   6 C    3.934 --     1 N    1.939     3 C    1.001    47 H    0.920
     3   6 C    3.940 --     2 C    1.001    14 C    0.954    31 C    0.949
                             4 C    0.926
     4   6 C    3.945 --     5 C    1.911    13 C    1.018     3 C    0.926
     5   6 C    3.050 --     4 C    1.911    34 H    0.954
     6   6 C    3.132 --     9 C    1.639     7 O    1.254
     7   8 O    2.277 --     6 C    1.254     8 C    0.932
     8   6 C    3.904 --    36 H    0.975    35 H    0.975    37 H    0.970
                             7 O    0.932
     9   6 C    3.817 --     6 C    1.639    10 O    1.037    12 C    1.019
    10   8 O    2.187 --     9 C    1.037    11 C    0.977
    11   6 C    3.928 --    40 H    0.979    10 O    0.977    39 H    0.976
                            38 H    0.967
    12   6 C    3.895 --    13 C    1.777     9 C    1.019    41 H    0.956
    13   6 C    3.865 --    12 C    1.777     4 C    1.018    42 H    0.942
    14   6 C    3.980 --    15 C    0.998    44 H    0.969    43 H    0.966
                             3 C    0.954
    15   6 C    3.982 --    16 C    1.065    14 C    0.998    45 H    0.937
                            46 H    0.919
    16   6 C    3.594 --    17 N    1.422    15 C    1.065    48 H    0.957
    17   7 N    3.490 --    16 C    1.422    30 C    0.999    18 C    0.987
    18   6 C    3.954 --    17 N    0.987    50 H    0.968    19 C    0.965
                            49 H    0.965
    19   6 C    3.977 --    20 C    1.008    52 H    0.972    51 H    0.972
                            18 C    0.965
    20   6 C    3.946 --    21 C    1.410    29 C    1.380    19 C    1.008
    21   6 C    3.951 --    22 C    1.417    20 C    1.410    53 H    0.968
    22   6 C    3.960 --    21 C    1.417    23 C    1.384    54 H    0.963
    23   6 C    3.896 --    22 C    1.384    26 C    1.221    24 O    1.109
    24   8 O    2.255 --    23 C    1.109    25 C    0.976
    25   6 C    3.929 --    57 H    0.977    24 O    0.976    56 H    0.973
                            55 H    0.973
    26   6 C    3.900 --    29 C    1.396    23 C    1.221    27 O    1.103
    27   8 O    2.254 --    26 C    1.103    28 C    0.979
    28   6 C    3.932 --    27 O    0.979    58 H    0.977    59 H    0.973
                            60 H    0.973
    29   6 C    3.959 --    26 C    1.396    20 C    1.380    61 H    0.962
    30   6 C    3.953 --    17 N    0.999    64 H    0.978    62 H    0.964
                            63 H    0.957
    31   6 C    3.974 --    32 C    1.008    33 C    1.008    65 H    0.960
                             3 C    0.949
    32   6 C    3.984 --    31 C    1.008    67 H    0.983    68 H    0.982
                            66 H    0.978
    33   6 C    3.979 --    31 C    1.008    70 H    0.982    71 H    0.980
                            69 H    0.974
    34   1 H    0.976 --     5 C    0.954
    35   1 H    0.991 --     8 C    0.975
    36   1 H    0.988 --     8 C    0.975
    37   1 H    0.984 --     8 C    0.970
    38   1 H    0.994 --    11 C    0.967
    39   1 H    0.994 --    11 C    0.976
    40   1 H    0.995 --    11 C    0.979
    41   1 H    0.990 --    12 C    0.956
    42   1 H    0.981 --    13 C    0.942
    43   1 H    0.994 --    14 C    0.966
    44   1 H    0.995 --    14 C    0.969
    45   1 H    0.984 --    15 C    0.937
    46   1 H    0.967 --    15 C    0.919
    47   1 H    0.985 --     2 C    0.920
    48   1 H    0.995 --    16 C    0.957
    49   1 H    0.992 --    18 C    0.965
    50   1 H    0.994 --    18 C    0.968
    51   1 H    0.996 --    19 C    0.972
    52   1 H    0.996 --    19 C    0.972
    53   1 H    0.997 --    21 C    0.968
    54   1 H    0.995 --    22 C    0.963
    55   1 H    0.992 --    25 C    0.973
    56   1 H    0.992 --    25 C    0.973
    57   1 H    0.993 --    25 C    0.977
    58   1 H    0.993 --    28 C    0.977
    59   1 H    0.993 --    28 C    0.973
    60   1 H    0.993 --    28 C    0.973
    61   1 H    0.997 --    29 C    0.962
    62   1 H    0.984 --    30 C    0.964
    63   1 H    0.986 --    30 C    0.957
    64   1 H    0.993 --    30 C    0.978
    65   1 H    0.992 --    31 C    0.960
    66   1 H    0.993 --    32 C    0.978
    67   1 H    0.997 --    32 C    0.983
    68   1 H    0.995 --    32 C    0.982
    69   1 H    0.991 --    33 C    0.974
    70   1 H    0.997 --    33 C    0.982
    71   1 H    0.994 --    33 C    0.980
    72   1 H    0.972 --     1 N    0.945
 ---------------------------------------------------------------------------

molecular dipole:
                 x           y           z       tot (Debye)
 q only:       -0.040      -0.661      -0.607
   full:       -0.177      -0.998      -0.520       2.897

           -------------------------------------------------
          | TOTAL ENERGY              -99.198749954569 Eh   |
          | GRADIENT NORM               0.003742345800 Eh/α |
          | HOMO-LUMO GAP               0.184072558101 eV   |
           -------------------------------------------------

 * finished run on 2024/04/06 at 11:12:36.121
