   * xtb version 6.6.1 (8d0f1dd) compiled by 'conda@1efc2f54142f' on 2023-08-01
          program call               : xtb struc.xyz --opt loose --input .xc1 --gfn2

   ID    Z sym.   atoms
    1    6 C      1, 3, 5-7, 10, 11, 14
    2    7 N      2, 4, 9, 13
    3    8 O      8, 12
    4    1 H      15-25
constraining bond 1 4 to    5.9200000 Å, actual value:    3.5856227 Å

          :  Hamiltonian                  GFN2-xTB          :
 * total energy  :   -32.5179279 Eh     change       -0.6650680E-10 Eh
 * total energy  :   -36.4212392 Eh     change       -0.3903311E+01 Eh
 * total energy  :   -39.2279103 Eh     change       -0.2806671E+01 Eh
 * total energy  :   -40.9979760 Eh     change       -0.1770066E+01 Eh
 * total energy  :   -41.6716904 Eh     change       -0.6737144E+00 Eh
 * total energy  :   -41.7681249 Eh     change       -0.9643445E-01 Eh
 * total energy  :   -41.7981600 Eh     change       -0.3003511E-01 Eh
 * total energy  :   -41.8712067 Eh     change       -0.7304673E-01 Eh
 * total energy  :   -41.9025216 Eh     change       -0.3131489E-01 Eh
 * total energy  :   -41.9235155 Eh     change       -0.2099386E-01 Eh
 * total energy  :   -42.1701913 Eh     change       -0.7674895E-03 Eh
 * total energy  :   -42.1705334 Eh     change       -0.3421767E-03 Eh
 * total energy  :   -42.1707540 Eh     change       -0.2205589E-03 Eh
 * total energy  :   -42.1709834 Eh     change       -0.2294142E-03 Eh
 * total energy  :   -42.1712095 Eh     change       -0.2261160E-03 Eh
 * total energy  :   -42.1713691 Eh     change       -0.1595325E-03 Eh
 * total energy  :   -42.1714031 Eh     change       -0.3406119E-04 Eh
 * total energy  :   -42.1714832 Eh     change       -0.8006291E-04 Eh
 * total energy  :   -42.1715117 Eh     change       -0.2847537E-04 Eh
   *** GEOMETRY OPTIMIZATION CONVERGED AFTER 79 ITERATIONS ***

 final structure:
================
25
 xtb: 6.6.1 (8d0f1dd)
C            3.50457262591022        1.73511790658746        0.54204800534787
N            2.25585993502025       -0.52447578978756        0.00277148801799
C            2.52968250474411        0.84512016899393       -0.28539273099586
N            0.27846458961804       -3.17501632950172       -0.08116922710216
C            0.07058580032348       -1.92096583505205        0.01153684930651
C            0.96607332354540       -0.72398925557704       -0.02585744528368
C            0.32885616856181        0.56424836692261       -0.20447765072114
O            1.22753624661089        1.49631953297326       -0.36159891782023
N           -0.96991002157956        0.76566835513397       -0.19425237088460
C           -1.57424844178356        2.07430937270001       -0.35692053244061
C           -1.85415224334397       -0.33351816606055        0.00980220235832
O           -3.03347136996958       -0.13167237763998        0.06089040691880
N           -1.27493084113932       -1.57180294643505        0.12402023992316
C           -2.19405812848294       -2.68870794553164        0.28593642535133
H            4.46205308012583        1.23018938611826        0.61127680634468
H            3.61316626838970        2.68163248055668        0.02539941815713
H            3.10704136736908        1.89912455273757        1.53932244497623
H            2.94745591773210        0.84233367296179       -1.31039128787540
H           -0.79256222436253        2.82367983187975       -0.44026034479146
H           -2.20034980105414        2.07685507828264       -1.24981443473084
H           -2.21415913661802        2.28190805092168        0.50127242230376
H           -1.85744581067248       -3.31270549220383        1.11274857585116
H           -2.20296648780963       -3.29908702308711       -0.61775585368161
H           -3.19122025321855       -2.30012122300643        0.48009924928135
H            1.22855844618296       -3.51620583131261       -0.14806211991478

          :  Hamiltonian                  GFN2-xTB          :
         :: total energy             -42.171511662830 Eh    ::
         :: gradient norm              0.001954164307 Eh/a0 ::
         :: HOMO-LUMO gap              1.686009552317 eV    ::
         :: SCC energy               -42.664499543127 Eh    ::
         :: -> dispersion             -0.021478558542 Eh    ::
         :: repulsion energy           0.492639197153 Eh    ::

    * Orbital Energies and Occupations

         #    Occupation            Energy/Eh            Energy/eV
      -------------------------------------------------------------
         1        2.0000           -0.9477337             -25.7891
       ...           ...                  ...                  ...
        25        1.9998           -0.6699772             -18.2310
        26        1.9997           -0.6665245             -18.1371
        27        1.9990           -0.6479862             -17.6326
        28        1.9986           -0.6425786             -17.4855
        29        1.9965           -0.6283225             -17.0975
        30        1.9962           -0.6267831             -17.0556
        31        1.9947           -0.6214658             -16.9109
        32        1.9938           -0.6191310             -16.8474
        33        1.9823           -0.6024161             -16.3926
        34        1.9796           -0.6001479             -16.3309
        35        1.9621           -0.5901723             -16.0594
        36        1.9076           -0.5756076             -15.6631
        37        1.8310           -0.5653983             -15.3853 (HOMO)
        38        0.3559           -0.5034386             -13.6993 (LUMO)
        39        0.0032           -0.4256768             -11.5833
        40        0.0005           -0.3964869             -10.7890
        41        0.0000           -0.3153715              -8.5817
        42                         -0.2290012              -6.2314
        43                         -0.1896614              -5.1610
        44                         -0.1770183              -4.8169
        45                         -0.1353465              -3.6830
        46                         -0.1052674              -2.8645
        47                         -0.0926713              -2.5217
        48                         -0.0625039              -1.7008
       ...                                ...                  ...
        67                          0.5233847              14.2420
      -------------------------------------------------------------
                  HL-Gap            0.0619597 Eh            1.6860 eV

     #   Z          covCN         q      C6AA      α(0)
     1   6 C        3.747    -0.126    22.986     6.838
     2   7 N        1.880    -0.186    25.838     7.535
     3   6 C        3.874     0.173    17.792     5.998
     4   7 N        1.796    -0.235    26.988     7.695
     5   6 C        2.820     0.160    24.530     8.115
     6   6 C        2.991     0.056    26.728     8.481
     7   6 C        2.962     0.226    23.267     7.912
     8   8 O        1.707    -0.192    17.201     5.600
     9   7 N        2.735    -0.035    21.913     6.953
    10   6 C        3.700    -0.068    21.965     6.702
    11   6 C        2.728     0.318    21.600     7.609
    12   8 O        0.859    -0.325    20.243     6.032
    13   7 N        2.762    -0.042    22.047     6.974
    14   6 C        3.714    -0.078    22.126     6.721
    15   1 H        0.925     0.110     1.700     2.039
    16   1 H        0.925     0.103     1.761     2.075
    17   1 H        0.925     0.095     1.827     2.114
    18   1 H        0.922     0.131     1.530     1.934
    19   1 H        0.925     0.106     1.731     2.057
    20   1 H        0.924     0.118     1.629     1.996
    21   1 H        0.924     0.121     1.605     1.981
    22   1 H        0.925     0.116     1.643     2.005
    23   1 H        0.924     0.118     1.628     1.995
    24   1 H        0.925     0.124     1.579     1.965
    25   1 H        0.860     0.210     1.054     1.608

Wiberg/Mayer (AO) data.
largest (>0.10) Wiberg bond orders for each atom

     #   Z sym  total        # sym  WBO       # sym  WBO       # sym  WBO
 ---------------------------------------------------------------------------
     1   6 C    3.921 --    17 H    0.973    16 H    0.972    15 H    0.969
                             3 C    0.953
     2   7 N    2.864 --     6 C    1.592     3 C    1.081
     3   6 C    3.877 --     2 N    1.081     1 C    0.953     8 O    0.882
                            18 H    0.879
     4   7 N    2.894 --     5 C    1.731    25 H    0.922
     5   6 C    3.943 --     4 N    1.731    13 N    1.114     6 C    1.011
     6   6 C    3.882 --     2 N    1.592     7 C    1.102     5 C    1.011
     7   6 C    3.843 --     9 N    1.342     8 O    1.238     6 C    1.102
     8   8 O    2.357 --     7 C    1.238     3 C    0.882
     9   7 N    3.588 --     7 C    1.342    11 C    0.987    10 C    0.965
    10   6 C    3.904 --    19 H    0.973     9 N    0.965    21 H    0.955
                            20 H    0.955
    11   6 C    3.944 --    12 O    1.719    13 N    1.152     9 N    0.987
    12   8 O    2.042 --    11 C    1.719    13 N    0.138
    13   7 N    3.538 --    11 C    1.152     5 C    1.114    14 C    0.970
                            12 O    0.138
    14   6 C    3.880 --    13 N    0.970    24 H    0.960    22 H    0.953
                            23 H    0.946
    15   1 H    0.984 --     1 C    0.969
    16   1 H    0.986 --     1 C    0.972
    17   1 H    0.985 --     1 C    0.973
    18   1 H    0.946 --     3 C    0.879
    19   1 H    0.987 --    10 C    0.973
    20   1 H    0.977 --    10 C    0.955
    21   1 H    0.977 --    10 C    0.955
    22   1 H    0.973 --    14 C    0.953
    23   1 H    0.966 --    14 C    0.946
    24   1 H    0.978 --    14 C    0.960
    25   1 H    0.946 --     4 N    0.922
 ---------------------------------------------------------------------------

molecular dipole:
                 x           y           z       tot (Debye)
 q only:        0.936       0.058      -0.175
   full:        1.175       0.461      -0.327       3.315

           -------------------------------------------------
          | TOTAL ENERGY              -42.171511662830 Eh   |
          | GRADIENT NORM               0.001954164307 Eh/α |
          | HOMO-LUMO GAP               1.686009552317 eV   |
           -------------------------------------------------

 * finished run on 2024/06/05 at 19:58:55.595
