   * xtb version 6.6.1 (8d0f1dd) compiled by 'conda@1efc2f54142f' on 2023-08-01
          program call               : xtb struc.xyz --opt loose --input .xc1 --gfn2

   ID    Z sym.   atoms
    1    6 C      1, 3, 5-7, 10, 11, 14
    2    7 N      2, 4, 9, 13
    3    8 O      8, 12
    4    1 H      15-25
constraining bond 9 10 to    3.9200000 Å, actual value:    1.4599811 Å

          :  Hamiltonian                  GFN2-xTB          :
 * total energy  :   -31.4545585 Eh     change       -0.2401990E-09 Eh
 * total energy  :   -35.4321042 Eh     change       -0.3977546E+01 Eh
 * total energy  :   -38.8279107 Eh     change       -0.3395806E+01 Eh
 * total energy  :   -40.8301742 Eh     change       -0.2002264E+01 Eh
 * total energy  :   -41.5394901 Eh     change       -0.7093159E+00 Eh
 * total energy  :   -41.6484728 Eh     change       -0.1089826E+00 Eh
 * total energy  :   -41.6775403 Eh     change       -0.2906754E-01 Eh
 * total energy  :   -41.7304273 Eh     change       -0.5288698E-01 Eh
 * total energy  :   -41.7818070 Eh     change       -0.5137973E-01 Eh
 * total energy  :   -41.8347633 Eh     change       -0.5295630E-01 Eh
 * total energy  :   -42.1502243 Eh     change       -0.7752990E-03 Eh
 * total energy  :   -42.1513646 Eh     change       -0.1140324E-02 Eh
 * total energy  :   -42.1516349 Eh     change       -0.2702571E-03 Eh
 * total energy  :   -42.1519702 Eh     change       -0.3353076E-03 Eh
 * total energy  :   -42.1521538 Eh     change       -0.1836296E-03 Eh
 * total energy  :   -42.1522728 Eh     change       -0.1189931E-03 Eh
 * total energy  :   -42.1523232 Eh     change       -0.5040722E-04 Eh
 * total energy  :   -42.1523991 Eh     change       -0.7589216E-04 Eh
 * total energy  :   -42.1524351 Eh     change       -0.3600925E-04 Eh
   *** GEOMETRY OPTIMIZATION CONVERGED AFTER 36 ITERATIONS ***

 final structure:
================
25
 xtb: 6.6.1 (8d0f1dd)
C            3.41993224993952        0.92586156773105        0.04846522480112
N            2.49289026140472       -0.17129519182007       -0.00153206907329
C            2.78133512901543       -1.46225558548641       -0.15663925762038
N            1.64036237227925       -2.19291373300304       -0.13403551378627
C            0.59067825593875       -1.33275672769947        0.04241010154722
C            1.13316472652432       -0.05461880399272        0.12686645652585
C            0.25393976516356        1.11625538160240        0.27662767462061
O            0.67655376769058        2.25781382939468        0.31091364270339
N           -1.04286310051058        0.77006236009461        0.35202082204846
C           -3.59110061078849        3.67178498677178       -0.32379229139541
C           -1.60518203493394       -0.42872097709016        0.29812604259902
O           -2.78687052351323       -0.65254281118451        0.37101720639624
N           -0.71877345523473       -1.58446150211801        0.11986237150997
C           -1.28667096456508       -2.90471612614982        0.01320711043331
H            3.96311089856242        0.92195247300730        0.99584337633057
H            4.13711657132639        0.85557523025857       -0.76848871240102
H            2.85743670046582        1.85805528688944       -0.02647616106448
H            3.76429800687819       -1.86859650915821       -0.28462457816075
H           -2.76474285252432        4.35399804290042       -0.32072434497398
H           -3.96017788753929        3.27548245148516       -1.24984547630382
H           -4.03059695298800        3.35597925634840        0.60254676837569
H           -0.98767551166512       -3.52674322889957        0.85985628731776
H           -0.98831627362793       -3.37920697067307       -0.92245426881331
H           -2.37148394484356       -2.78870691811010        0.02887428798414
H            1.58406692164534       -3.19704723949866       -0.22685308170062

          :  Hamiltonian                  GFN2-xTB          :
         :: total energy             -42.152435144119 Eh    ::
         :: gradient norm              0.003924652965 Eh/a0 ::
         :: HOMO-LUMO gap              1.480960696552 eV    ::
         :: SCC energy               -42.679430440095 Eh    ::
         :: -> dispersion             -0.020512218520 Eh    ::
         :: repulsion energy           0.526944358199 Eh    ::

    * Orbital Energies and Occupations

         #    Occupation            Energy/Eh            Energy/eV
      -------------------------------------------------------------
         1        2.0000           -0.9068955             -24.6779
       ...           ...                  ...                  ...
        25        1.9980           -0.6570631             -17.8796
        26        1.9973           -0.6496380             -17.6775
        27        1.9942           -0.6314710             -17.1832
        28        1.9912           -0.6213915             -16.9089
        29        1.9895           -0.6172876             -16.7973
        30        1.9882           -0.6144575             -16.7202
        31        1.9820           -0.6043566             -16.4454
        32        1.9813           -0.6034308             -16.4202
        33        1.9382           -0.5744748             -15.6323
        34        1.8698           -0.5559109             -15.1271
        35        1.8667           -0.5553163             -15.1109
        36        1.8167           -0.5471084             -14.8876
        37        1.7030           -0.5341043             -14.5337 (HOMO)
        38        0.7340           -0.4796800             -13.0528 (LUMO)
        39        0.1203           -0.4273443             -11.6286
        40        0.0259           -0.3896521             -10.6030
        41        0.0079           -0.3612414              -9.8299
        42        0.0001           -0.2650713              -7.2130
        43        0.0000           -0.1955709              -5.3218
        44        0.0000           -0.1766617              -4.8072
        45        0.0000           -0.1402991              -3.8177
        46                         -0.0813259              -2.2130
        47                         -0.0569369              -1.5493
        48                         -0.0360708              -0.9815
       ...                                ...                  ...
        67                          0.5564023              15.1405
      -------------------------------------------------------------
                  HL-Gap            0.0544243 Eh            1.4810 eV

     #   Z          covCN         q      C6AA      α(0)
     1   6 C        3.691    -0.091    22.437     6.778
     2   7 N        2.827     0.080    19.847     6.617
     3   6 C        3.048     0.050    26.835     8.496
     4   7 N        2.791    -0.066    22.521     7.048
     5   6 C        3.027     0.121    25.319     8.254
     6   6 C        3.121    -0.014    28.190     8.695
     7   6 C        2.762     0.295    21.996     7.680
     8   8 O        0.858    -0.333    20.383     6.053
     9   7 N        1.842    -0.236    27.022     7.704
    10   6 C        2.779    -0.081    29.996     8.971
    11   6 C        2.708     0.336    21.288     7.552
    12   8 O        0.860    -0.325    20.229     6.030
    13   7 N        2.735    -0.065    22.498     7.045
    14   6 C        3.693    -0.067    21.966     6.706
    15   1 H        0.924     0.112     1.681     2.027
    16   1 H        0.925     0.107     1.726     2.054
    17   1 H        0.924     0.140     1.463     1.892
    18   1 H        0.926     0.123     1.590     1.972
    19   1 H        0.926     0.129     1.546     1.944
    20   1 H        0.926     0.125     1.573     1.962
    21   1 H        0.926     0.130     1.537     1.938
    22   1 H        0.924     0.088     1.895     2.153
    23   1 H        0.924     0.084     1.940     2.178
    24   1 H        0.924     0.131     1.530     1.934
    25   1 H        0.860     0.228     0.976     1.547

Wiberg/Mayer (AO) data.
largest (>0.10) Wiberg bond orders for each atom

     #   Z sym  total        # sym  WBO       # sym  WBO       # sym  WBO
 ---------------------------------------------------------------------------
     1   6 C    3.899 --     2 N    0.988    16 H    0.961    17 H    0.953
                            15 H    0.950
     2   7 N    3.655 --     3 C    1.364     6 C    1.171     1 C    0.988
     3   6 C    3.786 --     2 N    1.364     4 N    1.264    18 H    0.953
     4   7 N    3.555 --     3 C    1.264     5 C    1.174    25 H    0.920
     5   6 C    3.922 --     6 C    1.326    13 N    1.254     4 N    1.174
     6   6 C    3.775 --     5 C    1.326     2 N    1.171     7 C    1.008
     7   6 C    3.923 --     8 O    1.615     9 N    1.223     6 C    1.008
     8   8 O    1.874 --     7 C    1.615     9 N    0.114
     9   7 N    2.818 --    11 C    1.281     7 C    1.223     8 O    0.114
                            12 O    0.107
    10   6 C    2.914 --    20 H    0.972    19 H    0.971    21 H    0.971
    11   6 C    3.933 --    12 O    1.657     9 N    1.281    13 N    0.918
    12   8 O    1.933 --    11 C    1.657     9 N    0.107
    13   7 N    3.431 --     5 C    1.254    14 C    0.989    11 C    0.918
    14   6 C    3.903 --    13 N    0.989    23 H    0.960    22 H    0.957
                            24 H    0.954
    15   1 H    0.978 --     1 C    0.950
    16   1 H    0.982 --     1 C    0.961
    17   1 H    0.976 --     1 C    0.953
    18   1 H    0.983 --     3 C    0.953
    19   1 H    0.973 --    10 C    0.971
    20   1 H    0.974 --    10 C    0.972
    21   1 H    0.972 --    10 C    0.971
    22   1 H    0.974 --    14 C    0.957
    23   1 H    0.977 --    14 C    0.960
    24   1 H    0.976 --    14 C    0.954
    25   1 H    0.947 --     4 N    0.920
 ---------------------------------------------------------------------------

molecular dipole:
                 x           y           z       tot (Debye)
 q only:        2.096      -1.474      -0.540
   full:        2.512      -2.132      -0.611       8.518

           -------------------------------------------------
          | TOTAL ENERGY              -42.152435144119 Eh   |
          | GRADIENT NORM               0.003924652965 Eh/α |
          | HOMO-LUMO GAP               1.480960696552 eV   |
           -------------------------------------------------

 * finished run on 2024/06/05 at 19:58:50.612
