   * xtb version 6.6.1 (8d0f1dd) compiled by 'conda@1efc2f54142f' on 2023-08-01
          program call               : xtb struc.xyz --opt loose --input .xc1 --gfn2

   ID    Z sym.   atoms
    1    6 C      1, 3, 5-7, 10, 11, 14
    2    7 N      2, 4, 9, 13
    3    8 O      8, 12
    4    1 H      15-25
constraining bond 5 8 to    5.7600000 Å, actual value:    3.6017282 Å

          :  Hamiltonian                  GFN2-xTB          :
 * total energy  :   -33.9280304 Eh     change       -0.6633627E-10 Eh
 * total energy  :   -37.4252209 Eh     change       -0.3497191E+01 Eh
 * total energy  :   -39.8851356 Eh     change       -0.2459915E+01 Eh
 * total energy  :   -41.1842182 Eh     change       -0.1299083E+01 Eh
 * total energy  :   -41.6190720 Eh     change       -0.4348538E+00 Eh
 * total energy  :   -41.6733822 Eh     change       -0.5431027E-01 Eh
 * total energy  :   -41.6937005 Eh     change       -0.2031827E-01 Eh
 * total energy  :   -41.7346869 Eh     change       -0.4098636E-01 Eh
 * total energy  :   -41.7487167 Eh     change       -0.1402985E-01 Eh
 * total energy  :   -41.7611590 Eh     change       -0.1244223E-01 Eh
 * total energy  :   -42.0258702 Eh     change       -0.5091776E-03 Eh
 * total energy  :   -42.0265494 Eh     change       -0.6791869E-03 Eh
 * total energy  :   -42.0273645 Eh     change       -0.8151570E-03 Eh
 * total energy  :   -42.0281319 Eh     change       -0.7674255E-03 Eh
 * total energy  :   -42.0285191 Eh     change       -0.3871896E-03 Eh
 * total energy  :   -42.0288300 Eh     change       -0.3108994E-03 Eh
 * total energy  :   -42.0289942 Eh     change       -0.1641784E-03 Eh
 * total energy  :   -42.0290784 Eh     change       -0.8417748E-04 Eh
 * total energy  :   -42.0291127 Eh     change       -0.3427935E-04 Eh
   *** GEOMETRY OPTIMIZATION CONVERGED AFTER 97 ITERATIONS ***

 final structure:
================
25
 xtb: 6.6.1 (8d0f1dd)
C            3.67266755267873        0.77624714201005        0.57110483105120
N            2.45819494459533        0.17637852554284        0.06879597050464
C            2.43629585236207       -0.91989603490206       -0.69961082656797
N            1.37544765724285       -1.69624485093320       -0.90806508653788
C            0.29706053199285       -2.08955416979491       -0.12024850405794
C            1.25195523380866        0.69739926519768        0.34006118878307
C            0.11629717794239        0.98377093327118        0.03219035185340
O           -2.11344020742723        3.12125339203141        0.24447849860356
N           -1.19527808228856        0.89763317506841       -0.17440593088024
C           -2.01392317228843        2.07439415440093       -0.64384478009865
C           -1.66427917279536       -0.37406658841683       -0.39460404117174
O           -2.71033256387763       -0.62318429485512       -0.91679543871694
N           -0.84444433223674       -1.52763510749484        0.11220954469919
C           -1.72783480445563       -2.31179597166090        0.98333550261815
H            3.81384636916155        0.52377395587668        1.62448567368309
H            4.52706876127386        0.41444745150362        0.00310738612035
H            3.61059130201937        1.86012070458225        0.47899406070764
H            3.37687878151065       -1.22692011241646       -1.13563579443916
H           -2.75496238674694        2.94385455827902        0.94476477360135
H           -1.51377564356015        2.47242819256036       -1.53337122478672
H           -2.98203898455909        1.64032821002330       -0.92031813545953
H           -1.19773989802576       -3.19751810610669        1.32190477140962
H           -2.62060047508594       -2.60375891500206        0.43056754997633
H           -2.02451314776562       -1.70578393623344        1.83869812049217
H            1.58729022062644       -2.48743303092576       -1.51662684348579

          :  Hamiltonian                  GFN2-xTB          :
         :: total energy             -42.029112671059 Eh    ::
         :: gradient norm              0.001543053196 Eh/a0 ::
         :: HOMO-LUMO gap              2.187596562278 eV    ::
         :: SCC energy               -42.584359738532 Eh    ::
         :: -> dispersion             -0.021676679746 Eh    ::
         :: repulsion energy           0.554986663056 Eh    ::

    * Orbital Energies and Occupations

         #    Occupation            Energy/Eh            Energy/eV
      -------------------------------------------------------------
         1        2.0000           -0.8813197             -23.9819
       ...           ...                  ...                  ...
        25        2.0000           -0.6680642             -18.1790
        26        2.0000           -0.6482567             -17.6400
        27        2.0000           -0.6372535             -17.3406
        28        2.0000           -0.6330085             -17.2250
        29        2.0000           -0.6210433             -16.8994
        30        2.0000           -0.6127907             -16.6749
        31        2.0000           -0.6033670             -16.4185
        32        2.0000           -0.5965311             -16.2324
        33        2.0000           -0.5935428             -16.1511
        34        2.0000           -0.5835948             -15.8804
        35        2.0000           -0.5617449             -15.2859
        36        1.9998           -0.5469490             -14.8832
        37        1.9870           -0.5137859             -13.9808 (HOMO)
        38        0.0118           -0.4333932             -11.7932 (LUMO)
        39        0.0014           -0.4164130             -11.3312
        40        0.0000           -0.3823619             -10.4046
        41        0.0000           -0.3535464              -9.6205
        42                         -0.2958308              -8.0500
        43                         -0.2320640              -6.3148
        44                         -0.1869182              -5.0863
        45                         -0.1471417              -4.0039
        46                         -0.1325104              -3.6058
        47                         -0.0819137              -2.2290
        48                         -0.0516275              -1.4049
       ...                                ...                  ...
        67                          1.1481898              31.2438
      -------------------------------------------------------------
                  HL-Gap            0.0803927 Eh            2.1876 eV

     #   Z          covCN         q      C6AA      α(0)
     1   6 C        3.700    -0.077    22.144     6.730
     2   7 N        2.733     0.068    20.051     6.651
     3   6 C        2.841     0.064    26.567     8.447
     4   7 N        2.684    -0.064    22.491     7.044
     5   6 C        1.869    -0.039    32.170     9.161
     6   6 C        1.986    -0.012    31.358     9.043
     7   6 C        1.965     0.028    30.354     8.897
     8   8 O        1.657    -0.387    20.597     6.127
     9   7 N        2.726    -0.047    22.144     6.989
    10   6 C        3.612     0.135    18.852     6.268
    11   6 C        2.764     0.309    21.760     7.639
    12   8 O        0.858    -0.343    20.576     6.082
    13   7 N        2.722     0.009    21.110     6.824
    14   6 C        3.748    -0.077    22.031     6.695
    15   1 H        0.924     0.098     1.808     2.103
    16   1 H        0.925     0.089     1.887     2.148
    17   1 H        0.925     0.100     1.782     2.088
    18   1 H        0.925     0.098     1.805     2.101
    19   1 H        0.805     0.319     0.666     1.282
    20   1 H        0.924     0.090     1.877     2.143
    21   1 H        0.924     0.082     1.961     2.190
    22   1 H        0.925     0.108     1.713     2.047
    23   1 H        0.925     0.116     1.644     2.005
    24   1 H        0.925     0.089     1.888     2.149
    25   1 H        0.860     0.244     0.907     1.492

Wiberg/Mayer (AO) data.
largest (>0.10) Wiberg bond orders for each atom

     #   Z sym  total        # sym  WBO       # sym  WBO       # sym  WBO
 ---------------------------------------------------------------------------
     1   6 C    3.937 --     2 N    0.977    16 H    0.974    17 H    0.971
                            15 H    0.963
     2   7 N    3.646 --     3 C    1.293     6 C    1.129     1 C    0.977
                             4 N    0.106
     3   6 C    3.941 --     4 N    1.358     2 N    1.293    18 H    0.945
                             5 C    0.175
     4   7 N    3.582 --     3 C    1.358     5 C    1.108    25 H    0.894
                             2 N    0.106
     5   6 C    3.211 --    13 N    1.657     4 N    1.108     3 C    0.175
     6   6 C    3.932 --     7 C    2.560     2 N    1.129
     7   6 C    3.948 --     6 C    2.560     9 N    1.169
     8   8 O    2.044 --    10 C    1.070    19 H    0.883
     9   7 N    3.562 --     7 C    1.169    11 C    1.160    10 C    0.885
                            12 O    0.161
    10   6 C    3.918 --     8 O    1.070    21 H    0.958    20 H    0.957
                             9 N    0.885
    11   6 C    3.952 --    12 O    1.758     9 N    1.160    13 N    0.866
    12   8 O    2.130 --    11 C    1.758     9 N    0.161
    13   7 N    3.673 --     5 C    1.657    14 C    0.961    11 C    0.866
    14   6 C    3.927 --    22 H    0.971    24 H    0.968    13 N    0.961
                            23 H    0.959
    15   1 H    0.988 --     1 C    0.963
    16   1 H    0.992 --     1 C    0.974
    17   1 H    0.989 --     1 C    0.971
    18   1 H    0.989 --     3 C    0.945
    19   1 H    0.898 --     8 O    0.883
    20   1 H    0.992 --    10 C    0.957
    21   1 H    0.993 --    10 C    0.958
    22   1 H    0.988 --    14 C    0.971
    23   1 H    0.985 --    14 C    0.959
    24   1 H    0.992 --    14 C    0.968
    25   1 H    0.940 --     4 N    0.894
 ---------------------------------------------------------------------------

molecular dipole:
                 x           y           z       tot (Debye)
 q only:        1.991      -1.059       0.173
   full:        2.111      -0.955       0.030       5.890

           -------------------------------------------------
          | TOTAL ENERGY              -42.029112671059 Eh   |
          | GRADIENT NORM               0.001543053196 Eh/α |
          | HOMO-LUMO GAP               2.187596562278 eV   |
           -------------------------------------------------

 * finished run on 2024/06/05 at 19:58:00.038
