   * xtb version 6.6.1 (8d0f1dd) compiled by 'conda@1efc2f54142f' on 2023-08-01
          program call               : xtb xtbopt.xyz --opt crude --input .xc2 --gfn2

   ID    Z sym.   atoms
    1    6 C      1, 3, 5-7, 10, 11, 14
    2    7 N      2, 4, 9, 13
    3    8 O      8, 12
    4    1 H      15-25
########################################################################
[WARNING] Please study the warnings concerning your input carefully
-1- readin_getIntValue: could not parse ''
########################################################################

          :  Hamiltonian                  GFN2-xTB          :
 * total energy  :   -42.0292022 Eh     change       -0.1207923E-12 Eh
 * total energy  :   -42.0312985 Eh     change       -0.2096314E-02 Eh
 * total energy  :   -42.0325379 Eh     change       -0.1239394E-02 Eh
 * total energy  :   -42.0329897 Eh     change       -0.4517563E-03 Eh
   *** GEOMETRY OPTIMIZATION CONVERGED AFTER 4 ITERATIONS ***

 final structure:
================
25
 xtb: 6.6.1 (8d0f1dd)
C            3.67727991609490        0.80055327466776        0.57670227862455
N            2.46567068581757        0.20576479602913        0.06487630646417
C            2.43464337580035       -0.89472151066358       -0.69974829329081
N            1.34934898542052       -1.63978697519938       -0.89298770002549
C            0.27849133290787       -1.98549531477064       -0.07490719138961
C            1.25103142079694        0.71464396338467        0.31027806167626
C            0.11377673173527        0.94701121202219       -0.03786725078825
O           -1.97393500806094        2.96867575320594        0.34556334004895
N           -1.19088737795124        0.84366011327068       -0.27045740531810
C           -1.97711256598821        2.03832349856344       -0.66570005544238
C           -1.70376115304333       -0.40623832793328       -0.45259533320152
O           -2.75074842309128       -0.65193715169084       -0.97517762302980
N           -0.89740344456665       -1.50570797416177        0.11679044125887
C           -1.75564843160576       -2.29695292982641        1.00301086867270
H            3.80976028457441        0.54763522200666        1.63093944434766
H            4.53256763921705        0.43223210409932        0.01412893361429
H            3.62199452430054        1.88433458016022        0.48214200534468
H            3.36496986562179       -1.22430981231627       -1.13935185191775
H           -2.65814460525379        2.79082097978479        1.00319953840775
H           -1.48746711122447        2.49673015935552       -1.53334393297577
H           -2.96984670818956        1.67011880937622       -0.94978057797034
H           -1.20309152095016       -3.16378825756351        1.35542889595267
H           -2.64068603578603       -2.61620302527900        0.45286157843481
H           -2.06572710240037       -1.68406191629507        1.84873030102474
H            1.53535623992625       -2.45306272862132       -1.48156316062111

          :  Hamiltonian                  GFN2-xTB          :
         :: total energy             -42.032989697977 Eh    ::
         :: gradient norm              0.007435890641 Eh/a0 ::
         :: HOMO-LUMO gap              2.200919623499 eV    ::
         :: SCC energy               -42.595530224032 Eh    ::
         :: -> dispersion             -0.021848833141 Eh    ::
         :: repulsion energy           0.562364216700 Eh    ::

    * Orbital Energies and Occupations

         #    Occupation            Energy/Eh            Energy/eV
      -------------------------------------------------------------
         1        2.0000           -0.8820029             -24.0005
       ...           ...                  ...                  ...
        25        2.0000           -0.6696937             -18.2233
        26        2.0000           -0.6497528             -17.6807
        27        2.0000           -0.6352050             -17.2848
        28        2.0000           -0.6308156             -17.1654
        29        2.0000           -0.6229586             -16.9516
        30        2.0000           -0.6108252             -16.6214
        31        2.0000           -0.6044601             -16.4482
        32        2.0000           -0.5978245             -16.2676
        33        2.0000           -0.5930076             -16.1366
        34        2.0000           -0.5832659             -15.8715
        35        2.0000           -0.5618361             -15.2883
        36        1.9998           -0.5459346             -14.8556
        37        1.9869           -0.5114116             -13.9162 (HOMO)
        38        0.0110           -0.4305293             -11.7153 (LUMO)
        39        0.0022           -0.4177792             -11.3684
        40        0.0000           -0.3811913             -10.3727
        41        0.0000           -0.3512814              -9.5589
        42                         -0.2925030              -7.9594
        43                         -0.2091054              -5.6900
        44                         -0.1843015              -5.0151
        45                         -0.1430954              -3.8938
        46                         -0.1163073              -3.1649
        47                         -0.0741300              -2.0172
        48                         -0.0511913              -1.3930
       ...                                ...                  ...
        67                          1.1465914              31.2003
      -------------------------------------------------------------
                  HL-Gap            0.0808823 Eh            2.2009 eV

     #   Z          covCN         q      C6AA      α(0)
     1   6 C        3.698    -0.077    22.137     6.730
     2   7 N        2.734     0.065    20.104     6.659
     3   6 C        2.858     0.059    26.661     8.463
     4   7 N        2.684    -0.064    22.482     7.042
     5   6 C        1.868    -0.035    32.082     9.149
     6   6 C        2.002    -0.010    31.295     9.034
     7   6 C        1.955     0.026    30.404     8.904
     8   8 O        1.658    -0.395    20.746     6.149
     9   7 N        2.731    -0.041    22.033     6.971
    10   6 C        3.621     0.137    18.770     6.246
    11   6 C        2.751     0.309    21.744     7.636
    12   8 O        0.858    -0.348    20.669     6.095
    13   7 N        2.726     0.017    20.950     6.798
    14   6 C        3.743    -0.078    22.066     6.702
    15   1 H        0.924     0.097     1.817     2.108
    16   1 H        0.925     0.089     1.891     2.150
    17   1 H        0.925     0.100     1.786     2.090
    18   1 H        0.926     0.098     1.805     2.101
    19   1 H        0.805     0.319     0.666     1.282
    20   1 H        0.924     0.088     1.898     2.155
    21   1 H        0.924     0.079     1.994     2.208
    22   1 H        0.925     0.109     1.709     2.044
    23   1 H        0.925     0.118     1.632     1.998
    24   1 H        0.925     0.092     1.860     2.133
    25   1 H        0.860     0.245     0.904     1.489

Wiberg/Mayer (AO) data.
largest (>0.10) Wiberg bond orders for each atom

     #   Z sym  total        # sym  WBO       # sym  WBO       # sym  WBO
 ---------------------------------------------------------------------------
     1   6 C    3.937 --     2 N    0.978    16 H    0.975    17 H    0.972
                            15 H    0.963
     2   7 N    3.641 --     3 C    1.278     6 C    1.135     1 C    0.978
                             4 N    0.106
     3   6 C    3.940 --     4 N    1.360     2 N    1.278    18 H    0.946
                             5 C    0.190
     4   7 N    3.579 --     3 C    1.360     5 C    1.108    25 H    0.891
                             2 N    0.106
     5   6 C    3.242 --    13 N    1.661     4 N    1.108     3 C    0.190
     6   6 C    3.931 --     7 C    2.552     2 N    1.135
     7   6 C    3.947 --     6 C    2.552     9 N    1.167
     8   8 O    2.029 --    10 C    1.059    19 H    0.883
     9   7 N    3.575 --     7 C    1.167    11 C    1.164    10 C    0.900
                            12 O    0.164
    10   6 C    3.921 --     8 O    1.059    21 H    0.959    20 H    0.956
                             9 N    0.900
    11   6 C    3.955 --    12 O    1.745     9 N    1.164    13 N    0.882
    12   8 O    2.120 --    11 C    1.745     9 N    0.164
    13   7 N    3.683 --     5 C    1.661    14 C    0.958    11 C    0.882
    14   6 C    3.924 --    22 H    0.972    24 H    0.967    23 H    0.958
                            13 N    0.958
    15   1 H    0.989 --     1 C    0.963
    16   1 H    0.992 --     1 C    0.975
    17   1 H    0.989 --     1 C    0.972
    18   1 H    0.989 --     3 C    0.946
    19   1 H    0.898 --     8 O    0.883
    20   1 H    0.992 --    10 C    0.956
    21   1 H    0.993 --    10 C    0.959
    22   1 H    0.988 --    14 C    0.972
    23   1 H    0.985 --    14 C    0.958
    24   1 H    0.991 --    14 C    0.967
    25   1 H    0.940 --     4 N    0.891
 ---------------------------------------------------------------------------

molecular dipole:
                 x           y           z       tot (Debye)
 q only:        1.927      -1.107       0.178
   full:        1.987      -1.014      -0.013       5.670

           -------------------------------------------------
          | TOTAL ENERGY              -42.032989697977 Eh   |
          | GRADIENT NORM               0.007435890641 Eh/α |
          | HOMO-LUMO GAP               2.200919623499 eV   |
           -------------------------------------------------

 * finished run on 2024/06/05 at 19:58:00.272
