   * xtb version 6.6.1 (8d0f1dd) compiled by 'conda@1efc2f54142f' on 2023-08-01
          program call               : xtb struc.xyz --opt loose --input .xc1 --gfn2

   ID    Z sym.   atoms
    1    7 N      1, 17
    2    6 C      2-6, 8, 9, 11-16, 18-23, 25, 26, 28-33
    3    8 O      7, 10, 24, 27
    4    1 H      34-72
constraining bond 7 34 to    3.6333300 Å, actual value:    2.6914724 Å

          :  Hamiltonian                  GFN2-xTB          :
 * total energy  :   -99.5625247 Eh     change       -0.4035485E-08 Eh
 * total energy  :   -99.8168189 Eh     change       -0.2542942E+00 Eh
 * total energy  :  -100.1240736 Eh     change       -0.3072547E+00 Eh
 * total energy  :  -100.4901806 Eh     change       -0.3661070E+00 Eh
 * total energy  :  -100.4901806 Eh     change       -0.4255583E-09 Eh
 * total energy  :  -100.5555924 Eh     change       -0.6541185E-01 Eh
 * total energy  :  -100.5949411 Eh     change       -0.3934869E-01 Eh
 * total energy  :  -100.6191897 Eh     change       -0.2424855E-01 Eh
 * total energy  :  -100.6308718 Eh     change       -0.1168213E-01 Eh
 * total energy  :  -100.6397157 Eh     change       -0.8843844E-02 Eh
 * total energy  :  -100.6844632 Eh     change       -0.4562607E-03 Eh
 * total energy  :  -100.6846476 Eh     change       -0.1844504E-03 Eh
 * total energy  :  -100.6847591 Eh     change       -0.1114149E-03 Eh
 * total energy  :  -100.6848186 Eh     change       -0.5955185E-04 Eh
 * total energy  :  -100.6849213 Eh     change       -0.1027321E-03 Eh
 * total energy  :  -100.6849887 Eh     change       -0.6732243E-04 Eh
 * total energy  :  -100.6851124 Eh     change       -0.1237348E-03 Eh
 * total energy  :  -100.6851688 Eh     change       -0.5640739E-04 Eh
 * total energy  :  -100.6852071 Eh     change       -0.3831388E-04 Eh
   *** GEOMETRY OPTIMIZATION CONVERGED AFTER 57 ITERATIONS ***

 final structure:
================
72
 xtb: 6.6.1 (8d0f1dd)
N           -1.86018577717129        2.93134168583910        2.35469517345598
C           -1.81581777632435        2.15928249159231        1.37012571333811
C           -2.89818773820485        2.03852803026932        0.33881424595015
C           -3.39156459825504        0.60482310123651        0.26523148807927
C           -4.06064643319077        0.17668863580644       -0.88874506897140
C           -4.53673897757870       -1.09950040053776       -0.86903697087349
O           -5.22284676158517       -1.52637456567607       -2.14680939932876
C           -6.63512876054014       -1.82543608020388       -1.99856303102435
C           -4.43939895770860       -2.02383784420649        0.17564933080068
O           -5.00001594287858       -3.25549049206680        0.01052129329271
C           -4.91293419120724       -4.17791609500279        1.07654799200752
C           -3.76680362156989       -1.56249742203292        1.29930461543752
C           -3.25738255025196       -0.26825970347041        1.33583514770261
C           -2.26954777915278        2.44077169588538       -1.01848508970439
C           -1.30322469724178        1.40674147529313       -1.62177431082033
C           -0.01712021974626        1.29049692697225       -0.90342760508798
N            0.57283035423894        0.14676347787170       -0.54959679840239
C            1.95760827301344        0.13764588378124       -0.14465940389467
C            2.88475562383378       -0.27967286966504       -1.30333974838292
C            4.32235081774833       -0.11382999153990       -0.89947714745710
C            4.97922950966784        1.08506814379606       -1.11377779348024
C            6.29892581272465        1.25137005585087       -0.72092692362782
C            6.98505679971328        0.21974236351749       -0.09948140109957
O            8.26758767573577        0.26858660699036        0.31883000792041
C            9.01172153795283        1.44347887596637        0.09702579267553
C            6.31704240162413       -1.01170345867697        0.13183054953943
O            7.05935336849919       -1.96274181918816        0.74199686419370
C            6.48684797511993       -3.22360521699638        0.98812201507642
C            4.99920910836601       -1.15561662526655       -0.26843147155186
C           -0.08049405503030       -1.12933053625752       -0.70467173422858
C           -4.14099917878034        2.93680807598365        0.61116998396983
C           -4.81645648233258        2.58803269039816        1.93551952796169
C           -3.82187814765094        4.42926306725478        0.58404974086738
H           -5.13378748024331       -0.95419591524789       -2.60030886448493
H           -7.16908285921915       -0.97211217323107       -1.57941101657849
H           -6.72395530150003       -2.68476961086678       -1.33735173907478
H           -7.02473213465767       -2.07186841803215       -2.98467397511323
H           -5.42154790670636       -3.80128576121473        1.96795021054488
H           -5.41321095980839       -5.07859970538275        0.72587722605895
H           -3.87281323698955       -4.41031953095123        1.31687677120514
H           -3.64654257294550       -2.19816309977489        2.16123706696291
H           -2.76186017078099        0.06078404869458        2.23853227437444
H           -3.08480573088992        2.57906543933639       -1.72796814171007
H           -1.74753813929694        3.38973432030911       -0.89974378761956
H           -1.81157367980747        0.44811431724795       -1.70174085810171
H           -1.08009130240367        1.75185500813085       -2.63993100896108
H           -0.94933067222860        1.51548263094697        1.13657281259058
H            0.55533974439528        2.19219790023043       -0.75065277826103
H            2.08621108248138       -0.55213294864074        0.69378045531151
H            2.24002566215241        1.13797421794233        0.18923778344699
H            2.66720104991433        0.35315489840420       -2.16581377316520
H            2.68541356731427       -1.31692742135977       -1.57577877367451
H            4.46913329855758        1.90109847642900       -1.60310318992336
H            6.78594638533649        2.19394110074864       -0.90954591493811
H            8.57858728145070        2.29897571877681        0.62476065878260
H            9.08909592135575        1.67355491732129       -0.97007593059430
H           10.00407546732049        1.24000295331122        0.49480225644442
H            7.26981510167448       -3.81257604984182        1.46196211292355
H            5.62992343273888       -3.15104705037208        1.66611027640392
H            6.17818368460377       -3.71380038074765        0.05915358252685
H            4.48437408167310       -2.08964175941949       -0.10547130011837
H           -0.14306269550737       -1.42281187568366       -1.75583638647296
H           -1.08963406935173       -1.09030062534611       -0.28964003941067
H            0.48551583579936       -1.88659917050725       -0.16718528855010
H           -4.84744273346426        2.71623460579215       -0.19914700295629
H           -4.15163881402645        2.81755725006579        2.76201781320154
H           -5.08496369558563        1.53502887573027        1.97770607613657
H           -5.72407695639036        3.17569488083169        2.04760740631600
H           -3.06199487056913        4.66064049664366        1.32371697139894
H           -3.48302677864607        4.75468915174623       -0.39541645417955
H           -4.71971287885460        4.99101847854025        0.82902970485409
H           -1.05104697155050        2.94487116808338        2.96906402301447

          :  Hamiltonian                  GFN2-xTB          :
         :: total energy            -100.685207120923 Eh    ::
         :: gradient norm              0.002721003806 Eh/a0 ::
         :: HOMO-LUMO gap              1.208135450392 eV    ::
         :: SCC energy              -100.669378788834 Eh    ::
         :: -> dispersion             -0.075120015516 Eh    ::
         :: repulsion energy           1.482409821732 Eh    ::

    * Orbital Energies and Occupations

         #    Occupation            Energy/Eh            Energy/eV
      -------------------------------------------------------------
         1        2.0000           -0.9024005             -24.5556
       ...           ...                  ...                  ...
        78        1.9992           -0.5159627             -14.0401
        79        1.9990           -0.5137029             -13.9786
        80        1.9990           -0.5126512             -13.9499
        81        1.9982           -0.5042598             -13.7216
        82        1.9979           -0.5015903             -13.6490
        83        1.9974           -0.4981247             -13.5547
        84        1.9971           -0.4962746             -13.5043
        85        1.9960           -0.4911344             -13.3644
        86        1.9864           -0.4718726             -12.8403
        87        1.9782           -0.4643440             -12.6354
        88        1.9541           -0.4523432             -12.3089
        89        1.9022           -0.4399268             -11.9710
        90        1.6768           -0.4190090             -11.4018 (HOMO)
        91        0.4783           -0.3746108             -10.1937 (LUMO)
        92        0.0178           -0.3183481              -8.6627
        93        0.0133           -0.3136432              -8.5347
        94        0.0055           -0.2996344              -8.1535
        95        0.0043           -0.2956000              -8.0437
        96        0.0036           -0.2928865              -7.9698
        97        0.0000           -0.2095035              -5.7009
        98        0.0000           -0.1792874              -4.8787
        99        0.0000           -0.1701245              -4.6293
       100                         -0.1163169              -3.1651
       101                         -0.1023738              -2.7857
       ...                                ...                  ...
       171                          0.7071609              19.2428
      -------------------------------------------------------------
                  HL-Gap            0.0443982 Eh            1.2081 eV

     #   Z          covCN         q      C6AA      α(0)
     1   7 N        1.774    -0.285    28.201     7.864
     2   6 C        2.826     0.100    25.771     8.318
     3   6 C        3.909     0.007    20.398     6.420
     4   6 C        2.995     0.011    27.765     8.644
     5   6 C        1.985    -0.228    37.791     9.928
     6   6 C        2.863     0.047    26.950     8.509
     7   8 O        2.485    -0.139    16.376     5.465
     8   6 C        3.624    -0.021    21.402     6.667
     9   6 C        2.854     0.122    25.309     8.246
    10   8 O        1.704    -0.280    18.654     5.831
    11   6 C        3.644     0.032    20.367     6.487
    12   6 C        2.930    -0.078    29.949     8.975
    13   6 C        2.917    -0.047    29.175     8.857
    14   6 C        3.813    -0.065    21.736     6.636
    15   6 C        3.802    -0.068    21.806     6.648
    16   6 C        2.842    -0.001    28.035     8.677
    17   7 N        2.729    -0.002    21.297     6.854
    18   6 C        3.755    -0.014    20.878     6.515
    19   6 C        3.808    -0.069    21.821     6.650
    20   6 C        2.969    -0.003    28.108     8.696
    21   6 C        2.922    -0.051    29.274     8.873
    22   6 C        2.915    -0.069    29.728     8.941
    23   6 C        2.865     0.130    25.149     8.220
    24   8 O        1.706    -0.232    17.839     5.703
    25   6 C        3.646     0.028    20.435     6.497
    26   6 C        2.863     0.130    25.156     8.221
    27   8 O        1.706    -0.234    17.875     5.708
    28   6 C        3.645     0.030    20.398     6.491
    29   6 C        2.920    -0.081    30.021     8.985
    30   6 C        3.699    -0.064    21.891     6.692
    31   6 C        3.855    -0.007    20.674     6.467
    32   6 C        3.756    -0.115    22.753     6.801
    33   6 C        3.755    -0.119    22.829     6.813
    34   1 H        0.812     0.362     0.560     1.175
    35   1 H        0.924     0.095     1.829     2.115
    36   1 H        0.925     0.129     1.540     1.941
    37   1 H        0.925     0.100     1.783     2.088
    38   1 H        0.924     0.050     2.323     2.383
    39   1 H        0.925     0.068     2.106     2.269
    40   1 H        0.924     0.047     2.353     2.399
    41   1 H        0.926     0.043     2.410     2.428
    42   1 H        0.926     0.035     2.510     2.478
    43   1 H        0.925     0.067     2.114     2.274
    44   1 H        0.925     0.050     2.320     2.382
    45   1 H        0.925     0.066     2.135     2.285
    46   1 H        0.923     0.071     2.074     2.252
    47   1 H        0.923    -0.003     3.105     2.756
    48   1 H        0.926     0.062     2.176     2.307
    49   1 H        0.924     0.062     2.177     2.308
    50   1 H        0.924     0.066     2.133     2.284
    51   1 H        0.924     0.051     2.307     2.375
    52   1 H        0.924     0.051     2.311     2.377
    53   1 H        0.926     0.041     2.440     2.443
    54   1 H        0.926     0.054     2.275     2.359
    55   1 H        0.924     0.050     2.320     2.382
    56   1 H        0.924     0.051     2.306     2.375
    57   1 H        0.925     0.078     2.004     2.214
    58   1 H        0.925     0.077     2.009     2.217
    59   1 H        0.924     0.045     2.390     2.417
    60   1 H        0.924     0.048     2.349     2.397
    61   1 H        0.926     0.042     2.416     2.431
    62   1 H        0.924     0.067     2.115     2.274
    63   1 H        0.924     0.074     2.045     2.236
    64   1 H        0.925     0.074     2.047     2.237
    65   1 H        0.924     0.036     2.506     2.476
    66   1 H        0.925     0.064     2.156     2.296
    67   1 H        0.925     0.029     2.606     2.525
    68   1 H        0.925     0.043     2.403     2.424
    69   1 H        0.925     0.062     2.179     2.308
    70   1 H        0.925     0.033     2.539     2.492
    71   1 H        0.925     0.048     2.342     2.393
    72   1 H        0.860     0.148     1.416     1.864

Wiberg/Mayer (AO) data.
largest (>0.10) Wiberg bond orders for each atom

     #   Z sym  total        # sym  WBO       # sym  WBO       # sym  WBO
 ---------------------------------------------------------------------------
     1   7 N    3.021 --     2 C    1.942    72 H    0.946
     2   6 C    3.930 --     1 N    1.942     3 C    0.998    47 H    0.915
     3   6 C    3.974 --     2 C    0.998     4 C    0.969    14 C    0.955
                            31 C    0.943
     4   6 C    3.944 --    13 C    1.428     5 C    1.318     3 C    0.969
     5   6 C    3.023 --     6 C    1.471     4 C    1.318    12 C    0.104
     6   6 C    3.723 --     5 C    1.471     9 C    1.295     7 O    0.739
     7   8 O    2.572 --     8 C    0.901    34 H    0.855     6 C    0.739
     8   6 C    3.858 --    35 H    0.979    37 H    0.975    36 H    0.969
                             7 O    0.901
     9   6 C    3.903 --    12 C    1.382     6 C    1.295    10 O    1.055
    10   8 O    2.215 --     9 C    1.055    11 C    0.974
    11   6 C    3.936 --    39 H    0.979    40 H    0.977    38 H    0.977
                            10 O    0.974
    12   6 C    3.969 --    13 C    1.407     9 C    1.382    41 H    0.963
                             5 C    0.104
    13   6 C    3.951 --     4 C    1.428    12 C    1.407    42 H    0.960
    14   6 C    3.969 --    15 C    0.980    44 H    0.974    43 H    0.967
                             3 C    0.955
    15   6 C    3.986 --    16 C    1.061    14 C    0.980    45 H    0.958
                            46 H    0.930
    16   6 C    3.529 --    17 N    1.366    15 C    1.061    48 H    0.960
    17   7 N    3.439 --    16 C    1.366    30 C    1.001    18 C    0.990
    18   6 C    3.958 --    17 N    0.990    50 H    0.968    19 C    0.966
                            49 H    0.966
    19   6 C    3.976 --    20 C    1.008    52 H    0.973    51 H    0.973
                            18 C    0.966
    20   6 C    3.956 --    21 C    1.419    29 C    1.375    19 C    1.008
    21   6 C    3.961 --    20 C    1.419    22 C    1.411    53 H    0.969
    22   6 C    3.967 --    21 C    1.411    23 C    1.392    54 H    0.964
    23   6 C    3.908 --    22 C    1.392    26 C    1.231    24 O    1.098
    24   8 O    2.253 --    23 C    1.098    25 C    0.979
    25   6 C    3.934 --    24 O    0.979    57 H    0.978    56 H    0.974
                            55 H    0.974
    26   6 C    3.911 --    29 C    1.403    23 C    1.231    27 O    1.091
    27   8 O    2.252 --    26 C    1.091    28 C    0.982
    28   6 C    3.937 --    27 O    0.982    58 H    0.977    59 H    0.975
                            60 H    0.974
    29   6 C    3.965 --    26 C    1.403    20 C    1.375    61 H    0.963
    30   6 C    3.964 --    17 N    1.001    64 H    0.978    62 H    0.967
                            63 H    0.967
    31   6 C    3.978 --    32 C    1.009    33 C    1.008    65 H    0.963
                             3 C    0.943
    32   6 C    3.987 --    31 C    1.009    68 H    0.983    67 H    0.983
                            66 H    0.977
    33   6 C    3.986 --    31 C    1.008    70 H    0.984    71 H    0.982
                            69 H    0.978
    34   1 H    0.868 --     7 O    0.855
    35   1 H    0.991 --     8 C    0.979
    36   1 H    0.983 --     8 C    0.969
    37   1 H    0.989 --     8 C    0.975
    38   1 H    0.997 --    11 C    0.977
    39   1 H    0.995 --    11 C    0.979
    40   1 H    0.997 --    11 C    0.977
    41   1 H    0.995 --    12 C    0.963
    42   1 H    0.993 --    13 C    0.960
    43   1 H    0.994 --    14 C    0.967
    44   1 H    0.997 --    14 C    0.974
    45   1 H    0.995 --    15 C    0.958
    46   1 H    0.968 --    15 C    0.930
    47   1 H    0.990 --     2 C    0.915
    48   1 H    0.996 --    16 C    0.960
    49   1 H    0.992 --    18 C    0.966
    50   1 H    0.995 --    18 C    0.968
    51   1 H    0.996 --    19 C    0.973
    52   1 H    0.996 --    19 C    0.973
    53   1 H    0.998 --    21 C    0.969
    54   1 H    0.996 --    22 C    0.964
    55   1 H    0.994 --    25 C    0.974
    56   1 H    0.994 --    25 C    0.974
    57   1 H    0.993 --    25 C    0.978
    58   1 H    0.994 --    28 C    0.977
    59   1 H    0.995 --    28 C    0.975
    60   1 H    0.995 --    28 C    0.974
    61   1 H    0.997 --    29 C    0.963
    62   1 H    0.985 --    30 C    0.967
    63   1 H    0.989 --    30 C    0.967
    64   1 H    0.994 --    30 C    0.978
    65   1 H    0.995 --    31 C    0.963
    66   1 H    0.994 --    32 C    0.977
    67   1 H    0.998 --    32 C    0.983
    68   1 H    0.996 --    32 C    0.983
    69   1 H    0.994 --    33 C    0.978
    70   1 H    0.998 --    33 C    0.984
    71   1 H    0.995 --    33 C    0.982
    72   1 H    0.974 --     1 N    0.946
 ---------------------------------------------------------------------------

molecular dipole:
                 x           y           z       tot (Debye)
 q only:       -2.993      -1.412      -2.306
   full:       -2.720      -1.848      -2.179      10.026

           -------------------------------------------------
          | TOTAL ENERGY             -100.685207120923 Eh   |
          | GRADIENT NORM               0.002721003806 Eh/α |
          | HOMO-LUMO GAP               1.208135450392 eV   |
           -------------------------------------------------

 * finished run on 2024/04/06 at 11:16:10.382
