   * xtb version 6.6.1 (8d0f1dd) compiled by 'conda@1efc2f54142f' on 2023-08-01
          program call               : xtb xtbopt.xyz --opt crude --input .xc2 --gfn2

   ID    Z sym.   atoms
    1    7 N      1, 17
    2    6 C      2-6, 8, 9, 11-16, 18-23, 25, 26, 28-33
    3    8 O      7, 10, 24, 27
    4    1 H      34-72
########################################################################
[WARNING] Please study the warnings concerning your input carefully
-1- readin_getIntValue: could not parse ''
########################################################################

          :  Hamiltonian                  GFN2-xTB          :
 * total energy  :   -99.1858363 Eh     change       -0.1631406E-10 Eh
 * total energy  :   -99.2734953 Eh     change       -0.8765905E-01 Eh
 * total energy  :   -99.2742147 Eh     change       -0.7194325E-03 Eh
 * total energy  :   -99.2744187 Eh     change       -0.2039583E-03 Eh
   *** GEOMETRY OPTIMIZATION CONVERGED AFTER 4 ITERATIONS ***

 final structure:
================
72
 xtb: 6.6.1 (8d0f1dd)
N           -1.86534473467339        2.92525139613481        2.34890581288683
C           -1.82178176286208        2.15324098436994        1.36437164959502
C           -2.90490314232102        2.03284021459097        0.33280495312262
C           -3.40049111252045        0.59883776774950        0.25836929151985
C           -4.07510765294438        0.16467326188969       -0.89223840578900
C           -4.54539742747998       -1.11425542445671       -0.86008341217195
O           -5.22462306143880       -1.56184001834345       -2.11908868605931
C           -6.64111564827194       -1.82103477878712       -1.98717718123169
C           -4.43724120946684       -2.03271889286578        0.18938572489997
O           -4.99371230956436       -3.26558487140711        0.02436843273210
C           -4.90487550031424       -4.18772568602614        1.08925982205826
C           -3.75995914034126       -1.56633427989137        1.30827897545793
C           -3.25714015612607       -0.26937203199135        1.33246554439295
C           -2.27254425235866        2.43714277793764       -1.02210314044370
C           -1.30273029674712        1.40467157041610       -1.62280216755956
C           -0.01727687149497        1.29031171980321       -0.90236583194980
N            0.57329918501694        0.14737506727223       -0.54765939902350
C            1.95838679037928        0.13836294371766       -0.14336347480965
C            2.88526359521839       -0.27867039390227       -1.30246099271555
C            4.32305134916168       -0.11332823705099       -0.89892038987212
C            4.98034336054902        1.08541002930995       -1.11300004172003
C            6.30013686953692        1.25116129732136       -0.72031880472857
C            6.98609949450710        0.21923474951827       -0.09909841521881
O            8.26859096018897        0.26776426937158        0.31910459650263
C            9.01259967819006        1.44303431395135        0.09889921888471
C            6.31774372838204       -1.01210801890352        0.13183615075342
O            7.05964261684009       -1.96356013166439        0.74168110651909
C            6.48681376636824       -3.22437212195597        0.98729569716361
C            4.99982887904069       -1.15550082284930       -0.26844312804535
C           -0.07997714195801       -1.12883592372691       -0.70213665338196
C           -4.14509580884239        2.93438136144701        0.60684825102352
C           -4.81987082480432        2.58537987848072        1.93146171031649
C           -3.82289430115023        4.42637837121707        0.58231675432518
H           -5.09817632001929       -0.79289514991981       -2.71133894382194
H           -7.16169453563612       -0.96367955154571       -1.55899309957252
H           -6.75286916157675       -2.68689394561460       -1.33543257358320
H           -7.03338483761324       -2.05271199037863       -2.97563848836746
H           -5.41039879416458       -3.81063826590913        1.98248022458467
H           -5.40720363292334       -5.08763628868201        0.73958691080719
H           -3.86401097761460       -4.42191216408756        1.32653279976207
H           -3.63032960905928       -2.19725698693857        2.17234122667501
H           -2.75712536286867        0.06645587370292        2.23016220242231
H           -3.08567674271810        2.57588207007025       -1.73404973364176
H           -1.75169087056020        3.38666968850963       -0.90057204807753
H           -1.80959964913045        0.44502622304519       -1.70316487380253
H           -1.07760130907259        1.75036815455148       -2.64057682179958
H           -0.95438678690306        1.51109609996033        1.12959054280249
H            0.55505456531858        2.19242906044746       -0.75046813559394
H            2.08740855338085       -0.55180575592550        0.69472804712040
H            2.24100869462281        1.13857396008347        0.19089514254538
H            2.66761513716101        0.35444710762728       -2.16468754889965
H            2.68573385276313       -1.31581086854099       -1.57515448894294
H            4.47053912679273        1.90176004315607       -1.60209112838199
H            6.78744437165299        2.19358481583504       -0.90885949242647
H            8.57869767787136        2.29800378960961        0.62682857312065
H            9.09099709269787        1.67394846551166       -0.96794965203239
H           10.00462421847223        1.23957487845836        0.49749360747098
H            7.26933600205483       -3.81350345191501        1.46165816891320
H            5.62940100884933       -3.15179947712146        1.66465677523952
H            6.17878759477951       -3.71442677801094        0.05806194868759
H            4.48489243615286       -2.08952564578883       -0.10593829853890
H           -0.14286694736647       -1.42250951997715       -1.75325390300643
H           -1.08912032956128       -1.08969395010445       -0.28695046738776
H            0.48610263339316       -1.88599746468525       -0.16452948549062
H           -4.85264877207106        2.71652982486577       -0.20314464158791
H           -4.15431092532551        2.81377288582559        2.75766685392991
H           -5.08897294664741        1.53255484786047        1.97312131284377
H           -5.72683421195055        3.17371680849281        2.04474416088401
H           -3.06269119548423        4.65524742393712        1.32239982886089
H           -3.48365547927977        4.75344208026540       -0.39655890497435
H           -4.71974805913534        4.98909111879288        0.82859875746728
H           -1.05584782979921        2.94045121602083        2.96267692130203

          :  Hamiltonian                  GFN2-xTB          :
         :: total energy             -99.274418686956 Eh    ::
         :: gradient norm              0.007260525684 Eh/a0 ::
         :: HOMO-LUMO gap              1.221223354649 eV    ::
         :: SCC energy              -100.644017086401 Eh    ::
         :: -> dispersion             -0.075113975970 Eh    ::
         :: repulsion energy           1.368462237435 Eh    ::

    * Orbital Energies and Occupations

         #    Occupation            Energy/Eh            Energy/eV
      -------------------------------------------------------------
         1        2.0000           -0.8887541             -24.1842
       ...           ...                  ...                  ...
        78        1.9991           -0.5159255             -14.0390
        79        1.9990           -0.5137439             -13.9797
        80        1.9989           -0.5126977             -13.9512
        81        1.9982           -0.5044255             -13.7261
        82        1.9978           -0.5013234             -13.6417
        83        1.9973           -0.4977384             -13.5442
        84        1.9970           -0.4961974             -13.5022
        85        1.9955           -0.4898104             -13.3284
        86        1.9863           -0.4720477             -12.8451
        87        1.9763           -0.4632701             -12.6062
        88        1.9534           -0.4523711             -12.3096
        89        1.9015           -0.4400963             -11.9756
        90        1.6843           -0.4197336             -11.4215 (HOMO)
        91        0.4773           -0.3748544             -10.2003 (LUMO)
        92        0.0175           -0.3183753              -8.6634
        93        0.0119           -0.3121589              -8.4943
        94        0.0051           -0.2986960              -8.1279
        95        0.0042           -0.2957808              -8.0486
        96        0.0036           -0.2930683              -7.9748
        97        0.0000           -0.2076450              -5.6503
        98        0.0000           -0.1780004              -4.8436
        99        0.0000           -0.1703123              -4.6344
       100                         -0.1165366              -3.1711
       101                         -0.0958950              -2.6094
       ...                                ...                  ...
       171                          0.5942025              16.1691
      -------------------------------------------------------------
                  HL-Gap            0.0448791 Eh            1.2212 eV

     #   Z          covCN         q      C6AA      α(0)
     1   7 N        1.774    -0.285    28.197     7.863
     2   6 C        2.826     0.100    25.768     8.318
     3   6 C        3.908     0.007    20.403     6.420
     4   6 C        2.995     0.010    27.776     8.645
     5   6 C        1.984    -0.233    37.944     9.948
     6   6 C        2.866     0.050    26.867     8.496
     7   8 O        2.484    -0.134    16.293     5.452
     8   6 C        3.625    -0.016    21.300     6.650
     9   6 C        2.855     0.124    25.279     8.241
    10   8 O        1.704    -0.280    18.639     5.829
    11   6 C        3.644     0.033    20.350     6.484
    12   6 C        2.928    -0.078    29.957     8.976
    13   6 C        2.918    -0.048    29.182     8.859
    14   6 C        3.813    -0.065    21.734     6.636
    15   6 C        3.802    -0.068    21.807     6.649
    16   6 C        2.842    -0.000    28.031     8.677
    17   7 N        2.729    -0.002    21.294     6.854
    18   6 C        3.755    -0.014    20.879     6.515
    19   6 C        3.808    -0.069    21.821     6.650
    20   6 C        2.969    -0.003    28.107     8.696
    21   6 C        2.922    -0.051    29.273     8.873
    22   6 C        2.915    -0.069    29.728     8.941
    23   6 C        2.865     0.130    25.148     8.220
    24   8 O        1.706    -0.231    17.837     5.702
    25   6 C        3.646     0.028    20.435     6.497
    26   6 C        2.863     0.130    25.155     8.221
    27   8 O        1.706    -0.234    17.873     5.708
    28   6 C        3.645     0.030    20.398     6.491
    29   6 C        2.920    -0.081    30.020     8.985
    30   6 C        3.699    -0.064    21.893     6.692
    31   6 C        3.854    -0.007    20.673     6.467
    32   6 C        3.756    -0.115    22.752     6.801
    33   6 C        3.755    -0.119    22.829     6.813
    34   1 H        0.803     0.365     0.555     1.170
    35   1 H        0.924     0.091     1.870     2.138
    36   1 H        0.925     0.125     1.570     1.959
    37   1 H        0.925     0.096     1.818     2.109
    38   1 H        0.924     0.049     2.333     2.389
    39   1 H        0.925     0.068     2.113     2.273
    40   1 H        0.924     0.046     2.364     2.405
    41   1 H        0.926     0.042     2.420     2.433
    42   1 H        0.926     0.035     2.520     2.482
    43   1 H        0.925     0.066     2.126     2.280
    44   1 H        0.925     0.050     2.320     2.382
    45   1 H        0.925     0.065     2.137     2.286
    46   1 H        0.923     0.071     2.078     2.254
    47   1 H        0.923    -0.002     3.100     2.753
    48   1 H        0.926     0.062     2.176     2.307
    49   1 H        0.924     0.062     2.176     2.307
    50   1 H        0.924     0.066     2.133     2.284
    51   1 H        0.924     0.051     2.307     2.375
    52   1 H        0.924     0.051     2.310     2.377
    53   1 H        0.926     0.041     2.440     2.443
    54   1 H        0.926     0.054     2.274     2.358
    55   1 H        0.924     0.050     2.320     2.382
    56   1 H        0.924     0.051     2.305     2.374
    57   1 H        0.925     0.078     2.003     2.213
    58   1 H        0.925     0.077     2.008     2.216
    59   1 H        0.924     0.045     2.389     2.417
    60   1 H        0.924     0.048     2.348     2.396
    61   1 H        0.926     0.043     2.415     2.430
    62   1 H        0.924     0.067     2.115     2.274
    63   1 H        0.924     0.074     2.041     2.234
    64   1 H        0.925     0.074     2.046     2.237
    65   1 H        0.924     0.035     2.511     2.478
    66   1 H        0.925     0.064     2.156     2.296
    67   1 H        0.925     0.029     2.603     2.523
    68   1 H        0.925     0.043     2.404     2.425
    69   1 H        0.925     0.062     2.179     2.308
    70   1 H        0.925     0.033     2.542     2.493
    71   1 H        0.925     0.048     2.342     2.393
    72   1 H        0.860     0.148     1.415     1.864

Wiberg/Mayer (AO) data.
largest (>0.10) Wiberg bond orders for each atom

     #   Z sym  total        # sym  WBO       # sym  WBO       # sym  WBO
 ---------------------------------------------------------------------------
     1   7 N    3.022 --     2 C    1.942    72 H    0.946
     2   6 C    3.929 --     1 N    1.942     3 C    0.998    47 H    0.915
     3   6 C    3.974 --     2 C    0.998     4 C    0.969    14 C    0.955
                            31 C    0.943
     4   6 C    3.943 --    13 C    1.427     5 C    1.319     3 C    0.969
     5   6 C    3.034 --     6 C    1.469     4 C    1.319    12 C    0.104
     6   6 C    3.734 --     5 C    1.469     9 C    1.294     7 O    0.757
     7   8 O    2.576 --     8 C    0.909    34 H    0.832     6 C    0.757
     8   6 C    3.866 --    35 H    0.979    37 H    0.976    36 H    0.968
                             7 O    0.909
     9   6 C    3.904 --    12 C    1.381     6 C    1.294    10 O    1.055
    10   8 O    2.215 --     9 C    1.055    11 C    0.975
    11   6 C    3.937 --    39 H    0.979    40 H    0.977    38 H    0.977
                            10 O    0.975
    12   6 C    3.969 --    13 C    1.408     9 C    1.381    41 H    0.963
                             5 C    0.104
    13   6 C    3.951 --     4 C    1.427    12 C    1.408    42 H    0.960
    14   6 C    3.969 --    15 C    0.980    44 H    0.974    43 H    0.967
                             3 C    0.955
    15   6 C    3.986 --    16 C    1.060    14 C    0.980    45 H    0.959
                            46 H    0.930
    16   6 C    3.530 --    17 N    1.366    15 C    1.060    48 H    0.960
    17   7 N    3.439 --    16 C    1.366    30 C    1.001    18 C    0.990
    18   6 C    3.958 --    17 N    0.990    50 H    0.968    19 C    0.966
                            49 H    0.966
    19   6 C    3.976 --    20 C    1.008    52 H    0.973    51 H    0.973
                            18 C    0.966
    20   6 C    3.956 --    21 C    1.419    29 C    1.375    19 C    1.008
    21   6 C    3.961 --    20 C    1.419    22 C    1.411    53 H    0.969
    22   6 C    3.967 --    21 C    1.411    23 C    1.392    54 H    0.964
    23   6 C    3.908 --    22 C    1.392    26 C    1.231    24 O    1.098
    24   8 O    2.253 --    23 C    1.098    25 C    0.979
    25   6 C    3.934 --    24 O    0.979    57 H    0.978    56 H    0.974
                            55 H    0.974
    26   6 C    3.911 --    29 C    1.403    23 C    1.231    27 O    1.091
    27   8 O    2.252 --    26 C    1.091    28 C    0.982
    28   6 C    3.937 --    27 O    0.982    58 H    0.977    59 H    0.975
                            60 H    0.974
    29   6 C    3.965 --    26 C    1.403    20 C    1.375    61 H    0.963
    30   6 C    3.964 --    17 N    1.001    64 H    0.978    62 H    0.967
                            63 H    0.967
    31   6 C    3.978 --    32 C    1.009    33 C    1.008    65 H    0.964
                             3 C    0.943
    32   6 C    3.987 --    31 C    1.009    68 H    0.983    67 H    0.983
                            66 H    0.977
    33   6 C    3.986 --    31 C    1.008    70 H    0.984    71 H    0.982
                            69 H    0.978
    34   1 H    0.864 --     7 O    0.832
    35   1 H    0.992 --     8 C    0.979
    36   1 H    0.984 --     8 C    0.968
    37   1 H    0.990 --     8 C    0.976
    38   1 H    0.997 --    11 C    0.977
    39   1 H    0.995 --    11 C    0.979
    40   1 H    0.997 --    11 C    0.977
    41   1 H    0.995 --    12 C    0.963
    42   1 H    0.993 --    13 C    0.960
    43   1 H    0.994 --    14 C    0.967
    44   1 H    0.997 --    14 C    0.974
    45   1 H    0.995 --    15 C    0.959
    46   1 H    0.969 --    15 C    0.930
    47   1 H    0.989 --     2 C    0.915
    48   1 H    0.996 --    16 C    0.960
    49   1 H    0.992 --    18 C    0.966
    50   1 H    0.995 --    18 C    0.968
    51   1 H    0.996 --    19 C    0.973
    52   1 H    0.996 --    19 C    0.973
    53   1 H    0.998 --    21 C    0.969
    54   1 H    0.996 --    22 C    0.964
    55   1 H    0.994 --    25 C    0.974
    56   1 H    0.994 --    25 C    0.974
    57   1 H    0.993 --    25 C    0.978
    58   1 H    0.993 --    28 C    0.977
    59   1 H    0.995 --    28 C    0.975
    60   1 H    0.995 --    28 C    0.974
    61   1 H    0.997 --    29 C    0.963
    62   1 H    0.985 --    30 C    0.967
    63   1 H    0.989 --    30 C    0.967
    64   1 H    0.994 --    30 C    0.978
    65   1 H    0.995 --    31 C    0.964
    66   1 H    0.994 --    32 C    0.977
    67   1 H    0.998 --    32 C    0.983
    68   1 H    0.996 --    32 C    0.983
    69   1 H    0.994 --    33 C    0.978
    70   1 H    0.998 --    33 C    0.984
    71   1 H    0.995 --    33 C    0.982
    72   1 H    0.974 --     1 N    0.946
 ---------------------------------------------------------------------------

molecular dipole:
                 x           y           z       tot (Debye)
 q only:       -2.933      -1.295      -2.396
   full:       -2.676      -1.758      -2.222       9.906

           -------------------------------------------------
          | TOTAL ENERGY              -99.274418686956 Eh   |
          | GRADIENT NORM               0.007260525684 Eh/α |
          | HOMO-LUMO GAP               1.221223354649 eV   |
           -------------------------------------------------

 * finished run on 2024/04/06 at 11:16:11.339
