   * xtb version 6.6.1 (8d0f1dd) compiled by 'conda@1efc2f54142f' on 2023-08-01
          program call               : xtb struc.xyz --opt loose --input .xc1 --gfn2

   ID    Z sym.   atoms
    1    6 C      1, 3, 5-7, 10, 11, 14
    2    7 N      2, 4, 9, 13
    3    8 O      8, 12
    4    1 H      15-25
constraining bond 5 18 to    5.1400000 Å, actual value:    3.2287314 Å

          :  Hamiltonian                  GFN2-xTB          :
 * total energy  :   -16.1580377 Eh     change       -0.6650680E-10 Eh
 * total energy  :   -30.8677996 Eh     change       -0.1470976E+02 Eh
 * total energy  :   -37.8984813 Eh     change       -0.7030682E+01 Eh
 * total energy  :   -41.0977834 Eh     change       -0.3199302E+01 Eh
 * total energy  :   -41.7419322 Eh     change       -0.6441488E+00 Eh
 * total energy  :   -41.7939983 Eh     change       -0.5206609E-01 Eh
 * total energy  :   -41.8148076 Eh     change       -0.2080934E-01 Eh
 * total energy  :   -41.8414093 Eh     change       -0.2660165E-01 Eh
 * total energy  :   -41.8627801 Eh     change       -0.2137075E-01 Eh
 * total energy  :   -41.9015120 Eh     change       -0.3873190E-01 Eh
 * total energy  :   -42.0550866 Eh     change       -0.1291593E-01 Eh
 * total energy  :   -42.0633224 Eh     change       -0.8235740E-02 Eh
 * total energy  :   -42.0712937 Eh     change       -0.7971290E-02 Eh
 * total energy  :   -42.0760612 Eh     change       -0.4767524E-02 Eh
 * total energy  :   -42.0863183 Eh     change       -0.1025709E-01 Eh
 * total energy  :   -42.0897756 Eh     change       -0.3457284E-02 Eh
 * total energy  :   -42.0902263 Eh     change       -0.4507033E-03 Eh
 * total energy  :   -42.0903614 Eh     change       -0.1351027E-03 Eh
 * total energy  :   -42.0903763 Eh     change       -0.1496129E-04 Eh
   *** GEOMETRY OPTIMIZATION CONVERGED AFTER 26 ITERATIONS ***

 final structure:
================
25
 xtb: 6.6.1 (8d0f1dd)
C            3.16010934635803        1.09847714938991        0.02991638539197
N            2.19546296211697        0.03356759362542        0.01121911136918
C            2.47660091580736       -1.27212533513391       -0.00086686556356
N            1.30118622682036       -1.94508110170179        0.00160954235540
C            0.26097015722511       -1.06077527797129        0.01320144088865
C            0.83138452101327        0.20740822904702        0.01972476114520
C            0.01459569656557        1.40005560749738        0.00593789253948
O            0.42014106026279        2.53917715277883       -0.00778092187034
N           -1.34620355594354        1.08837474734840        0.00270385456236
C           -2.28707575443336        2.19697958040274       -0.01117177363447
C           -1.92900313750886       -0.16856180929116        0.00466824263740
O           -3.12100782207566       -0.31723113538534        0.00033373531338
N           -1.06531677778547       -1.27771259410958        0.01047694906375
C           -1.62997864496387       -2.61077396919426        0.00371402059480
H            3.65532459505592        1.14069067937082        1.00180260486879
H            3.91618356134541        0.92696597779223       -0.73554402448105
H            2.65387156351558        2.04591637293571       -0.15075903420408
H            5.33923319902546       -1.83965199603128       -0.12532365458278
H           -1.72039259065200        3.12590300926137       -0.00606541064660
H           -2.91429219071117        2.14020471516428       -0.90190472128928
H           -2.93647257068486        2.14280850839123        0.86351629836579
H           -1.31273524477399       -3.16230500907858        0.88966493601700
H           -1.32583367444632       -3.14842793560197       -0.89540309579453
H           -2.71536705157657       -2.51269579410801        0.01169616382668
H            1.23904672454382       -2.95294882379815       -0.00419481897312

          :  Hamiltonian                  GFN2-xTB          :
         :: total energy             -42.090376343353 Eh    ::
         :: gradient norm              0.002145267323 Eh/a0 ::
         :: HOMO-LUMO gap              0.945721894127 eV    ::
         :: SCC energy               -42.595095972773 Eh    ::
         :: -> dispersion             -0.022598639377 Eh    ::
         :: repulsion energy           0.504629426080 Eh    ::

    * Orbital Energies and Occupations

         #    Occupation            Energy/Eh            Energy/eV
      -------------------------------------------------------------
         1        2.0000           -0.8972898             -24.4165
       ...           ...                  ...                  ...
        25        1.9997           -0.6671356             -18.1537
        26        1.9997           -0.6662677             -18.1301
        27        1.9987           -0.6428302             -17.4923
        28        1.9978           -0.6344013             -17.2629
        29        1.9964           -0.6264847             -17.0475
        30        1.9936           -0.6173041             -16.7977
        31        1.9913           -0.6124698             -16.6662
        32        1.9877           -0.6069893             -16.5170
        33        1.9715           -0.5935762             -16.1520
        34        1.9280           -0.5785106             -15.7421
        35        1.9096           -0.5747681             -15.6402
        36        1.7181           -0.5550865             -15.1047
        37        1.7106           -0.5546019             -15.0915 (HOMO)
        38        0.7940           -0.5198473             -14.1458 (LUMO)
        39        0.0031           -0.4238121             -11.5325
        40        0.0005           -0.3943720             -10.7314
        41        0.0001           -0.3748532             -10.2003
        42        0.0000           -0.2958632              -8.0508
        43                         -0.2112672              -5.7489
        44                         -0.1682993              -4.5797
        45                         -0.1439002              -3.9157
        46                         -0.1338416              -3.6420
        47                         -0.0676812              -1.8417
        48                         -0.0409442              -1.1141
       ...                                ...                  ...
        67                          0.5388447              14.6627
      -------------------------------------------------------------
                  HL-Gap            0.0347546 Eh            0.9457 eV

     #   Z          covCN         q      C6AA      α(0)
     1   6 C        3.692    -0.085    22.306     6.758
     2   7 N        2.847     0.076    19.911     6.627
     3   6 C        2.067    -0.053    32.363     9.190
     4   7 N        2.813    -0.059    22.379     7.026
     5   6 C        3.015     0.116    25.422     8.271
     6   6 C        3.094    -0.011    28.175     8.700
     7   6 C        2.765     0.274    22.375     7.747
     8   8 O        0.858    -0.336    20.441     6.062
     9   7 N        2.745    -0.074    22.667     7.071
    10   6 C        3.709    -0.062    21.834     6.678
    11   6 C        2.730     0.319    21.585     7.606
    12   8 O        0.860    -0.339    20.494     6.070
    13   7 N        2.738    -0.042    22.058     6.975
    14   6 C        3.697    -0.071    22.033     6.714
    15   1 H        0.924     0.109     1.708     2.044
    16   1 H        0.925     0.108     1.716     2.048
    17   1 H        0.925     0.122     1.597     1.976
    18   1 H        0.000     0.129     3.847     3.587
    19   1 H        0.925     0.121     1.606     1.982
    20   1 H        0.924     0.111     1.690     2.033
    21   1 H        0.924     0.111     1.687     2.031
    22   1 H        0.924     0.094     1.842     2.122
    23   1 H        0.924     0.094     1.841     2.122
    24   1 H        0.925     0.129     1.546     1.944
    25   1 H        0.860     0.219     1.013     1.577

Wiberg/Mayer (AO) data.
largest (>0.10) Wiberg bond orders for each atom

     #   Z sym  total        # sym  WBO       # sym  WBO       # sym  WBO
 ---------------------------------------------------------------------------
     1   6 C    3.905 --     2 N    0.996    17 H    0.959    16 H    0.958
                            15 H    0.949
     2   7 N    3.647 --     3 C    1.365     6 C    1.169     1 C    0.996
     3   6 C    2.882 --     2 N    1.365     4 N    1.289
     4   7 N    3.583 --     3 C    1.289     5 C    1.195    25 H    0.923
     5   6 C    3.906 --     6 C    1.319    13 N    1.212     4 N    1.195
     6   6 C    3.823 --     5 C    1.319     2 N    1.169     7 C    1.072
     7   6 C    3.949 --     8 O    1.681     9 N    1.097     6 C    1.072
     8   8 O    1.985 --     7 C    1.681     9 N    0.130
     9   7 N    3.512 --    11 C    1.118     7 C    1.097    10 C    0.975
                             8 O    0.130    12 O    0.123
    10   6 C    3.878 --     9 N    0.975    19 H    0.961    21 H    0.949
                            20 H    0.949
    11   6 C    3.954 --    12 O    1.693     9 N    1.118    13 N    1.051
    12   8 O    2.003 --    11 C    1.693     9 N    0.123    13 N    0.109
    13   7 N    3.499 --     5 C    1.212    11 C    1.051    14 C    0.978
                            12 O    0.109
    14   6 C    3.908 --    13 N    0.978    24 H    0.962    22 H    0.962
                            23 H    0.961
    15   1 H    0.975 --     1 C    0.949
    16   1 H    0.979 --     1 C    0.958
    17   1 H    0.980 --     1 C    0.959
    18   1 H    0.065
    19   1 H    0.979 --    10 C    0.961
    20   1 H    0.967 --    10 C    0.949
    21   1 H    0.967 --    10 C    0.949
    22   1 H    0.978 --    14 C    0.962
    23   1 H    0.978 --    14 C    0.961
    24   1 H    0.982 --    14 C    0.962
    25   1 H    0.951 --     4 N    0.923
 ---------------------------------------------------------------------------

molecular dipole:
                 x           y           z       tot (Debye)
 q only:        2.022      -1.702      -0.009
   full:        1.815      -1.957       0.002       6.785

           -------------------------------------------------
          | TOTAL ENERGY              -42.090376343353 Eh   |
          | GRADIENT NORM               0.002145267323 Eh/α |
          | HOMO-LUMO GAP               0.945721894127 eV   |
           -------------------------------------------------

 * finished run on 2024/06/05 at 20:00:11.145
