   * xtb version 6.6.1 (8d0f1dd) compiled by 'conda@1efc2f54142f' on 2023-08-01
          program call               : xtb xtbopt.xyz --opt crude --input .xc2 --gfn2

   ID    Z sym.   atoms
    1    6 C      1, 3, 5-7, 10, 11, 14
    2    7 N      2, 4, 9, 13
    3    8 O      8, 12
    4    1 H      15-25
########################################################################
[WARNING] Please study the warnings concerning your input carefully
-1- readin_getIntValue: could not parse ''
########################################################################

          :  Hamiltonian                  GFN2-xTB          :
 * total energy  :   -39.8725952 Eh     change       -0.1456613E-11 Eh
 * total energy  :   -42.1585502 Eh     change       -0.2285955E+01 Eh
 * total energy  :   -42.1879639 Eh     change       -0.2941370E-01 Eh
 * total energy  :   -42.1905688 Eh     change       -0.2604899E-02 Eh
 * total energy  :   -42.1915694 Eh     change       -0.1000646E-02 Eh
 * total energy  :   -42.1920000 Eh     change       -0.4305450E-03 Eh
 * total energy  :   -42.1928406 Eh     change       -0.8405903E-03 Eh
 * total energy  :   -42.1937007 Eh     change       -0.8601331E-03 Eh
 * total energy  :   -42.1946292 Eh     change       -0.9284790E-03 Eh
 * total energy  :   -42.1951562 Eh     change       -0.5269854E-03 Eh
 * total energy  :   -42.1954011 Eh     change       -0.2449701E-03 Eh
 * total energy  :   -42.1955160 Eh     change       -0.1148153E-03 Eh
 * total energy  :   -42.1956241 Eh     change       -0.1081235E-03 Eh
 * total energy  :   -42.1957722 Eh     change       -0.1481046E-03 Eh
 * total energy  :   -42.1959301 Eh     change       -0.1579147E-03 Eh
   *** GEOMETRY OPTIMIZATION CONVERGED AFTER 15 ITERATIONS ***

 final structure:
================
25
 xtb: 6.6.1 (8d0f1dd)
C            3.20691592699163        0.95412166479284        0.10260984505663
N            2.29486265935869       -0.01484105990489        0.04591705925209
C            2.53471285175130       -1.35976858406841        0.00279445434757
N            1.34174360603062       -2.03426258145650       -0.04592173231527
C            0.34132771598354       -1.13879978634876       -0.03466506297040
C            0.90565151575800        0.15156734163429        0.02280433347660
C            0.07263128695441        1.24700873483693        0.03855021771366
O            2.79227467321579        2.23516075361333        0.13669072482963
N           -1.27465018559151        1.01774138174121       -0.00624650630559
C           -2.17522573849054        2.15468603412177        0.03627883167226
C           -1.87041580105473       -0.23878075484409       -0.05419506936154
O           -3.06099987345765       -0.39015527475251       -0.08377832629779
N           -0.99934625885797       -1.33983782182950       -0.07275707988632
C           -1.54922073406677       -2.67785116861717       -0.12688761966573
H            3.51377884108309        2.86053557086627        0.23777355092635
H            4.25007161945216        0.68408191859713        0.09754123780523
H            0.40483031093131        2.26813072057347        0.08235125076775
H            3.50207990031455       -1.80769133978922        0.01107903760511
H           -1.77404265787445        2.96885758449133       -0.56453342176640
H           -3.14371641378002        1.84719190985810       -0.35704610143304
H           -2.31106432779550        2.49453478527325        1.06593168071382
H           -1.26253649160434       -3.24336734002729        0.76099521012321
H           -1.20621473773603       -3.19281286661351       -1.02488393230826
H           -2.63407121274945       -2.58893394049041       -0.15790096217586
H            1.26105503933288       -3.03827734005876       -0.08133000190532

          :  Hamiltonian                  GFN2-xTB          :
         :: total energy             -42.195930106177 Eh    ::
         :: gradient norm              0.009855386137 Eh/a0 ::
         :: HOMO-LUMO gap              1.171936862453 eV    ::
         :: SCC energy               -42.718085693898 Eh    ::
         :: -> dispersion             -0.022585185879 Eh    ::
         :: repulsion energy           0.522062054110 Eh    ::

    * Orbital Energies and Occupations

         #    Occupation            Energy/Eh            Energy/eV
      -------------------------------------------------------------
         1        2.0000           -0.8794471             -23.9310
       ...           ...                  ...                  ...
        25        2.0000           -0.6636239             -18.0581
        26        2.0000           -0.6553864             -17.8340
        27        2.0000           -0.6395713             -17.4036
        28        2.0000           -0.6368080             -17.3284
        29        2.0000           -0.6359002             -17.3037
        30        2.0000           -0.6222295             -16.9317
        31        1.9999           -0.6105488             -16.6139
        32        1.9999           -0.6097850             -16.5931
        33        1.9999           -0.6012238             -16.3601
        34        1.9995           -0.5815799             -15.8256
        35        1.9981           -0.5596480             -15.2288
        36        1.9947           -0.5433809             -14.7861
        37        1.5849           -0.4708254             -12.8118 (HOMO)
        38        0.4019           -0.4277575             -11.6399 (LUMO)
        39        0.0181           -0.3752329             -10.2106
        40        0.0032           -0.3476793              -9.4608
        41        0.0000           -0.2797016              -7.6111
        42        0.0000           -0.1908447              -5.1931
        43                         -0.1688515              -4.5947
        44                         -0.1231048              -3.3499
        45                         -0.1120851              -3.0500
        46                         -0.0960308              -2.6131
        47                         -0.0552445              -1.5033
        48                         -0.0250802              -0.6825
       ...                                ...                  ...
        67                          0.5472487              14.8914
      -------------------------------------------------------------
                  HL-Gap            0.0430679 Eh            1.1719 eV

     #   Z          covCN         q      C6AA      α(0)
     1   6 C        2.714     0.100    25.767     8.309
     2   7 N        2.800     0.070    20.018     6.645
     3   6 C        3.014    -0.016    28.383     8.739
     4   7 N        2.764    -0.059    22.386     7.027
     5   6 C        3.024     0.100    25.767     8.326
     6   6 C        3.070     0.018    27.544     8.605
     7   6 C        2.854    -0.002    28.081     8.685
     8   8 O        1.660    -0.338    19.680     5.989
     9   7 N        2.745    -0.025    21.733     6.924
    10   6 C        3.707    -0.074    22.059     6.714
    11   6 C        2.723     0.313    21.685     7.623
    12   8 O        0.859    -0.377    21.229     6.177
    13   7 N        2.737    -0.057    22.346     7.021
    14   6 C        3.698    -0.070    22.008     6.710
    15   1 H        0.805     0.344     0.601     1.218
    16   1 H        0.926     0.073     2.054     2.241
    17   1 H        0.926     0.112     1.683     2.029
    18   1 H        0.927     0.097     1.810     2.104
    19   1 H        0.925     0.088     1.898     2.155
    20   1 H        0.925     0.115     1.652     2.010
    21   1 H        0.924     0.091     1.869     2.138
    22   1 H        0.924     0.079     1.990     2.206
    23   1 H        0.924     0.079     1.991     2.207
    24   1 H        0.925     0.122     1.597     1.976
    25   1 H        0.860     0.217     1.022     1.583

Wiberg/Mayer (AO) data.
largest (>0.10) Wiberg bond orders for each atom

     #   Z sym  total        # sym  WBO       # sym  WBO       # sym  WBO
 ---------------------------------------------------------------------------
     1   6 C    3.581 --     2 N    1.283     8 O    1.122    16 H    0.956
                             3 C    0.120
     2   7 N    3.694 --     1 C    1.283     3 C    1.190     6 C    1.059
     3   6 C    3.626 --     2 N    1.190     4 N    1.185    18 H    0.962
                             1 C    0.120
     4   7 N    3.545 --     5 C    1.252     3 C    1.185    25 H    0.924
     5   6 C    3.844 --     4 N    1.252     6 C    1.222    13 N    1.174
     6   6 C    3.909 --     7 C    1.397     5 C    1.222     2 N    1.059
     7   6 C    3.699 --     6 C    1.397     9 N    1.205    17 H    0.952
     8   8 O    2.108 --     1 C    1.122    15 H    0.865
     9   7 N    3.528 --     7 C    1.205    11 C    1.100    10 C    0.981
                            12 O    0.128
    10   6 C    3.928 --     9 N    0.981    19 H    0.973    20 H    0.967
                            21 H    0.964
    11   6 C    3.946 --    12 O    1.694     9 N    1.100    13 N    1.059
    12   8 O    2.049 --    11 C    1.694    13 N    0.130     9 N    0.128
    13   7 N    3.488 --     5 C    1.174    11 C    1.059    14 C    0.980
                            12 O    0.130
    14   6 C    3.932 --    13 N    0.980    23 H    0.971    22 H    0.970
                            24 H    0.966
    15   1 H    0.881 --     8 O    0.865
    16   1 H    0.994 --     1 C    0.956
    17   1 H    0.986 --     7 C    0.952
    18   1 H    0.990 --     3 C    0.962
    19   1 H    0.988 --    10 C    0.973
    20   1 H    0.985 --    10 C    0.967
    21   1 H    0.983 --    10 C    0.964
    22   1 H    0.989 --    14 C    0.970
    23   1 H    0.989 --    14 C    0.971
    24   1 H    0.985 --    14 C    0.966
    25   1 H    0.952 --     4 N    0.924
 ---------------------------------------------------------------------------

molecular dipole:
                 x           y           z       tot (Debye)
 q only:        2.513      -0.286       0.075
   full:        3.114      -0.400       0.108       7.984

           -------------------------------------------------
          | TOTAL ENERGY              -42.195930106177 Eh   |
          | GRADIENT NORM               0.009855386137 Eh/α |
          | HOMO-LUMO GAP               1.171936862453 eV   |
           -------------------------------------------------

 * finished run on 2024/06/05 at 19:59:16.738
