   * xtb version 6.6.1 (8d0f1dd) compiled by 'conda@1efc2f54142f' on 2023-08-01
          program call               : xtb struc.xyz --opt loose --input .xc1 --gfn2

   ID    Z sym.   atoms
    1    6 C      1, 3, 5-7, 10, 11, 14
    2    7 N      2, 4, 9, 13
    3    8 O      8, 12
    4    1 H      15-25
constraining bond 16 17 to    3.2800000 Å, actual value:    1.7840536 Å

          :  Hamiltonian                  GFN2-xTB          :
 * total energy  :   -38.2520954 Eh     change       -0.6650680E-10 Eh
 * total energy  :   -40.3248623 Eh     change       -0.2072767E+01 Eh
 * total energy  :   -41.6531923 Eh     change       -0.1328330E+01 Eh
 * total energy  :   -42.0468193 Eh     change       -0.3936270E+00 Eh
 * total energy  :   -42.0763892 Eh     change       -0.2956993E-01 Eh
 * total energy  :   -42.0771022 Eh     change       -0.7129768E-03 Eh
 * total energy  :   -42.0794443 Eh     change       -0.2342077E-02 Eh
 * total energy  :   -42.0815646 Eh     change       -0.2120334E-02 Eh
 * total energy  :   -42.0881386 Eh     change       -0.6573992E-02 Eh
 * total energy  :   -42.0961696 Eh     change       -0.8030958E-02 Eh
 * total energy  :   -42.1900655 Eh     change       -0.1540361E-02 Eh
 * total energy  :   -42.1909479 Eh     change       -0.8824108E-03 Eh
 * total energy  :   -42.1913532 Eh     change       -0.4053042E-03 Eh
 * total energy  :   -42.1915790 Eh     change       -0.2257592E-03 Eh
 * total energy  :   -42.1917312 Eh     change       -0.1522501E-03 Eh
 * total energy  :   -42.1919378 Eh     change       -0.2065496E-03 Eh
 * total energy  :   -42.1920108 Eh     change       -0.7307158E-04 Eh
 * total energy  :   -42.1920809 Eh     change       -0.7009933E-04 Eh
 * total energy  :   -42.1921185 Eh     change       -0.3756064E-04 Eh
   *** GEOMETRY OPTIMIZATION CONVERGED AFTER 33 ITERATIONS ***

 final structure:
================
25
 xtb: 6.6.1 (8d0f1dd)
C            3.28895315036790        0.92780613364511        0.08933349873758
N            2.37691103606066       -0.04127598514732        0.02371300180754
C            2.58811784270540       -1.36834963177004       -0.11786268975842
N            1.38840200799385       -2.03836163931802       -0.13192247928495
C            0.39736985071630       -1.14360494250310       -0.00069721624032
C            0.98939316288927        0.13134041281915        0.07170387316736
C            0.18801291944724        1.26548425930106        0.02774284427240
O            0.63515892017246        2.51070845509888       -0.07199056008152
N           -1.15858212875208        1.06449469146068        0.04717298486623
C           -2.07305498388526        2.19618518487826        0.01529763337937
C           -1.78193487137951       -0.19043045135889        0.07079774069234
O           -2.97434997747488       -0.29176997669546        0.10630375490702
N           -0.94547989269156       -1.31240871951436        0.03148532005468
C           -1.54195433916519       -2.63389334164983        0.01157204516945
H            3.06031682869772        1.88453326635849        0.51311893336376
H            4.31325115474584        0.67627242386630       -0.06524354127401
H            1.59952714512081        2.51712170585078       -0.22315210781134
H            3.54627163257887       -1.83075057432940       -0.20218523907039
H           -1.50257897170571        3.11889096369718        0.02328819584355
H           -2.68891625925319        2.14122593245357       -0.88215279537185
H           -2.73210736333209        2.15159918490808        0.88172992242675
H           -1.20900777234394       -3.21138461469564        0.87449234651160
H           -1.28294116012167       -3.15588176183299       -0.91011892220941
H           -2.62263029559906       -2.50998706600822        0.05970721629170
H            1.30228387830784       -3.03932536791428       -0.21096214248910

          :  Hamiltonian                  GFN2-xTB          :
         :: total energy             -42.192118502797 Eh    ::
         :: gradient norm              0.002415346828 Eh/a0 ::
         :: HOMO-LUMO gap              1.538414539933 eV    ::
         :: SCC energy               -42.718214707012 Eh    ::
         :: -> dispersion             -0.023074168673 Eh    ::
         :: repulsion energy           0.525958455754 Eh    ::

    * Orbital Energies and Occupations

         #    Occupation            Energy/Eh            Energy/eV
      -------------------------------------------------------------
         1        2.0000           -0.9014972             -24.5310
       ...           ...                  ...                  ...
        25        2.0000           -0.6701097             -18.2346
        26        2.0000           -0.6685127             -18.1912
        27        2.0000           -0.6576265             -17.8949
        28        2.0000           -0.6465937             -17.5947
        29        2.0000           -0.6392825             -17.3958
        30        1.9999           -0.6219090             -16.9230
        31        1.9999           -0.6159557             -16.7610
        32        1.9999           -0.6120311             -16.6542
        33        1.9998           -0.6089110             -16.5693
        34        1.9992           -0.5844262             -15.9030
        35        1.9987           -0.5763541             -15.6834
        36        1.9956           -0.5570001             -15.1567
        37        1.7037           -0.4879666             -13.2782 (HOMO)
        38        0.2786           -0.4314309             -11.7398 (LUMO)
        39        0.0209           -0.3882495             -10.5648
        40        0.0038           -0.3608787              -9.8200
        41        0.0001           -0.2935382              -7.9876
        42        0.0000           -0.2048447              -5.5741
        43                         -0.1717317              -4.6731
        44                         -0.1440182              -3.9189
        45                         -0.1300698              -3.5394
        46                         -0.1090969              -2.9687
        47                         -0.0675851              -1.8391
        48                         -0.0353240              -0.9612
       ...                                ...                  ...
        67                          0.5363871              14.5958
      -------------------------------------------------------------
                  HL-Gap            0.0565357 Eh            1.5384 eV

     #   Z          covCN         q      C6AA      α(0)
     1   6 C        2.789    -0.130    31.298     9.164
     2   7 N        2.795     0.103    19.465     6.553
     3   6 C        3.038    -0.004    28.079     8.691
     4   7 N        2.774    -0.062    22.447     7.037
     5   6 C        3.016     0.105    25.666     8.310
     6   6 C        3.106    -0.037    28.784     8.791
     7   6 C        2.775     0.202    23.711     7.975
     8   8 O        1.659    -0.328    19.502     5.962
     9   7 N        2.746    -0.048    22.166     6.992
    10   6 C        3.706    -0.070    21.987     6.703
    11   6 C        2.727     0.312    21.697     7.626
    12   8 O        0.859    -0.356    20.812     6.116
    13   7 N        2.737    -0.058    22.369     7.024
    14   6 C        3.698    -0.072    22.045     6.716
    15   1 H        0.926     0.071     2.076     2.253
    16   1 H        0.927     0.082     1.957     2.188
    17   1 H        0.804     0.352     0.583     1.199
    18   1 H        0.927     0.105     1.740     2.063
    19   1 H        0.925     0.110     1.700     2.039
    20   1 H        0.925     0.104     1.750     2.069
    21   1 H        0.925     0.108     1.718     2.050
    22   1 H        0.924     0.085     1.932     2.174
    23   1 H        0.924     0.083     1.946     2.181
    24   1 H        0.925     0.125     1.576     1.963
    25   1 H        0.860     0.219     1.014     1.578

Wiberg/Mayer (AO) data.
largest (>0.10) Wiberg bond orders for each atom

     #   Z sym  total        # sym  WBO       # sym  WBO       # sym  WBO
 ---------------------------------------------------------------------------
     1   6 C    3.567 --     2 N    1.305    16 H    0.971    15 H    0.955
                             3 C    0.177
     2   7 N    3.721 --     1 C    1.305     3 C    1.250     6 C    1.071
     3   6 C    3.709 --     2 N    1.250     4 N    1.175    18 H    0.960
                             1 C    0.177
     4   7 N    3.556 --     5 C    1.260     3 C    1.175    25 H    0.924
     5   6 C    3.867 --     4 N    1.260     6 C    1.233    13 N    1.179
     6   6 C    3.906 --     7 C    1.295     5 C    1.233     2 N    1.071
     7   6 C    3.782 --     6 C    1.295     9 N    1.203     8 O    1.159
     8   8 O    2.178 --     7 C    1.159    17 H    0.826
     9   7 N    3.537 --     7 C    1.203    11 C    1.070    10 C    0.969
                            12 O    0.126
    10   6 C    3.916 --    19 H    0.971     9 N    0.969    20 H    0.964
                            21 H    0.963
    11   6 C    3.946 --    12 O    1.715    13 N    1.070     9 N    1.070
    12   8 O    2.068 --    11 C    1.715    13 N    0.135     9 N    0.126
    13   7 N    3.516 --     5 C    1.179    11 C    1.070    14 C    0.974
                            12 O    0.135
    14   6 C    3.926 --    13 N    0.974    22 H    0.970    23 H    0.970
                            24 H    0.965
    15   1 H    0.994 --     1 C    0.955
    16   1 H    0.992 --     1 C    0.971
    17   1 H    0.875 --     8 O    0.826
    18   1 H    0.988 --     3 C    0.960
    19   1 H    0.987 --    10 C    0.971
    20   1 H    0.984 --    10 C    0.964
    21   1 H    0.983 --    10 C    0.963
    22   1 H    0.989 --    14 C    0.970
    23   1 H    0.989 --    14 C    0.970
    24   1 H    0.984 --    14 C    0.965
    25   1 H    0.951 --     4 N    0.924
 ---------------------------------------------------------------------------

molecular dipole:
                 x           y           z       tot (Debye)
 q only:        1.778      -0.781      -0.188
   full:        2.259      -1.070      -0.195       6.373

           -------------------------------------------------
          | TOTAL ENERGY              -42.192118502797 Eh   |
          | GRADIENT NORM               0.002415346828 Eh/α |
          | HOMO-LUMO GAP               1.538414539933 eV   |
           -------------------------------------------------

 * finished run on 2024/06/05 at 19:58:28.383
