   * xtb version 6.6.1 (8d0f1dd) compiled by 'conda@1efc2f54142f' on 2023-08-01
          program call               : xtb struc.xyz --opt loose --input .xc1 --gfn2

   ID    Z sym.   atoms
    1    6 C      1, 3, 5-7, 10, 11, 14
    2    7 N      2, 4, 9, 13
    3    8 O      8, 12
    4    1 H      15-25
constraining bond 1 3 to    5.0000000 Å, actual value:    2.4701363 Å

          :  Hamiltonian                  GFN2-xTB          :
 * total energy  :   -30.8322696 Eh     change       -0.2401990E-09 Eh
 * total energy  :   -35.0312664 Eh     change       -0.4198997E+01 Eh
 * total energy  :   -38.3728815 Eh     change       -0.3341615E+01 Eh
 * total energy  :   -40.5329493 Eh     change       -0.2160068E+01 Eh
 * total energy  :   -41.5479160 Eh     change       -0.1014967E+01 Eh
 * total energy  :   -41.7535124 Eh     change       -0.2055964E+00 Eh
 * total energy  :   -41.7721621 Eh     change       -0.1864969E-01 Eh
 * total energy  :   -41.8026395 Eh     change       -0.3047738E-01 Eh
 * total energy  :   -41.8508879 Eh     change       -0.4824840E-01 Eh
 * total energy  :   -41.8938363 Eh     change       -0.4294842E-01 Eh
 * total energy  :   -42.0897134 Eh     change       -0.6907963E-02 Eh
 * total energy  :   -42.0976002 Eh     change       -0.7886812E-02 Eh
 * total energy  :   -42.0993092 Eh     change       -0.1709010E-02 Eh
 * total energy  :   -42.1004353 Eh     change       -0.1126101E-02 Eh
 * total energy  :   -42.1006929 Eh     change       -0.2576084E-03 Eh
 * total energy  :   -42.1007728 Eh     change       -0.7986063E-04 Eh
 * total energy  :   -42.1009975 Eh     change       -0.2247010E-03 Eh
 * total energy  :   -42.1010465 Eh     change       -0.4900415E-04 Eh
 * total energy  :   -42.1010735 Eh     change       -0.2699370E-04 Eh
   *** GEOMETRY OPTIMIZATION CONVERGED AFTER 32 ITERATIONS ***

 final structure:
================
25
 xtb: 6.6.1 (8d0f1dd)
C            3.06580806193515        1.82765671097902        0.03633475130612
N            2.44473281550331        0.54919706394694        0.00790925235756
C            2.31812673070200       -3.10175824114559       -0.05880334372141
N            1.22211371994537       -2.41720192570022       -0.01523024730854
C            0.63551926500379       -1.12596335825373       -0.00663362635753
C            1.18803134704371        0.21071662536399       -0.00026925022868
C            0.19082052264891        1.35155985690434       -0.00836521052697
O            0.53800410297214        2.51721257228600       -0.02113788267973
N           -1.14247189797127        1.05288319333073       -0.00149895904206
C           -2.11394733290838        2.13644662825892       -0.00222015168746
C           -1.66493898355773       -0.21348669857860        0.00826451033868
O           -2.85937676183258       -0.39577094281453        0.01939676088593
N           -0.75406559332033       -1.26399885325139        0.00234076214989
C           -1.41908603914002       -2.56646984138568        0.00200163513898
H            3.51483376623356        1.96489077392696        1.02481815497287
H            3.87186480322911        1.80574226904581       -0.70330600950028
H            2.37883151547514        2.65501024203289       -0.17446778413258
H            3.30560536721353       -2.65788805754780       -0.09452944161358
H           -1.58125943080646        3.08481664456461        0.00662043542494
H           -2.74265430392302        2.06319346743573       -0.89067988968517
H           -2.75478791609774        2.05202683016791        0.87643650119087
H           -1.20954046011082       -3.14111757246418        0.90870986959004
H           -1.21404308664271       -3.13722427506755       -0.90785121357082
H           -2.49348258186362       -2.35776423457266        0.00635386383852
H            0.43579388436880       -3.07447033586196        0.01697813076035

          :  Hamiltonian                  GFN2-xTB          :
         :: total energy             -42.101073468088 Eh    ::
         :: gradient norm              0.003251040159 Eh/a0 ::
         :: HOMO-LUMO gap              0.179115725047 eV    ::
         :: SCC energy               -42.589711008127 Eh    ::
         :: -> dispersion             -0.021706634152 Eh    ::
         :: repulsion energy           0.488200931971 Eh    ::

    * Orbital Energies and Occupations

         #    Occupation            Energy/Eh            Energy/eV
      -------------------------------------------------------------
         1        2.0000           -0.8948493             -24.3501
       ...           ...                  ...                  ...
        25        1.9979           -0.6699827             -18.2312
        26        1.9968           -0.6601331             -17.9631
        27        1.9948           -0.6484671             -17.6457
        28        1.9936           -0.6433409             -17.5062
        29        1.9904           -0.6338024             -17.2466
        30        1.9878           -0.6279247             -17.0867
        31        1.9849           -0.6228593             -16.9489
        32        1.9729           -0.6088860             -16.5686
        33        1.9602           -0.5996078             -16.3162
        34        1.9406           -0.5898634             -16.0510
        35        1.9258           -0.5843841             -15.9019
        36        1.5296           -0.5350506             -14.5595
        37        1.3215           -0.5228739             -14.2281 (HOMO)
        38        1.1923           -0.5162916             -14.0490 (LUMO)
        39        0.1813           -0.4522762             -12.3071
        40        0.0254           -0.4036613             -10.9842
        41        0.0109           -0.3834516             -10.4342
        42        0.0004           -0.3036013              -8.2614
        43        0.0000           -0.2227322              -6.0609
        44        0.0000           -0.1933616              -5.2616
        45        0.0000           -0.1616111              -4.3977
        46        0.0000           -0.1082909              -2.9467
        47                         -0.0973746              -2.6497
        48                         -0.0648347              -1.7642
       ...                                ...                  ...
        67                          0.5105525              13.8928
      -------------------------------------------------------------
                  HL-Gap            0.0065824 Eh            0.1791 eV

     #   Z          covCN         q      C6AA      α(0)
     1   6 C        3.686    -0.058    21.816     6.687
     2   7 N        1.828    -0.121    24.402     7.320
     3   6 C        1.837    -0.060    32.782     9.250
     4   7 N        2.692    -0.016    21.574     6.898
     5   6 C        2.812     0.079    26.219     8.389
     6   6 C        2.877     0.057    26.725     8.475
     7   6 C        2.773     0.260    22.628     7.791
     8   8 O        0.860    -0.332    20.360     6.050
     9   7 N        2.741    -0.056    22.317     7.016
    10   6 C        3.709    -0.062    21.826     6.677
    11   6 C        2.736     0.315    21.641     7.616
    12   8 O        0.860    -0.356    20.820     6.118
    13   7 N        2.749    -0.058    22.367     7.024
    14   6 C        3.708    -0.089    22.342     6.756
    15   1 H        0.924     0.127     1.558     1.952
    16   1 H        0.924     0.126     1.565     1.956
    17   1 H        0.924     0.158     1.342     1.812
    18   1 H        0.925     0.123     1.591     1.972
    19   1 H        0.925     0.123     1.593     1.974
    20   1 H        0.924     0.114     1.661     2.015
    21   1 H        0.924     0.115     1.657     2.013
    22   1 H        0.924     0.099     1.794     2.094
    23   1 H        0.924     0.099     1.791     2.093
    24   1 H        0.924     0.150     1.389     1.843
    25   1 H        0.860     0.262     0.838     1.434

Wiberg/Mayer (AO) data.
largest (>0.10) Wiberg bond orders for each atom

     #   Z sym  total        # sym  WBO       # sym  WBO       # sym  WBO
 ---------------------------------------------------------------------------
     1   6 C    3.818 --     2 N    1.094    16 H    0.915    15 H    0.908
                            17 H    0.851
     2   7 N    2.739 --     6 C    1.525     1 C    1.094
     3   6 C    2.616 --     4 N    1.595    18 H    0.914
     4   7 N    3.601 --     3 C    1.595     5 C    1.081    25 H    0.832
     5   6 C    3.613 --     6 C    1.203    13 N    1.155     4 N    1.081
     6   6 C    3.867 --     2 N    1.525     5 C    1.203     7 C    0.948
     7   6 C    3.842 --     8 O    1.648     9 N    1.152     6 C    0.948
     8   8 O    1.950 --     7 C    1.648     9 N    0.116
     9   7 N    3.508 --     7 C    1.152    11 C    1.109    10 C    0.966
                             8 O    0.116    12 O    0.106
    10   6 C    3.863 --     9 N    0.966    19 H    0.957    21 H    0.948
                            20 H    0.948
    11   6 C    3.925 --    12 O    1.644     9 N    1.109    13 N    1.090
    12   8 O    1.946 --    11 C    1.644    13 N    0.111     9 N    0.106
    13   7 N    3.450 --     5 C    1.155    11 C    1.090    14 C    0.979
                            12 O    0.111
    14   6 C    3.900 --    13 N    0.979    23 H    0.951    22 H    0.949
                            24 H    0.933
    15   1 H    0.937 --     1 C    0.908
    16   1 H    0.938 --     1 C    0.915
    17   1 H    0.898 --     1 C    0.851
    18   1 H    0.929 --     3 C    0.914
    19   1 H    0.974 --    10 C    0.957
    20   1 H    0.966 --    10 C    0.948
    21   1 H    0.966 --    10 C    0.948
    22   1 H    0.977 --    14 C    0.949
    23   1 H    0.977 --    14 C    0.951
    24   1 H    0.970 --    14 C    0.933
    25   1 H    0.907 --     4 N    0.832
 ---------------------------------------------------------------------------

molecular dipole:
                 x           y           z       tot (Debye)
 q only:        1.143      -1.300       0.015
   full:        1.149      -1.122       0.024       4.083

           -------------------------------------------------
          | TOTAL ENERGY              -42.101073468088 Eh   |
          | GRADIENT NORM               0.003251040159 Eh/α |
          | HOMO-LUMO GAP               0.179115725047 eV   |
           -------------------------------------------------

 * finished run on 2024/06/05 at 19:58:41.967
