   * xtb version 6.6.1 (8d0f1dd) compiled by 'conda@1efc2f54142f' on 2023-08-01
          program call               : xtb xtbopt.xyz --opt crude --input .xc2 --gfn2

   ID    Z sym.   atoms
    1    6 C      1, 3, 5-7, 10, 11, 14
    2    7 N      2, 4, 9, 13
    3    8 O      8, 12
    4    1 H      15-25
########################################################################
[WARNING] Please study the warnings concerning your input carefully
-1- readin_getIntValue: could not parse ''
########################################################################

          :  Hamiltonian                  GFN2-xTB          :
 * total energy  :   -42.1013891 Eh     change       -0.1428191E-11 Eh
 * total energy  :   -42.1107369 Eh     change       -0.9347726E-02 Eh
 * total energy  :   -42.1196606 Eh     change       -0.8923709E-02 Eh
 * total energy  :   -42.1248820 Eh     change       -0.5221437E-02 Eh
 * total energy  :   -42.1281614 Eh     change       -0.3279376E-02 Eh
 * total energy  :   -42.1304738 Eh     change       -0.2312397E-02 Eh
 * total energy  :   -42.1312048 Eh     change       -0.7310419E-03 Eh
 * total energy  :   -42.1315942 Eh     change       -0.3893882E-03 Eh
 * total energy  :   -42.1316887 Eh     change       -0.9453357E-04 Eh
   *** GEOMETRY OPTIMIZATION CONVERGED AFTER 9 ITERATIONS ***

 final structure:
================
25
 xtb: 6.6.1 (8d0f1dd)
C            3.16099228402472        1.41969189082379        0.01913727491230
N            2.34525547253757        0.28443055980738       -0.01527293404800
C            2.57214716874263       -2.31598664708616       -0.01848159973819
N            1.28342309264976       -2.24223484897685       -0.00692347326833
C            0.46416619258037       -1.11744997534191       -0.00689260111636
C            1.05456472633785        0.17161079097443       -0.00602342693121
C            0.14126740637522        1.34885442137925       -0.00898363753514
O            0.54675957766476        2.49257770016240       -0.02017143881434
N           -1.20521895248806        1.05493796274925       -0.00097490941295
C           -2.15066604206127        2.16106215631229        0.00134962953843
C           -1.77083812090527       -0.20441935312295        0.00471264490306
O           -2.96491766061822       -0.36558220013545        0.01409460902056
N           -0.88851767862947       -1.28839329816700       -0.00167348000506
C           -1.48670801094418       -2.61042726951646       -0.00182275750124
H            3.65232161035170        1.47560984501807        0.99719555175934
H            3.94388867377068        1.30844750166695       -0.73584858016560
H            2.60333418795963        2.34873229898534       -0.15266022600377
H            3.23745443884459       -1.45901924007060       -0.03249759954322
H           -1.59190723237410        3.09495625011624        0.01228779498853
H           -2.78181046810916        2.10909565947268       -0.88711892397393
H           -2.79347457496423        2.09371842199658        0.88022862911511
H           -1.21685089672265       -3.16424320009550        0.89945692634989
H           -1.20930015345456       -3.16682610446552       -0.89906595197179
H           -2.56944400002216       -2.47382031608413       -0.00564053172628
H            0.78451047355368       -3.13708446480208        0.00276062906796

          :  Hamiltonian                  GFN2-xTB          :
         :: total energy             -42.131688737944 Eh    ::
         :: gradient norm              0.007931160272 Eh/a0 ::
         :: HOMO-LUMO gap              0.124946106241 eV    ::
         :: SCC energy               -42.638573231365 Eh    ::
         :: -> dispersion             -0.022304847649 Eh    ::
         :: repulsion energy           0.506754656848 Eh    ::

    * Orbital Energies and Occupations

         #    Occupation            Energy/Eh            Energy/eV
      -------------------------------------------------------------
         1        2.0000           -0.8949484             -24.3528
       ...           ...                  ...                  ...
        25        1.9982           -0.6751845             -18.3727
        26        1.9982           -0.6743304             -18.3495
        27        1.9947           -0.6490056             -17.6603
        28        1.9930           -0.6423643             -17.4796
        29        1.9912           -0.6367823             -17.3277
        30        1.9879           -0.6292705             -17.1233
        31        1.9835           -0.6217251             -16.9180
        32        1.9713           -0.6084681             -16.5573
        33        1.9612           -0.6011788             -16.3589
        34        1.9496           -0.5948387             -16.1864
        35        1.9182           -0.5829429             -15.8627
        36        1.7371           -0.5528593             -15.0441
        37        1.1985           -0.5175666             -14.0837 (HOMO)
        38        1.1041           -0.5129749             -13.9588 (LUMO)
        39        0.1857           -0.4538744             -12.3505
        40        0.0229           -0.4021503             -10.9431
        41        0.0113           -0.3852496             -10.4832
        42        0.0003           -0.2983297              -8.1180
        43        0.0000           -0.2075831              -5.6486
        44        0.0000           -0.1652012              -4.4954
        45        0.0000           -0.1495862              -4.0704
        46                         -0.0961945              -2.6176
        47                         -0.0773161              -2.1039
        48                         -0.0387500              -1.0544
       ...                                ...                  ...
        67                          0.5277880              14.3618
      -------------------------------------------------------------
                  HL-Gap            0.0045917 Eh            0.1249 eV

     #   Z          covCN         q      C6AA      α(0)
     1   6 C        3.689    -0.051    21.685     6.665
     2   7 N        1.836    -0.130    24.606     7.351
     3   6 C        1.847    -0.068    33.009     9.281
     4   7 N        2.687     0.007    21.137     6.828
     5   6 C        2.851     0.084    26.121     8.376
     6   6 C        2.889     0.048    26.910     8.505
     7   6 C        2.768     0.262    22.577     7.782
     8   8 O        0.858    -0.328    20.294     6.040
     9   7 N        2.739    -0.064    22.471     7.040
    10   6 C        3.709    -0.061    21.814     6.675
    11   6 C        2.725     0.315    21.645     7.616
    12   8 O        0.860    -0.344    20.596     6.085
    13   7 N        2.740    -0.042    22.049     6.974
    14   6 C        3.700    -0.078    22.165     6.733
    15   1 H        0.924     0.121     1.605     1.981
    16   1 H        0.924     0.118     1.627     1.995
    17   1 H        0.924     0.136     1.492     1.910
    18   1 H        0.925     0.151     1.382     1.838
    19   1 H        0.925     0.123     1.592     1.973
    20   1 H        0.924     0.114     1.665     2.018
    21   1 H        0.924     0.114     1.662     2.016
    22   1 H        0.924     0.095     1.835     2.119
    23   1 H        0.924     0.095     1.836     2.119
    24   1 H        0.924     0.138     1.476     1.900
    25   1 H        0.859     0.245     0.904     1.489

Wiberg/Mayer (AO) data.
largest (>0.10) Wiberg bond orders for each atom

     #   Z sym  total        # sym  WBO       # sym  WBO       # sym  WBO
 ---------------------------------------------------------------------------
     1   6 C    3.851 --     2 N    1.093    16 H    0.920    15 H    0.907
                            17 H    0.883
     2   7 N    2.800 --     6 C    1.497     1 C    1.093
     3   6 C    2.613 --     4 N    1.564    18 H    0.872
     4   7 N    3.629 --     3 C    1.564     5 C    1.102    25 H    0.878
     5   6 C    3.666 --     6 C    1.210    13 N    1.191     4 N    1.102
     6   6 C    3.872 --     2 N    1.497     5 C    1.210     7 C    0.967
     7   6 C    3.853 --     8 O    1.665     9 N    1.132     6 C    0.967
     8   8 O    1.954 --     7 C    1.665     9 N    0.121
     9   7 N    3.501 --     7 C    1.132    11 C    1.106    10 C    0.970
                             8 O    0.121    12 O    0.112
    10   6 C    3.863 --     9 N    0.970    19 H    0.956    21 H    0.947
                            20 H    0.947
    11   6 C    3.924 --    12 O    1.666     9 N    1.106    13 N    1.067
    12   8 O    1.959 --    11 C    1.666     9 N    0.112    13 N    0.107
    13   7 N    3.465 --     5 C    1.191    11 C    1.067    14 C    0.979
                            12 O    0.107
    14   6 C    3.903 --    13 N    0.979    23 H    0.958    22 H    0.958
                            24 H    0.952
    15   1 H    0.937 --     1 C    0.907
    16   1 H    0.944 --     1 C    0.920
    17   1 H    0.916 --     1 C    0.883
    18   1 H    0.933 --     3 C    0.872
    19   1 H    0.974 --    10 C    0.956
    20   1 H    0.965 --    10 C    0.947
    21   1 H    0.965 --    10 C    0.947
    22   1 H    0.977 --    14 C    0.958
    23   1 H    0.977 --    14 C    0.958
    24   1 H    0.976 --    14 C    0.952
    25   1 H    0.919 --     4 N    0.878
 ---------------------------------------------------------------------------

molecular dipole:
                 x           y           z       tot (Debye)
 q only:        1.262      -1.537       0.022
   full:        1.112      -1.413       0.033       4.571

           -------------------------------------------------
          | TOTAL ENERGY              -42.131688737944 Eh   |
          | GRADIENT NORM               0.007931160272 Eh/α |
          | HOMO-LUMO GAP               0.124946106241 eV   |
           -------------------------------------------------

 * finished run on 2024/06/05 at 19:58:42.348
