   * xtb version 6.6.1 (8d0f1dd) compiled by 'conda@1efc2f54142f' on 2023-08-01
          program call               : xtb struc.xyz --opt loose --input .xc1 --gfn2

   ID    Z sym.   atoms
    1    6 C      1, 3, 5-7, 10, 11, 14
    2    7 N      2, 4, 9, 13
    3    8 O      8, 12
    4    1 H      15-25
constraining bond 13 24 to    4.0600000 Å, actual value:    2.0566599 Å

          :  Hamiltonian                  GFN2-xTB          :
 * total energy  :   -35.0818547 Eh     change       -0.6650680E-10 Eh
 * total energy  :   -38.1130824 Eh     change       -0.3031228E+01 Eh
 * total energy  :   -40.2719313 Eh     change       -0.2158849E+01 Eh
 * total energy  :   -41.3973548 Eh     change       -0.1125423E+01 Eh
 * total energy  :   -41.7500041 Eh     change       -0.3526493E+00 Eh
 * total energy  :   -41.8052082 Eh     change       -0.5520405E-01 Eh
 * total energy  :   -41.8408816 Eh     change       -0.3567343E-01 Eh
 * total energy  :   -41.9021940 Eh     change       -0.6131240E-01 Eh
 * total energy  :   -41.9499327 Eh     change       -0.4773867E-01 Eh
 * total energy  :   -41.9741471 Eh     change       -0.2421439E-01 Eh
 * total energy  :   -42.1016626 Eh     change       -0.2095337E-02 Eh
 * total energy  :   -42.1021454 Eh     change       -0.4827226E-03 Eh
 * total energy  :   -42.1030621 Eh     change       -0.9167153E-03 Eh
 * total energy  :   -42.1034299 Eh     change       -0.3678278E-03 Eh
 * total energy  :   -42.1036152 Eh     change       -0.1853043E-03 Eh
 * total energy  :   -42.1037666 Eh     change       -0.1514236E-03 Eh
 * total energy  :   -42.1035126 Eh     change        0.2540599E-03 Eh
 * total energy  :   -42.1039241 Eh     change       -0.4114935E-03 Eh
 * total energy  :   -42.1039651 Eh     change       -0.4105380E-04 Eh
   *** GEOMETRY OPTIMIZATION CONVERGED AFTER 55 ITERATIONS ***

 final structure:
================
25
 xtb: 6.6.1 (8d0f1dd)
C            3.28573033968270        1.26885386231740        0.07299803144860
N            2.38199545834832        0.14964720210843        0.03271439289689
C            2.71125317856964       -1.13729081522176        0.03137151474609
N            1.59803545770674       -1.89994859323623        0.01076799302490
C            0.51223316002776       -1.06011153419356       -0.00472786212853
C            1.01108711947224        0.23793199960489        0.00974077744027
C            0.15089956266660        1.39946172204797       -0.00631407844275
O            0.51478498981201        2.55355460630928        0.00938789384388
N           -1.19815477568320        1.02833396962372       -0.04455222132917
C           -2.18195007882193        2.10610941879522       -0.08604988891289
C           -1.73663194850926       -0.22849027073190       -0.05822684786610
O           -2.91110681541479       -0.45418944814871       -0.10071285972135
N           -0.80822357092423       -1.35345299847850       -0.01030766497438
C           -1.33266948690206       -2.58954610516535        0.02287191632132
H            3.85664527301130        1.25923295153526        1.00178811690863
H            3.97955176354488        1.22676694459895       -0.76599086495145
H            2.70430780263260        2.18879161069352        0.01950999978267
H            3.71279470288625       -1.52031410870098        0.04418973321925
H           -1.64544837126128        3.05090948738235       -0.05860172816044
H           -2.77149204347554        2.03235227358293       -0.99885599836919
H           -2.85254154093563        2.02698014501770        0.76795154203236
H           -0.70115668005848       -3.45064612397903        0.10104196408760
H           -2.40837188716256       -2.67848335598514        0.03783927648033
H           -4.29677730981422       -3.42882735848910        0.00424008411954
H            1.58563721470223       -2.90938693968709       -0.00090160359594

          :  Hamiltonian                  GFN2-xTB          :
         :: total energy             -42.103965120379 Eh    ::
         :: gradient norm              0.003319516530 Eh/a0 ::
         :: HOMO-LUMO gap              0.040726812405 eV    ::
         :: SCC energy               -42.626415640124 Eh    ::
         :: -> dispersion             -0.022792841224 Eh    ::
         :: repulsion energy           0.522374284520 Eh    ::

    * Orbital Energies and Occupations

         #    Occupation            Energy/Eh            Energy/eV
      -------------------------------------------------------------
         1        2.0000           -0.9167241             -24.9453
       ...           ...                  ...                  ...
        25        2.0000           -0.6686939             -18.1961
        26        2.0000           -0.6682056             -18.1828
        27        2.0000           -0.6595834             -17.9482
        28        1.9999           -0.6352974             -17.2873
        29        1.9998           -0.6324239             -17.2091
        30        1.9998           -0.6282061             -17.0944
        31        1.9997           -0.6195371             -16.8585
        32        1.9987           -0.5988618             -16.2959
        33        1.9976           -0.5890058             -16.0277
        34        1.9969           -0.5850037             -15.9188
        35        1.9883           -0.5637346             -15.3400
        36        1.9876           -0.5628160             -15.3150
        37        0.9827           -0.4819311             -13.1140 (HOMO)
        38        0.9355           -0.4804345             -13.0733 (LUMO)
        39        0.1012           -0.4360543             -11.8656
        40        0.0104           -0.3992731             -10.8648
        41        0.0020           -0.3732749             -10.1573
        42        0.0000           -0.2883134              -7.8454
        43                         -0.2133325              -5.8051
        44                         -0.2004741              -5.4552
        45                         -0.1502614              -4.0888
        46                         -0.1341495              -3.6504
        47                         -0.0663988              -1.8068
        48                         -0.0398234              -1.0836
       ...                                ...                  ...
        67                          0.5562121              15.1353
      -------------------------------------------------------------
                  HL-Gap            0.0014967 Eh            0.0407 eV

     #   Z          covCN         q      C6AA      α(0)
     1   6 C        3.691    -0.097    22.541     6.794
     2   7 N        2.831     0.085    19.774     6.604
     3   6 C        3.051     0.054    26.749     8.482
     4   7 N        2.790    -0.057    22.340     7.020
     5   6 C        3.038     0.093    25.906     8.348
     6   6 C        3.114    -0.017    28.263     8.709
     7   6 C        2.763     0.267    22.503     7.769
     8   8 O        0.858    -0.367    21.029     6.148
     9   7 N        2.744    -0.079    22.771     7.087
    10   6 C        3.713    -0.064    21.865     6.681
    11   6 C        2.733     0.311    21.722     7.631
    12   8 O        0.859    -0.339    20.504     6.071
    13   7 N        2.735     0.008    21.113     6.824
    14   6 C        2.797    -0.059    29.452     8.890
    15   1 H        0.924     0.109     1.707     2.043
    16   1 H        0.925     0.108     1.716     2.048
    17   1 H        0.925     0.140     1.464     1.892
    18   1 H        0.926     0.127     1.555     1.950
    19   1 H        0.925     0.116     1.644     2.005
    20   1 H        0.925     0.098     1.803     2.100
    21   1 H        0.925     0.099     1.799     2.097
    22   1 H        0.926     0.086     1.917     2.165
    23   1 H        0.926     0.132     1.516     1.926
    24   1 H        0.000     0.018     6.893     4.801
    25   1 H        0.860     0.229     0.969     1.542

Wiberg/Mayer (AO) data.
largest (>0.10) Wiberg bond orders for each atom

     #   Z sym  total        # sym  WBO       # sym  WBO       # sym  WBO
 ---------------------------------------------------------------------------
     1   6 C    3.912 --     2 N    0.984    16 H    0.960    17 H    0.959
                            15 H    0.957
     2   7 N    3.671 --     3 C    1.385     6 C    1.165     1 C    0.984
     3   6 C    3.840 --     2 N    1.385     4 N    1.287    18 H    0.952
     4   7 N    3.553 --     3 C    1.287     5 C    1.166    25 H    0.918
     5   6 C    3.885 --     6 C    1.336     4 N    1.166    13 N    1.166
     6   6 C    3.857 --     5 C    1.336     2 N    1.165     7 C    1.076
     7   6 C    3.916 --     8 O    1.673     9 N    1.080     6 C    1.076
     8   8 O    1.986 --     7 C    1.673     9 N    0.138
     9   7 N    3.569 --    11 C    1.171     7 C    1.080    10 C    0.963
                            12 O    0.151     8 O    0.138
    10   6 C    3.912 --    19 H    0.968    21 H    0.966    20 H    0.966
                             9 N    0.963
    11   6 C    3.924 --    12 O    1.726     9 N    1.171    13 N    0.933
    12   8 O    2.054 --    11 C    1.726     9 N    0.151
    13   7 N    3.622 --    14 C    1.298     5 C    1.166    11 C    0.933
    14   6 C    3.314 --    13 N    1.298    22 H    0.969    23 H    0.935
    15   1 H    0.985 --     1 C    0.957
    16   1 H    0.985 --     1 C    0.960
    17   1 H    0.980 --     1 C    0.959
    18   1 H    0.983 --     3 C    0.952
    19   1 H    0.985 --    10 C    0.968
    20   1 H    0.987 --    10 C    0.966
    21   1 H    0.987 --    10 C    0.966
    22   1 H    0.991 --    14 C    0.969
    23   1 H    0.982 --    14 C    0.935
    24   1 H    0.026
    25   1 H    0.947 --     4 N    0.918
 ---------------------------------------------------------------------------

molecular dipole:
                 x           y           z       tot (Debye)
 q only:        2.714      -1.823       0.064
   full:        3.011      -2.398       0.076       9.786

           -------------------------------------------------
          | TOTAL ENERGY              -42.103965120379 Eh   |
          | GRADIENT NORM               0.003319516530 Eh/α |
          | HOMO-LUMO GAP               0.040726812405 eV   |
           -------------------------------------------------

 * finished run on 2024/06/05 at 19:58:01.527
